Control file title. For DL_FIELD 4.10
49660
    1MOL     C1    1   1.096   3.717   0.403  0.5679 -0.2250  0.6440
    1MOL     C2    2   1.203   3.824   0.373  0.5635 -0.1493 -0.5972
    1MOL     C3    3   1.170   3.961   0.392 -0.1193 -0.6450  0.4687
    1MOL     C4    4   1.263   4.065   0.374  0.9989  0.3393 -0.3756
    1MOL     C5    5   1.397   4.033   0.349  0.4171 -0.8688 -0.1216
    1MOL     C6    6   1.505   4.136   0.343  0.4190 -1.0619 -1.2479
    1MOL     C7    7   1.430   3.902   0.333 -0.4162 -0.4807 -0.9237
    1MOL     C8    8   1.338   3.799   0.337  0.7919 -0.3263 -0.1934
    1MOL     C9    9   0.999   3.691   0.288  0.2936  0.1787 -0.0765
    1MOL    H10   10   1.146   3.627   0.440  0.3050 -0.2662  0.9106
    1MOL    H11   11   1.066   3.990   0.398 -0.3729 -1.0192 -1.6964
    1MOL    H12   12   1.240   4.169   0.393  0.6667  0.1116  0.4913
    1MOL    H13   13   1.520   4.166   0.239 -2.2902 -0.3444 -1.4797
    1MOL    H14   14   1.473   4.211   0.416 -0.8501 -1.7159 -1.1199
    1MOL    H15   15   1.598   4.092   0.377  1.1957  1.6293  0.2926
    1MOL    H16   16   1.535   3.878   0.331  0.0348  1.2240  0.8631
    1MOL    H17   17   1.371   3.698   0.318  1.1045 -0.5609  1.4803
    1MOL    H18   18   1.041   3.619   0.218 -0.3678  0.9482 -1.2824
    1MOL    H19   19   0.968   3.779   0.232  0.1179 -0.0241 -0.3015
    1MOL    H20   20   1.035   3.759   0.484 -1.4679 -1.6584 -0.0835
    1MOL    C21   21   0.869   3.618   0.338 -0.3454  0.2000  0.6170
    1MOL    C22   22   0.903   3.476   0.379  0.0492  0.5631 -0.1921
    1MOL    C23   23   0.955   3.381   0.294  0.2234 -0.3746  0.1540
    1MOL    C24   24   0.989   3.256   0.337 -0.3390  0.9804 -0.0543
    1MOL    C25   25   0.941   3.206   0.460 -0.0029  0.2619 -0.0780
    1MOL    C26   26   0.966   3.065   0.501 -0.9086 -0.0583  0.1120
    1MOL    C27   27   0.869   3.295   0.543 -0.3143 -0.2337 -0.9047
    1MOL    C28   28   0.862   3.430   0.511 -0.1500 -0.3915  0.4295
    1MOL    C29   29   0.757   3.624   0.234  0.1348 -0.4333 -0.6435
    1MOL    H30   30   0.826   3.669   0.425  1.8635 -2.1184  3.1701
    1MOL    H31   31   0.991   3.409   0.196  0.1549  0.5911  0.4009
    1MOL    H32   32   1.035   3.185   0.270  0.9155 -0.9659  2.7301
    1MOL    H33   33   0.922   3.023   0.591  1.3286  0.1669  1.3452
    1MOL    H34   34   0.948   2.991   0.423  1.2663 -2.6318  1.9608
    1MOL    H35   35   1.074   3.066   0.520 -0.3928 -0.9320 -2.4820
    1MOL    H36   36   0.827   3.264   0.638  0.2668  0.2681 -0.4809
    1MOL    H37   37   0.820   3.505   0.576  1.0237 -0.1541  0.9350
    1MOL    H38   38   0.771   3.555   0.151 -2.8884 -0.6754 -1.0110
    1MOL    H39   39   0.743   3.718   0.181  0.8424 -1.8131 -3.3983
    1MOL    C40   40   0.609   3.594   0.281  0.1966 -0.6810 -0.1740
    1MOL    C41   41   0.531   3.523   0.172 -0.2708  0.3754 -0.6094
    1MOL    C42   42   0.468   3.402   0.197  0.3921  0.0629 -1.3501
    1MOL    C43   43   0.406   3.321   0.100 -0.0851 -0.9005  0.5018
    1MOL    C44   44   0.409   3.361   8.046 -1.0761 -0.8269  0.2484
    1MOL    C45   45   0.339   3.273   7.941 -0.2891  0.5029  0.5489
    1MOL    C46   46   0.459   3.489   8.013 -0.4333  0.2116  0.4496
    1MOL    C47   47   0.532   3.563   0.033 -0.7725 -0.6603 -0.5009
    1MOL    C48   48   0.545   3.719   0.338  0.2456  0.1356 -0.2404
    1MOL    H49   49   0.627   3.521   0.360  0.3005 -0.9529 -0.4509
    1MOL    H50   50   0.466   3.372   0.301 -1.0160  2.2106 -0.7436
    1MOL    H51   51   0.361   3.230   0.136 -0.9511  0.5205  3.1174
    1MOL    H52   52   0.286   3.189   7.987 -1.1766  0.4797 -0.5129
    1MOL    H53   53   0.274   3.327   7.873  1.3778  1.3306 -0.4178
    1MOL    H54   54   0.417   3.225   7.881  0.4315  0.6538  1.3518
    1MOL    H55   55   0.449   3.534   7.916 -0.4538  0.2837  0.4860
    1MOL    H56   56   0.581   3.654   0.004 -0.1018 -0.8161  0.1391
    1MOL    H57   57   0.523   3.802   0.270 -2.5456  1.0347  1.6527
    1MOL    H58   58   0.617   3.762   0.407 -0.1841 -0.1425  0.3920
    1MOL    C59   59   0.416   3.688   0.424  0.9534  0.2245  0.4409
    1MOL    C60   60   0.281   3.701   0.342  0.0772  0.0869  0.2785
    1MOL    C61   61   0.244   3.822   0.278  0.6720 -0.3788  0.9820
    1MOL    C62   62   0.117   3.834   0.215 -0.1174 -0.6481 -0.1975
    1MOL    C63   63   0.031   3.723   0.225  0.2527  0.5617 -0.0482
    1MOL    C64   64   7.977   3.723   0.161  0.0589  0.0364  0.5022
    1MOL    C65   65   0.073   3.601   0.284 -0.0194 -0.3176  0.8283
    1MOL    C66   66   0.193   3.598   0.346  0.6304  0.0138 -0.0718
    1MOL    C67   67   0.407   3.764   0.561 -0.1049  0.9626  0.0897
    1MOL    H68   68   0.430   3.582   0.446  0.2549 -0.0408 -0.3740
    1MOL    H69   69   0.313   3.904   0.271  0.0008  0.1290  0.1680
    1MOL    H70   70   0.084   3.927   0.170  2.5169  0.0443 -0.7577
    1MOL    H71   71   7.995   3.733   0.054 -1.1389 -1.0748  0.1888
    1MOL    H72   72   7.928   3.628   0.180  0.9397 -0.3901  0.6511
    1MOL    H73   73   7.915   3.805   0.197 -2.4213 -2.2406  1.5352
    1MOL    H74   74   0.008   3.515   0.294 -0.1404 -0.1000  2.0221
    1MOL    H75   75   0.224   3.514   0.406  0.4608 -0.8040 -1.1123
    1MOL    H76   76   0.313   3.818   0.570 -1.2617 -0.8702 -0.6120
    1MOL    H77   77   0.486   3.839   0.561  0.1596  0.6891  0.8524
    1MOL    C78   78   0.432   3.677   0.688 -0.6554  0.4467  0.8841
    1MOL    C79   79   0.403   3.752   0.816 -0.5788 -0.3178 -0.0209
    1MOL    C80   80   0.312   3.701   0.912  0.0512  0.3927 -0.0272
    1MOL    C81   81   0.296   3.764   1.037 -0.1923  0.3062 -0.6659
    1MOL    C82   82   0.364   3.883   1.064 -0.1736 -0.6885  0.6000
    1MOL    C83   83   0.368   3.944   1.204 -0.4129 -0.7228  0.3287
    1MOL    C84   84   0.448   3.933   0.963  0.1213 -0.0456 -0.2190
    1MOL    C85   85   0.477   3.868   0.843 -0.2967 -0.2574 -0.8298
    1MOL    C86   86   0.580   3.616   0.690  0.2485  0.2510 -0.5943
    1MOL    H87   87   0.370   3.589   0.667  1.1226 -0.2425 -1.7331
    1MOL    H88   88   0.262   3.608   0.891 -1.4632  1.1812  0.0117
    1MOL    H89   89   0.225   3.726   1.108 -0.5088  0.2204 -1.0250
    1MOL    H90   90   0.293   3.899   1.269  0.5778 -1.6279  0.8657
    1MOL    H91   91   0.467   3.917   1.240 -0.4992 -0.5951  0.6631
    1MOL    H92   92   0.357   4.052   1.202 -1.2257 -0.8207 -0.8565
    1MOL    H93   93   0.501   4.022   0.992 -1.6647  0.2635  2.2623
    1MOL    H94   94   0.550   3.906   0.773  1.0569 -0.1053  0.6509
    1MOL    H95   95   0.645   3.698   0.719  1.2341  0.4025 -3.0705
    1MOL    H96   96   0.609   3.579   0.591 -0.2825 -1.6086 -0.0733
    1MOL    C97   97   0.594   3.492   0.784 -0.2028 -0.2742 -0.6299
    1MOL    C98   98   0.488   3.390   0.764  0.4992 -0.0783  0.5095
    1MOL    C99   99   0.392   3.353   0.868 -0.5589 -0.5730 -0.3523
    1MOL   C100  100   0.305   3.242   0.843 -0.0398 -0.0456  0.1247
    1MOL   C101  101   0.305   3.177   0.716 -0.3621 -0.1076  0.2243
    1MOL   C102  102   0.199   3.080   0.686 -0.2078  0.2233 -0.2162
    1MOL   C103  103   0.399   3.218   0.621 -0.1909 -0.5375 -0.0470
    1MOL   C104  104   0.490   3.326   0.638  0.9265  0.0462  0.5871
    1MOL   C105  105   0.619   3.525   0.930  1.0730  0.3007  1.1321
    1MOL   H106  106   0.681   3.436   0.749 -0.4857 -0.7672 -0.5484
    1MOL   H107  107   0.394   3.400   0.965  0.9458 -0.6170 -0.3454
    1MOL   H108  108   0.243   3.210   0.925 -0.8122 -1.9454 -1.1509
    1MOL   H109  109   0.257   2.988   0.682  0.6693  0.7069  1.1696
    1MOL   H110  110   0.116   3.092   0.755  0.2165  0.7443  0.2097
    1MOL   H111  111   0.160   3.090   0.584  1.4868 -0.6774 -0.9841
    1MOL   H112  112   0.394   3.157   0.533 -2.4240 -1.1975  0.4958
    1MOL   H113  113   0.556   3.351   0.556 -0.1101  0.2768 -0.1851
    1MOL   H114  114   0.635   3.429   0.979 -2.3206 -1.4270 -1.0262
    1MOL   H115  115   0.534   3.571   0.980 -0.2729 -1.5305  0.5636
    1MOL   C116  116   0.730   3.623   0.970 -0.2942  0.2946  0.2514
    1MOL   C117  117   0.861   3.602   0.895 -0.3466  0.9654 -0.4950
    1MOL   C118  118   0.928   3.718   0.834  0.1242 -0.0965 -0.4309
    1MOL   C119  119   1.050   3.698   0.776 -0.1838  0.2878 -0.3323
    1MOL   C120  120   1.100   3.565   0.764 -0.4005  0.1163  1.1526
    1MOL   C121  121   1.241   3.540   0.708  0.0240 -0.6451  0.3582
    1MOL   C122  122   1.029   3.449   0.804 -0.1688 -0.5274  0.6197
    1MOL   C123  123   0.909   3.471   0.873  0.9759  0.8065  0.4710
    1MOL   C124  124   0.737   3.645   1.126 -0.8897  0.3517  0.4929
    1MOL   H125  125   0.708   3.723   0.934 -4.3333 -1.0337 -1.2736
    1MOL   H126  126   0.884   3.815   0.850 -0.0911 -0.3433  0.4767
    1MOL   H127  127   1.113   3.779   0.743  0.2213  0.4437  0.7996
    1MOL   H128  128   1.277   3.609   0.632 -1.1135 -0.6304 -0.1821
    1MOL   H129  129   1.311   3.546   0.791  2.0936  1.4514 -1.4527
    1MOL   H130  130   1.252   3.438   0.670  2.1312 -0.0207 -0.7539
    1MOL   H131  131   1.069   3.349   0.808  0.0749 -0.4219  0.9683
    1MOL   H132  132   0.846   3.388   0.900 -0.2617  0.3786 -3.3945
    1MOL   H133  133   0.653   3.712   1.144 -0.2927  1.0534  0.6646
    1MOL   H134  134   0.823   3.712   1.126  0.2998 -1.1439  1.6650
    1MOL   C135  135   0.757   3.536   1.231 -0.2302 -0.4245  1.3648
    1MOL   C136  136   0.642   3.442   1.236  0.2180 -0.3374  0.4698
    1MOL   C137  137   0.512   3.483   1.267  0.5105  0.0333  0.0150
    1MOL   C138  138   0.403   3.392   1.266  0.3015 -0.4727  0.0720
    1MOL   C139  139   0.424   3.259   1.226 -0.6076  0.3404  0.2490
    1MOL   C140  140   0.312   3.155   1.222  0.3907  0.0096 -0.5409
    1MOL   C141  141   0.556   3.214   1.194 -0.3723  0.2383 -0.2721
    1MOL   C142  142   0.667   3.305   1.201  0.2954 -0.9034  0.5446
    1MOL   C143  143   0.796   3.598   1.370 -0.0500  0.2107  0.3363
    1MOL   H144  144   0.851   3.487   1.206  0.8226  2.0594  0.2817
    1MOL   H145  145   0.488   3.585   1.291 -0.4660 -0.5898  1.7383
    1MOL   H146  146   0.302   3.426   1.287 -1.4908 -4.8935 -0.8620
    1MOL   H147  147   0.341   3.057   1.261 -0.8832  0.4520  1.5814
    1MOL   H148  148   0.226   3.184   1.282 -0.6642 -2.8593 -0.5774
    1MOL   H149  149   0.273   3.151   1.120 -0.9973 -1.4713  0.0213
    1MOL   H150  150   0.567   3.113   1.158 -2.2971 -0.6171  1.4498
    1MOL   H151  151   0.768   3.272   1.183  0.2778 -0.9649  0.5584
    1MOL   H152  152   0.702   3.645   1.399 -0.9448 -0.9116 -0.6466
    1MOL   H153  153   0.873   3.674   1.359  1.0593 -1.1163 -1.3597
    1MOL   C154  154   0.831   3.496   1.482 -0.7612  0.2845 -0.3301
    1MOL   C155  155   0.785   3.553   1.613 -0.3803 -0.1092  0.1631
    1MOL   C156  156   0.689   3.485   1.698 -0.1299  1.0896  1.2537
    1MOL   C157  157   0.654   3.543   1.819  0.1667 -0.3629 -0.3850
    1MOL   C158  158   0.717   3.665   1.859 -0.7567 -0.8614 -0.2963
    1MOL   C159  159   0.683   3.718   1.999 -0.1198  0.3129 -0.0499
    1MOL   C160  160   0.811   3.732   1.779 -0.3768  0.0969  0.0568
    1MOL   C161  161   0.838   3.679   1.652  0.0494  0.0144  0.8960
    1MOL   C162  162   0.980   3.454   1.482 -0.2787 -0.4679  0.3706
    1MOL   H163  163   0.773   3.404   1.471 -2.4382  1.3945 -1.0253
    1MOL   H164  164   0.640   3.393   1.670  3.1657 -0.1175 -0.9083
    1MOL   H165  165   0.584   3.502   1.890  1.4225 -0.6251  0.7091
    1MOL   H166  166   0.698   3.642   2.076 -0.5279  0.6927  0.4153
    1MOL   H167  167   0.732   3.811   2.028 -2.8610  2.1576 -1.1144
    1MOL   H168  168   0.576   3.742   1.997 -0.1459  0.1514 -0.6867
    1MOL   H169  169   0.856   3.826   1.808  2.1208 -1.4295  1.3655
    1MOL   H170  170   0.901   3.741   1.590  0.6330  0.9850  2.4285
    1MOL   H171  171   1.038   3.546   1.481 -1.4023  0.2673 -2.4943
    1MOL   H172  172   1.002   3.410   1.384 -0.9821 -0.9588  0.4321
    1MOL   C173  173   1.032   3.351   1.582  0.2154 -0.2780  0.4074
    1MOL   C174  174   1.035   3.403   1.729 -0.1386  0.8417  0.1562
    1MOL   C175  175   0.965   3.334   1.831 -0.7992  1.0697  0.0512
    1MOL   C176  176   0.963   3.383   1.963 -0.6478 -0.3705 -0.3340
    1MOL   C177  177   1.020   3.505   1.987  0.7906 -0.3660 -0.2044
    1MOL   C178  178   1.005   3.564   2.128  0.3730  0.1535  0.0685
    1MOL   C179  179   1.068   3.588   1.884  0.2582  0.3946 -0.1300
    1MOL   C180  180   1.092   3.528   1.763 -0.0952 -0.6497 -0.1934
    1MOL   C181  181   1.165   3.288   1.546 -0.5897  0.3198  0.6986
    1MOL   H182  182   0.953   3.277   1.592  0.4916 -0.5007  0.9480
    1MOL   H183  183   0.929   3.234   1.811 -1.4922  1.2327  0.4476
    1MOL   H184  184   0.928   3.323   2.045  0.6069  1.5916  1.7090
    1MOL   H185  185   0.920   3.526   2.185 -2.0273  0.1380 -3.3831
    1MOL   H186  186   1.099   3.573   2.183  0.5539  1.8366 -0.4825
    1MOL   H187  187   0.991   3.672   2.129 -2.8513 -0.1844  2.6126
    1MOL   H188  188   1.082   3.694   1.898  0.7575  0.2278  0.6658
    1MOL   H189  189   1.138   3.584   1.683 -2.3544 -0.8214 -1.6628
    1MOL   H190  190   1.250   3.356   1.537  2.0550 -3.1749 -2.7087
    1MOL   H191  191   1.154   3.245   1.446 -1.4555 -1.6948  1.6366
    1MOL   C192  192   1.221   3.176   1.630  0.1061  0.1608  0.1095
    1MOL   C193  193   1.355   3.128   1.575  0.3378 -0.4609 -0.1377
    1MOL   C194  194   1.377   3.066   1.447 -0.6434 -0.2638  0.0818
    1MOL   C195  195   1.507   3.038   1.397 -0.5338 -0.4266 -0.8380
    1MOL   C196  196   1.623   3.069   1.472 -0.2709  0.3436 -0.5416
    1MOL   C197  197   1.767   3.040   1.424 -0.0016 -0.6530  0.1872
    1MOL   C198  198   1.601   3.125   1.597 -0.0707 -0.2268  0.2889
    1MOL   C199  199   1.474   3.157   1.643  0.4505  0.1618  0.0572
    1MOL   C200  200   1.129   3.048   1.660 -0.1491 -1.1497 -0.1866
    1MOL   H201  201   1.241   3.225   1.726  1.4952  1.8545 -1.0163
    1MOL   H202  202   1.292   3.050   1.382 -0.2941  0.4873 -0.5653
    1MOL   H203  203   1.513   2.993   1.299  1.1405 -2.3878  0.1312
    1MOL   H204  204   1.764   2.978   1.335 -2.6912  0.3384 -0.4736
    1MOL   H205  205   1.817   3.133   1.396 -1.0923 -0.0985  0.0325
    1MOL   H206  206   1.814   2.986   1.506  0.4998 -1.4194 -0.6035
    1MOL   H207  207   1.686   3.167   1.650  0.3647  1.1870 -1.5012
    1MOL   H208  208   1.466   3.197   1.743 -1.0340  0.2081 -0.0632
    1MOL   H209  209   1.169   2.959   1.612 -0.2161 -2.0751  1.4074
    1MOL   H210  210   1.035   3.071   1.610  0.4107  0.7082 -0.4131
    1MOL   C211  211   1.126   3.001   1.807  0.8058 -0.2208 -0.6566
    1MOL   C212  212   1.259   2.946   1.851  0.1329 -0.7857 -0.6444
    1MOL   C213  213   1.313   2.828   1.789 -1.0355  0.5076 -0.0013
    1MOL   C214  214   1.430   2.774   1.842 -0.5054 -0.0796 -0.7976
    1MOL   C215  215   1.491   2.838   1.948  0.3128 -0.4763 -0.2917
    1MOL   C216  216   1.617   2.778   2.002  0.0339 -0.2014 -0.9052
    1MOL   C217  217   1.435   2.945   2.009 -0.9743  0.4356  0.3304
    1MOL   C218  218   1.317   3.004   1.965 -0.0150  0.7697 -0.7239
    1MOL   C219  219   1.012   2.911   1.838  0.3301  0.1209 -0.3693
    1MOL   H220  220   1.116   3.090   1.869 -2.6133 -2.4098  2.1129
    1MOL   H221  221   1.271   2.780   1.702  2.1481  0.5362 -1.6578
    1MOL   H222  222   1.469   2.685   1.794  1.9787  0.9054 -0.6875
    1MOL   H223  223   1.675   2.842   2.069  0.7556 -0.8963 -0.8566
    1MOL   H224  224   1.592   2.685   2.052  1.6076 -0.8251 -1.2523
    1MOL   H225  225   1.687   2.765   1.919 -0.9032  0.7514 -1.8547
    1MOL   H226  226   1.490   2.990   2.090 -0.2466  0.5735 -0.2424
    1MOL   H227  227   1.261   3.074   2.025  0.6274  0.7534 -0.0926
    1MOL   H228  228   1.028   2.808   1.807  4.0065 -0.6444  3.6693
    1MOL   H229  229   0.923   2.947   1.785 -0.6592 -0.1466  1.0851
    1MOL   C230  230   0.972   2.902   1.990 -0.4818  0.1384 -0.1682
    1MOL   C231  231   0.974   2.757   2.029 -0.1628  1.1834  0.0999
    1MOL   C232  232   1.079   2.715   2.110 -0.7656  0.0573  0.4425
    1MOL   C233  233   1.070   2.588   2.169  0.0177  0.2465 -0.2181
    1MOL   C234  234   0.966   2.501   2.134 -0.4102  0.0353 -0.5094
    1MOL   C235  235   0.970   2.357   2.188  0.0654  0.0862  0.7274
    1MOL   C236  236   0.862   2.541   2.051 -0.0188 -0.0583 -0.5871
    1MOL   C237  237   0.863   2.673   1.996  0.2647  0.0527 -0.5165
    1MOL   C238  238   0.844   2.977   2.037 -0.1244 -0.3849  0.2082
    1MOL   H239  239   1.052   2.952   2.044  1.8561 -1.6314 -1.8715
    1MOL   H240  240   1.161   2.782   2.131 -1.4597  0.6684  1.2646
    1MOL   H241  241   1.157   2.549   2.220 -0.0554 -0.7407 -0.8405
    1MOL   H242  242   0.868   2.326   2.212  0.0529 -2.1609 -1.9270
    1MOL   H243  243   0.998   2.294   2.105  1.8639  2.3065 -0.3951
    1MOL   H244  244   1.029   2.343   2.279  1.0570  1.2367  0.2679
    1MOL   H245  245   0.789   2.474   2.010  1.0353 -0.9200 -1.0752
    1MOL   H246  246   0.781   2.715   1.938 -1.1478  0.0899  1.4424
    1MOL   H247  247   0.755   2.923   2.004 -0.8969  0.3271  1.1005
    1MOL   H248  248   0.838   3.059   1.966 -0.6599 -0.4990  0.1235
    1MOL   C249  249   0.824   3.030   2.181  0.1223  0.4980 -0.7227
    1MOL   C250  250   0.942   3.012   2.277  0.3536 -0.3037  0.0700
    1MOL   C251  251   1.029   3.122   2.311  0.3418 -0.9195  0.1131
    1MOL   C252  252   1.144   3.105   2.381 -0.6861  0.0348 -0.1829
    1MOL   C253  253   1.173   2.980   2.439 -0.1485 -0.2888 -0.0234
    1MOL   C254  254   1.300   2.957   2.518 -0.8415 -0.3132 -0.3326
    1MOL   C255  255   1.088   2.874   2.421  0.1645  0.2736 -0.1340
    1MOL   C256  256   0.978   2.887   2.332  0.7106  0.4952 -0.3725
    1MOL   C257  257   0.684   2.991   2.232  0.2118  0.1611 -0.1574
    1MOL   H258  258   0.819   3.138   2.179  0.9634  0.6073  1.2677
    1MOL   H259  259   0.998   3.218   2.271 -1.0747 -1.1281  0.6976
    1MOL   H260  260   1.205   3.191   2.401 -0.3125 -0.4078  0.6176
    1MOL   H261  261   1.322   3.024   2.600  0.1983  0.3722 -1.1474
    1MOL   H262  262   1.317   2.860   2.566 -3.0709 -0.2744  0.6068
    1MOL   H263  263   1.384   2.970   2.450 -0.5741  1.0963  0.2516
    1MOL   H264  264   1.100   2.783   2.477  0.7081 -0.8912 -2.0997
    1MOL   H265  265   0.905   2.808   2.340  0.9667  0.3548  0.6222
    1MOL   H266  266   0.690   2.988   2.340  0.0083  1.8162 -0.0944
    1MOL   H267  267   0.683   2.882   2.219  2.0240  0.1955 -0.8017
    1MOL   C268  268   0.557   3.069   2.175  0.2805  0.8440 -0.3499
    1MOL   C269  269   0.554   3.218   2.219  0.0566 -0.4989 -0.0250
    1MOL   C270  270   0.567   3.257   2.356  0.4921  0.5909  0.2921
    1MOL   C271  271   0.541   3.389   2.402 -0.6855  0.3303  0.2274
    1MOL   C272  272   0.489   3.479   2.309  1.0184  0.5370  0.1412
    1MOL   C273  273   0.441   3.616   2.358  0.2369 -0.0016 -0.3451
    1MOL   C274  274   0.478   3.448   2.172  0.4816 -0.3973 -0.2497
    1MOL   C275  275   0.510   3.318   2.128 -0.6674 -0.2895 -0.4814
    1MOL   C276  276   0.422   3.005   2.229  0.3401  0.4399  0.4466
    1MOL   H277  277   0.566   3.064   2.067  1.0920  1.2677 -0.3052
    1MOL   H278  278   0.582   3.184   2.434  0.7003  1.7259  1.3447
    1MOL   H279  279   0.538   3.411   2.507 -1.7701  0.1725  0.2358
    1MOL   H280  280   0.349   3.621   2.415 -0.1063  3.0110 -1.0563
    1MOL   H281  281   0.530   3.654   2.409 -0.1939 -0.8554  1.0575
    1MOL   H282  282   0.430   3.692   2.280 -0.2275  0.0616 -0.2150
    1MOL   H283  283   0.435   3.516   2.100 -0.9510 -1.0247  0.0004
    1MOL   H284  284   0.513   3.299   2.022  1.4165 -0.5475 -0.4097
    1MOL   H285  285   0.433   3.029   2.335  2.5215  1.8939 -0.0566
    1MOL   H286  286   0.439   2.898   2.214  1.0703  0.4271  1.3292
    1MOL   C287  287   0.289   3.058   2.163 -0.1502 -0.0945 -0.1562
    1MOL   C288  288   0.168   2.980   2.224  0.1427  0.1824 -0.2258
    1MOL   C289  289   0.157   2.842   2.212 -0.2840 -0.5120 -0.4449
    1MOL   C290  290   0.064   2.771   2.284  0.0336  0.1585 -0.6870
    1MOL   C291  291   8.047   2.838   2.369 -0.6622  0.8655 -0.7889
    1MOL   C292  292   7.934   2.759   2.438 -0.9108 -0.1814  0.0275
    1MOL   C293  293   8.049   2.978   2.370 -0.0199 -0.5145  0.2889
    1MOL   C294  294   0.070   3.049   2.308 -0.1504  0.0726  0.7042
    1MOL   C295  295   0.287   3.060   2.010 -0.1500 -0.5530 -0.1965
    1MOL   H296  296   0.283   3.164   2.190 -0.5722 -0.4778  1.3111
    1MOL   H297  297   0.231   2.795   2.149 -0.0463  1.7309 -1.8852
    1MOL   H298  298   0.058   2.664   2.290 -2.2878  0.3115  0.2005
    1MOL   H299  299   7.890   2.823   2.514  0.2132  1.9636 -1.0746
    1MOL   H300  300   7.865   2.736   2.356 -0.9966  1.0751 -0.2558
    1MOL   H301  301   7.966   2.659   2.468 -0.9026 -0.1584  0.0945
    1MOL   H302  302   7.977   3.035   2.426 -0.4597  0.3894 -1.1575
    1MOL   H303  303   0.076   3.157   2.315 -0.0879  0.0304  1.3116
    1MOL   H304  304   0.279   2.958   1.974 -0.7329 -0.2391 -0.9719
    1MOL   H305  305   0.375   3.089   1.953  0.6853 -0.3211  1.1882
    1MOL   C306  306   0.165   3.135   1.954  0.7957 -0.4604 -0.3126
    1MOL   C307  307   0.135   3.089   1.816  0.6328 -0.0306  0.9472
    1MOL   C308  308   0.023   3.007   1.784  0.3411  0.1117  0.9410
    1MOL   C309  309   8.072   2.975   1.647 -0.5605  0.4857  0.4416
    1MOL   C310  310   0.083   3.018   1.551  0.0393 -0.4730 -0.0611
    1MOL   C311  311   0.059   3.000   1.396  0.4090  1.4185  0.6324
    1MOL   C312  312   0.197   3.088   1.581  0.3861  0.0701 -0.2308
    1MOL   C313  313   0.222   3.125   1.714  0.2885  0.3847 -0.6395
    1MOL   C314  314   0.188   3.290   1.967  0.3042 -0.8356 -0.0729
    1MOL   H315  315   0.081   3.110   2.018  0.3592 -0.0415 -0.7148
    1MOL   H316  316   8.038   2.980   1.866 -0.9524  1.6343  0.4444
    1MOL   H317  317   7.980   2.923   1.626 -0.2834 -1.2188  3.1706
    1MOL   H318  318   8.045   2.951   1.373  1.2442 -0.2851  0.7729
    1MOL   H319  319   0.058   3.091   1.337  2.7242  1.1257  0.0933
    1MOL   H320  320   0.144   2.945   1.355  0.2799  2.4262 -1.0076
    1MOL   H321  321   0.268   3.115   1.504 -2.1083  2.3174 -1.8449
    1MOL   H322  322   0.309   3.186   1.735  1.2244 -0.4301 -2.0952
    1MOL   H323  323   0.280   3.309   1.912  0.2005  2.7183  0.8796
    1MOL   H324  324   0.216   3.330   2.064  0.0347 -1.4608  0.2678
    1MOL   C325  325   0.073   3.381   1.903 -0.3565 -0.0551  0.2468
    1MOL   C326  326   0.131   3.503   1.841  0.2724 -0.2115  0.3083
    1MOL   C327  327   0.146   3.504   1.701 -0.0079 -0.5817 -0.4065
    1MOL   C328  328   0.216   3.610   1.635 -0.6778 -0.3451  0.5206
    1MOL   C329  329   0.257   3.724   1.710  0.3514  0.1534 -0.2011
    1MOL   C330  330   0.325   3.837   1.634 -0.4567  0.4787 -0.8126
    1MOL   C331  331   0.251   3.721   1.856  0.6647 -0.5098 -0.8678
    1MOL   C332  332   0.193   3.603   1.917 -0.1893 -0.3548 -0.1829
    1MOL   C333  333   8.027   3.407   1.997 -0.3618 -0.2398 -0.6067
    1MOL   H334  334   0.040   3.321   1.818 -0.5293  1.6063 -0.8719
    1MOL   H335  335   0.117   3.416   1.645 -0.3130  0.1820 -1.4856
    1MOL   H336  336   0.243   3.609   1.531  1.3015 -0.5758  1.0149
    1MOL   H337  337   0.305   3.863   1.529 -1.4375  3.3613  0.0404
    1MOL   H338  338   0.313   3.932   1.686  1.6872  0.6816 -0.6279
    1MOL   H339  339   0.433   3.822   1.642 -0.6481  0.5429  2.0687
    1MOL   H340  340   0.293   3.795   1.922  0.8374 -1.2869 -0.0814
    1MOL   H341  341   0.190   3.592   2.024  0.3856 -0.3492 -0.1635
    1MOL   H342  342   8.041   3.486   2.070 -3.0655 -0.6573  0.3951
    1MOL   H343  343   8.008   3.318   2.058  0.2050  0.1173  0.1007
    1MOL   C344  344   7.908   3.437   1.909  0.8543  0.0586 -0.2008
    1MOL   C345  345   7.818   3.542   1.976  0.3915 -0.2695  0.4204
    1MOL   C346  346   7.777   3.523   2.107 -0.2347 -0.2116 -0.5261
    1MOL   C347  347   7.691   3.618   2.175  0.3588  0.9439  0.3057
    1MOL   C348  348   7.641   3.731   2.107 -0.0250 -0.5425 -0.2004
    1MOL   C349  349   7.559   3.832   2.180 -0.0211  0.1988  0.2136
    1MOL   C350  350   7.686   3.751   1.975 -0.1471  0.4684 -0.6893
    1MOL   C351  351   7.779   3.662   1.911  0.5958  0.2115 -0.1384
    1MOL   C352  352   7.839   3.319   1.840  0.4175  0.0577 -0.2894
    1MOL   H353  353   7.953   3.501   1.833  1.5502  1.5661  1.4357
    1MOL   H354  354   7.794   3.429   2.158  1.7795  0.3614 -0.1195
    1MOL   H355  355   7.658   3.605   2.277 -1.3533  4.1717  0.2234
    1MOL   H356  356   7.555   3.811   2.287 -1.3304 -0.8422 -0.0314
    1MOL   H357  357   7.582   3.938   2.166 -0.9332  0.2951 -0.6153
    1MOL   H358  358   7.455   3.813   2.154 -0.4576 -0.2253  2.2130
    1MOL   H359  359   7.652   3.838   1.920 -1.4118  0.2191 -0.3272
    1MOL   H360  360   7.821   3.687   1.815 -1.5653 -0.1681 -1.2113
    1MOL   H361  361   7.741   3.302   1.884  0.1506  1.1542 -0.4288
    1MOL   H362  362   7.902   3.231   1.848  0.3164 -0.1912 -1.9168
    1MOL   C363  363   7.819   3.328   1.686 -0.1272 -0.1796  0.7004
    1MOL   C364  364   7.752   3.458   1.646 -0.1586  0.2370 -0.4288
    1MOL   C365  365   7.826   3.550   1.572 -0.2194 -0.0479  0.1524
    1MOL   C366  366   7.769   3.664   1.516  0.8995 -1.0803 -0.0638
    1MOL   C367  367   7.634   3.689   1.535 -0.2008 -0.2010 -0.0180
    1MOL   C368  368   7.573   3.816   1.473  0.1555  1.1000 -0.7785
    1MOL   C369  369   7.559   3.601   1.611  0.1225  0.9649 -0.0180
    1MOL   C370  370   7.615   3.484   1.660  0.3927  0.2606  0.5719
    1MOL   C371  371   7.753   3.205   1.625 -0.2289 -0.4443 -0.2470
    1MOL   H372  372   7.917   3.328   1.639 -0.4460 -1.8694 -0.0046
    1MOL   H373  373   7.934   3.543   1.567 -0.3253 -1.2276 -0.7594
    1MOL   H374  374   7.827   3.743   1.470  0.4417 -0.5337  0.3014
    1MOL   H375  375   7.621   3.831   1.376  2.3491  0.9566  0.2574
    1MOL   H376  376   7.466   3.808   1.455  0.1727 -1.4733  0.0244
    1MOL   H377  377   7.591   3.910   1.526  0.5747 -0.4315  1.8536
    1MOL   H378  378   7.453   3.611   1.631  0.1553  1.7761 -0.2680
    1MOL   H379  379   7.559   3.417   1.723  2.4251  0.0290  2.1773
    1MOL   H380  380   7.735   3.227   1.520 -0.3737  1.8785  0.2239
    1MOL   H381  381   7.655   3.193   1.671 -0.7939  0.5780 -1.1642
    1MOL   H382  382   7.812   3.114   1.639  0.0233  0.2786  4.3291
    2MOL     C1  383   8.061   3.400   6.409 -0.0398 -0.1742  0.6142
    2MOL     C2  384   0.096   3.494   6.433  0.2759  0.2420  0.1774
    2MOL     C3  385   0.208   3.492   6.344  0.6881  0.7852  0.3298
    2MOL     C4  386   0.299   3.606   6.349 -0.2064  0.0304  0.7595
    2MOL     C5  387   0.287   3.707   6.449  0.3592 -0.0072  0.7746
    2MOL     C6  388   0.384   3.821   6.469 -0.3597  0.1195  0.3465
    2MOL     C7  389   0.184   3.689   6.547 -0.5056  0.0175 -0.3952
    2MOL     C8  390   0.084   3.590   6.533  0.4223 -0.3018 -0.1462
    2MOL     C9  391   7.978   3.446   6.290  1.0108 -0.0827  0.1255
    2MOL    H10  392   0.037   3.307   6.392  3.1367  1.6973  0.3675
    2MOL    H11  393   0.217   3.424   6.261 -1.9075  2.7035 -1.5886
    2MOL    H12  394   0.388   3.602   6.288  1.1057  1.8703  2.4903
    2MOL    H13  395   0.483   3.792   6.506 -1.1899 -1.9844  1.0112
    2MOL    H14  396   0.385   3.874   6.374 -0.7254  0.1624  0.3680
    2MOL    H15  397   0.340   3.891   6.540 -1.6008 -0.6529  0.3485
    2MOL    H16  398   0.177   3.761   6.628 -3.3713 -2.3826  1.5963
    2MOL    H17  399   8.076   3.596   6.596 -0.4662 -1.8995 -1.1954
    2MOL    H18  400   7.943   3.367   6.224 -0.2312  0.9376 -0.4522
    2MOL    H19  401   8.044   3.507   6.228 -0.5361  0.0831 -1.3822
    2MOL    H20  402   8.015   3.378   6.505  0.5058 -0.5095  0.8061
    2MOL    C21  403   7.852   3.520   6.324 -0.3107 -0.5381  0.5672
    2MOL    C22  404   7.744   3.427   6.378 -0.0597  0.5075  0.0154
    2MOL    C23  405   7.710   3.436   6.512 -0.0398 -0.3653  1.0812
    2MOL    C24  406   7.608   3.355   6.567 -0.3834 -0.8976 -0.3306
    2MOL    C25  407   7.557   3.251   6.486  0.6237  0.0487  0.0171
    2MOL    C26  408   7.474   3.134   6.550  0.5238 -0.0058  0.3946
    2MOL    C27  409   7.585   3.242   6.346  0.6761  0.4957  0.2552
    2MOL    C28  410   7.674   3.333   6.291 -0.2137 -1.3771  0.1449
    2MOL    C29  411   7.798   3.600   6.205 -0.5872  0.6342  0.7640
    2MOL    H30  412   7.877   3.595   6.399  1.3748 -0.1548 -0.3458
    2MOL    H31  413   7.756   3.508   6.579 -0.9484  0.1908  1.1097
    2MOL    H32  414   7.588   3.354   6.673 -2.9366  0.8205 -0.7707
    2MOL    H33  415   7.495   3.057   6.476  2.1260  0.4744  0.3268
    2MOL    H34  416   7.513   3.115   6.650  1.2025 -0.2572  0.0836
    2MOL    H35  417   7.368   3.160   6.548  0.1552 -1.4981  0.3506
    2MOL    H36  418   7.526   3.171   6.289 -0.5252 -0.1563  2.2840
    2MOL    H37  419   7.715   3.315   6.192 -0.9284 -1.8666 -0.0669
    2MOL    H38  420   7.772   3.531   6.125 -1.4115 -0.3586  1.8624
    2MOL    H39  421   7.875   3.661   6.157 -0.0096 -1.1727 -0.6721
    2MOL    C40  422   7.674   3.689   6.237 -0.2965 -0.4855 -0.2472
    2MOL    C41  423   7.584   3.693   6.114  0.2274  0.1923  0.4486
    2MOL    C42  424   7.626   3.731   5.983  0.3264 -0.1430  0.2276
    2MOL    C43  425   7.534   3.733   5.875  0.0754 -0.2868 -0.1449
    2MOL    C44  426   7.401   3.693   5.891  0.2643 -0.8469  0.8556
    2MOL    C45  427   7.295   3.695   5.776  0.1074 -1.1775  0.4011
    2MOL    C46  428   7.361   3.656   6.025  0.1655  0.4465 -0.1310
    2MOL    C47  429   7.453   3.646   6.134  0.2483  0.2150  0.2247
    2MOL    C48  430   7.715   3.829   6.286 -0.2486  1.1422  0.2062
    2MOL    H49  431   7.616   3.639   6.314 -0.2621 -1.1370 -0.6443
    2MOL    H50  432   7.727   3.768   5.969  0.6785 -0.1233  2.4990
    2MOL    H51  433   7.563   3.769   5.777  1.3447 -0.2959  0.2216
    2MOL    H52  434   7.202   3.690   5.831 -0.2472 -0.7852 -0.1568
    2MOL    H53  435   7.292   3.790   5.724 -0.7685 -1.4592 -0.0621
    2MOL    H54  436   7.325   3.617   5.705  2.9155 -0.3492  0.6237
    2MOL    H55  437   7.258   3.627   6.036  0.7419 -2.7291 -2.3922
    2MOL    H56  438   7.412   3.624   6.231 -0.4112 -0.4837 -0.2100
    2MOL    H57  439   7.750   3.891   6.204  0.9891  1.0934  0.6852
    2MOL    H58  440   7.816   3.822   6.328  0.4515  1.1218 -1.4498
    2MOL    C59  441   7.631   3.893   6.394 -0.2575  0.2688 -0.8507
    2MOL    C60  442   7.637   3.825   6.529 -1.0478  0.3346  0.3690
    2MOL    C61  443   7.727   3.877   6.636  0.8570  0.6186 -0.1406
    2MOL    C62  444   7.734   3.818   6.764  0.5933 -0.6128  0.3498
    2MOL    C63  445   7.647   3.709   6.790 -0.1504  0.6775  0.2245
    2MOL    C64  446   7.678   3.638   6.923 -0.2574  0.1896 -0.3064
    2MOL    C65  447   7.551   3.662   6.698  0.2438 -0.1190  0.2028
    2MOL    C66  448   7.550   3.719   6.566 -0.0757  0.4535 -0.6632
    2MOL    C67  449   7.491   3.943   6.348 -0.7280  0.7493 -0.5979
    2MOL    H68  450   7.694   3.981   6.406  1.2354 -0.7483 -1.1369
    2MOL    H69  451   7.785   3.963   6.610 -0.8375  2.0458  0.6763
    2MOL    H70  452   7.804   3.862   6.833  1.1085  1.2455 -1.3027
    2MOL    H71  453   7.782   3.658   6.951 -0.5897  0.8749  0.4477
    2MOL    H72  454   7.632   3.677   7.014  0.3049 -0.9754  0.4795
    2MOL    H73  455   7.679   3.530   6.917  0.9958  0.1143  0.8879
    2MOL    H74  456   7.483   3.581   6.723  2.4922 -1.6118  1.6073
    2MOL    H75  457   7.482   3.678   6.494  1.8500 -1.3268 -1.5243
    2MOL    H76  458   7.437   3.853   6.320  0.8470 -1.2870  2.5912
    2MOL    H77  459   7.483   4.009   6.262 -2.4075  1.8111  0.3447
    2MOL    C78  460   7.397   4.014   6.445 -0.1805  0.0744  0.2160
    2MOL    C79  461   7.264   4.013   6.375  0.2903  0.0994  0.1834
    2MOL    C80  462   7.233   4.104   6.271 -0.2542  0.1975 -0.3949
    2MOL    C81  463   7.123   4.078   6.188 -0.6431 -0.1450  0.1867
    2MOL    C82  464   7.042   3.964   6.214  0.4861  0.7216  0.2312
    2MOL    C83  465   6.919   3.934   6.124 -0.3925 -0.1355 -0.7291
    2MOL    C84  466   7.070   3.875   6.321  0.1946  0.4383  0.0346
    2MOL    C85  467   7.180   3.900   6.404  0.8894  0.8109  0.5175
    2MOL    C86  468   7.444   4.152   6.489  0.4528  0.0851  0.2662
    2MOL    H87  469   7.377   3.949   6.530 -0.5230  0.1863  0.2217
    2MOL    H88  470   7.290   4.194   6.252  0.5398 -0.6464 -2.0893
    2MOL    H89  471   7.095   4.143   6.106 -1.3527  0.1387  0.6451
    2MOL    H90  472   6.820   3.935   6.170 -0.4792  0.8982 -0.9303
    2MOL    H91  473   6.903   4.001   6.040 -1.0126  1.5199  0.6855
    2MOL    H92  474   6.932   3.839   6.071 -1.9621 -1.1025  0.5617
    2MOL    H93  475   6.998   3.802   6.355 -0.9508  1.5016 -0.0786
    2MOL    H94  476   7.187   3.836   6.490  2.2955 -0.1285 -0.2779
    2MOL    H95  477   7.473   4.204   6.398 -2.5111  1.8647  0.2422
    2MOL    H96  478   7.542   4.149   6.535  0.3623  1.3220  0.5696
    2MOL    C97  479   7.345   4.231   6.569  0.5529  0.5091  0.6942
    2MOL    C98  480   7.359   4.382   6.551 -0.3269 -0.0667 -0.2708
    2MOL    C99  481   7.273   4.455   6.469 -0.6160  0.9020  0.7303
    2MOL   C100  482   7.293   4.590   6.448  0.5013 -0.0658  0.4112
    2MOL   C101  483   7.390   4.657   6.522 -0.2054  0.1334 -0.0100
    2MOL   C102  484   7.411   4.807   6.512  0.0726 -0.4742 -0.4029
    2MOL   C103  485   7.473   4.587   6.606  0.0138  0.6090  0.5927
    2MOL   C104  486   7.462   4.444   6.618 -0.2158  0.8423 -0.4539
    2MOL   C105  487   7.338   4.179   6.716 -0.0344 -0.5194  0.1358
    2MOL   H106  488   7.246   4.220   6.525  1.6810 -4.0140 -0.9962
    2MOL   H107  489   7.203   4.400   6.408  1.2512 -0.6653 -0.0522
    2MOL   H108  490   7.239   4.644   6.372 -0.5362 -0.7808  0.6317
    2MOL   H109  491   7.481   4.844   6.587 -0.4493  1.2963 -0.7782
    2MOL   H110  492   7.464   4.821   6.418 -0.7913  0.4375 -0.7543
    2MOL   H111  493   7.320   4.865   6.520  0.2425 -0.1366 -0.8970
    2MOL   H112  494   7.558   4.628   6.659  0.8172 -1.2240  0.7514
    2MOL   H113  495   7.542   4.398   6.675 -0.3112  0.6749 -0.4545
    2MOL   H114  496   7.437   4.210   6.750 -0.1045 -1.3440  1.1391
    2MOL   H115  497   7.342   4.071   6.731  0.1742 -0.7968 -1.8922
    2MOL   C116  498   7.231   4.251   6.810 -0.1542  0.0918 -0.2555
    2MOL   C117  499   7.292   4.305   6.933  1.1972 -0.0275 -0.1788
    2MOL   C118  500   7.335   4.441   6.942 -0.5857 -0.0901  0.1781
    2MOL   C119  501   7.390   4.496   7.061  0.0203  0.2310  0.0810
    2MOL   C120  502   7.381   4.419   7.179 -0.4904  0.3169 -0.1194
    2MOL   C121  503   7.443   4.485   7.300  0.2817  0.2551  0.5009
    2MOL   C122  504   7.331   4.289   7.174 -0.1332 -0.3812  0.2209
    2MOL   C123  505   7.291   4.232   7.055 -0.6249 -0.2339  0.0197
    2MOL   C124  506   7.107   4.159   6.833 -0.7514 -0.1694 -0.2823
    2MOL   H125  507   7.189   4.337   6.757  0.8586  0.8949  0.2302
    2MOL   H126  508   7.329   4.516   6.864  1.7840 -0.4259 -0.3632
    2MOL   H127  509   7.425   4.598   7.059  2.4151 -0.5875 -0.9627
    2MOL   H128  510   7.435   4.594   7.303  0.9258  0.3743 -1.3478
    2MOL   H129  511   7.389   4.446   7.386  1.5551 -0.9571  0.7607
    2MOL   H130  512   7.542   4.443   7.319  0.6490  0.7425 -0.2898
    2MOL   H131  513   7.325   4.240   7.271  2.0818 -0.0488  0.5436
    2MOL   H132  514   7.260   4.128   7.060  1.2886 -0.8240 -0.0671
    2MOL   H133  515   7.048   4.209   6.910  1.4345 -0.1345  1.4314
    2MOL   H134  516   7.134   4.060   6.870 -1.0474 -0.3741 -0.6085
    2MOL   C135  517   7.020   4.125   6.706  0.5581  0.0193  0.4448
    2MOL   C136  518   6.984   4.258   6.633 -0.5015  0.0512  0.2311
    2MOL   C137  519   6.945   4.381   6.707  0.3540  0.8991 -0.3796
    2MOL   C138  520   6.906   4.491   6.623 -0.1493 -0.4774 -0.5072
    2MOL   C139  521   6.908   4.485   6.482  0.0727 -0.4080 -0.0026
    2MOL   C140  522   6.882   4.614   6.408 -0.6459  0.5565 -0.3442
    2MOL   C141  523   6.917   4.359   6.419 -1.1138  0.4150  0.8014
    2MOL   C142  524   6.961   4.249   6.497  0.6821 -0.2649 -0.1130
    2MOL   C143  525   6.892   4.037   6.730 -0.2149 -0.4101 -0.0683
    2MOL   H144  526   7.080   4.062   6.640 -2.2216 -1.2817 -0.9312
    2MOL   H145  527   6.942   4.381   6.815  1.1311  1.0729 -0.3562
    2MOL   H146  528   6.885   4.588   6.666  1.9134 -1.0722  1.9537
    2MOL   H147  529   6.944   4.687   6.460 -0.4739  1.1122 -1.3076
    2MOL   H148  530   6.903   4.622   6.301 -0.0863 -0.6952 -0.3286
    2MOL   H149  531   6.777   4.642   6.409 -0.6704  0.4366  0.4144
    2MOL   H150  532   6.893   4.360   6.313  1.3402 -0.6857  0.2181
    2MOL   H151  533   6.978   4.158   6.442  2.9959  1.1007 -1.7164
    2MOL   H152  534   6.844   4.016   6.635 -1.1461 -1.2195  0.5682
    2MOL   H153  535   6.834   4.110   6.786  1.1112  0.5994  0.0189
    2MOL   C154  536   6.917   3.907   6.808  0.0377  0.9031  0.0167
    2MOL   C155  537   7.000   3.805   6.725  0.2756  0.9653  0.2114
    2MOL   C156  538   6.941   3.753   6.610  0.3818 -0.5317 -0.8752
    2MOL   C157  539   6.999   3.648   6.542 -0.7662 -0.2017 -0.2689
    2MOL   C158  540   7.119   3.596   6.584  0.2467  0.4830 -0.0287
    2MOL   C159  541   7.192   3.469   6.526  0.5083  0.2728  0.2974
    2MOL   C160  542   7.181   3.654   6.694 -0.0533 -0.9356  0.2591
    2MOL   C161  543   7.125   3.761   6.764 -0.5776  0.7047  0.0428
    2MOL   C162  544   6.779   3.843   6.834 -0.2517  0.1191 -0.0267
    2MOL   H163  545   6.962   3.938   6.902  0.1370  1.5913 -0.2570
    2MOL   H164  546   6.844   3.796   6.589 -0.2800 -2.9214 -2.8118
    2MOL   H165  547   6.949   3.610   6.454 -0.7599  1.7193 -1.1444
    2MOL   H166  548   7.149   3.439   6.431  0.3876  2.2139 -0.2729
    2MOL   H167  549   7.296   3.488   6.500  0.3069 -1.0929 -1.5778
    2MOL   H168  550   7.189   3.388   6.599  0.1766  1.2904  1.4390
    2MOL   H169  551   7.274   3.611   6.726  0.1753  0.1918  1.1455
    2MOL   H170  552   7.182   3.798   6.848  0.7795  2.1029 -1.4613
    2MOL   H171  553   6.791   3.736   6.850  0.7643  0.6617  3.2652
    2MOL   H172  554   6.705   3.861   6.756  1.3343  0.3634 -1.5254
    2MOL   C173  555   6.725   3.892   6.969 -0.2531  0.1486  0.1119
    2MOL   C174  556   6.809   3.839   7.093 -0.2111  0.1859 -1.0077
    2MOL   C175  557   6.887   3.934   7.172  0.3538  0.0813  0.4196
    2MOL   C176  558   6.946   3.880   7.294  0.2329 -0.6276 -0.3160
    2MOL   C177  559   6.935   3.744   7.314  0.0524  0.3302 -0.3282
    2MOL   C178  560   7.006   3.687   7.431 -0.3645 -0.6312 -0.2315
    2MOL   C179  561   6.874   3.648   7.226  0.2621  0.6906 -0.9217
    2MOL   C180  562   6.801   3.701   7.120  0.5754  0.0269  0.5009
    2MOL   C181  563   6.574   3.864   6.987 -0.2352  0.6853  0.8578
    2MOL   H182  564   6.734   4.000   6.954  2.6864 -0.0799  0.0270
    2MOL   H183  565   6.885   4.038   7.144 -0.4620 -0.4395 -1.5442
    2MOL   H184  566   6.996   3.942   7.367  0.7283 -1.8103  0.3574
    2MOL   H185  567   7.080   3.617   7.393 -0.0370 -0.4655  0.1037
    2MOL   H186  568   7.052   3.759   7.499 -2.5233  0.4773  0.1129
    2MOL   H187  569   6.937   3.624   7.487 -1.0633  0.5899  0.3153
    2MOL   H188  570   6.874   3.543   7.249  0.9529  0.7247 -0.7629
    2MOL   H189  571   6.750   3.637   7.051  1.7520 -0.6969  0.3017
    2MOL   H190  572   6.553   3.893   7.090  2.2930 -0.4874  1.7291
    2MOL   H191  573   6.554   3.758   6.974 -0.7995  0.8681  0.1253
    2MOL   C192  574   6.481   3.939   6.880  0.4354 -0.3945  0.3071
    2MOL   C193  575   6.505   4.087   6.888  0.3811 -0.3070 -0.6990
    2MOL   C194  576   6.493   4.162   7.006  0.4270  0.0856  0.0505
    2MOL   C195  577   6.516   4.297   7.001 -0.0388  0.2568  0.1929
    2MOL   C196  578   6.565   4.363   6.887 -0.1485 -0.3578 -0.5005
    2MOL   C197  579   6.593   4.511   6.885 -0.0696  0.4376 -0.3731
    2MOL   C198  580   6.582   4.287   6.770  0.5884 -0.0980 -0.6887
    2MOL   C199  581   6.544   4.151   6.768  0.5499  0.4161 -0.3238
    2MOL   C200  582   6.327   3.911   6.909 -0.0214 -0.0323  0.0053
    2MOL   H201  583   6.500   3.910   6.777 -0.2861  0.5011 -0.0847
    2MOL   H202  584   6.458   4.112   7.095 -1.2056  0.8403 -0.1518
    2MOL   H203  585   6.500   4.361   7.087  0.5055 -0.1420  0.5941
    2MOL   H204  586   6.680   4.521   6.821  2.6509 -0.4946  2.9947
    2MOL   H205  587   6.524   4.575   6.831  0.2086  0.5129 -0.6388
    2MOL   H206  588   6.618   4.549   6.984 -1.2061  1.8468 -0.6113
    2MOL   H207  589   6.624   4.333   6.682  1.7575 -0.0159 -0.0960
    2MOL   H208  590   6.564   4.103   6.673 -1.7012 -2.6416  0.6559
    2MOL   H209  591   6.295   3.973   6.992  3.5602  0.2425  1.2269
    2MOL   H210  592   6.317   3.809   6.946 -0.9806 -0.2229 -0.7491
    2MOL   C211  593   6.229   3.921   6.789 -0.4946  0.0809 -0.2624
    2MOL   C212  594   6.082   3.952   6.828 -0.0297 -0.2504 -0.4707
    2MOL   C213  595   5.995   3.848   6.873  0.6835 -0.4724 -0.0205
    2MOL   C214  596   5.859   3.876   6.886 -0.3770 -0.7034 -0.6416
    2MOL   C215  597   5.810   4.008   6.849  0.7043 -0.4633 -0.0280
    2MOL   C216  598   5.668   4.039   6.879 -0.4111 -0.2503 -0.0623
    2MOL   C217  599   5.898   4.108   6.811 -0.4508  0.3467 -0.2311
    2MOL   C218  600   6.034   4.080   6.807  0.2141 -0.6573 -0.1667
    2MOL   C219  601   6.230   3.795   6.693 -0.4317 -0.1214 -0.5983
    2MOL   H220  602   6.259   4.012   6.736  0.1575  0.2282  0.3587
    2MOL   H221  603   6.035   3.753   6.907 -0.0648 -0.7106  0.2006
    2MOL   H222  604   5.795   3.794   6.918 -0.3308 -1.2853 -1.9973
    2MOL   H223  605   5.647   4.138   6.837  0.1632 -0.3303 -0.5506
    2MOL   H224  606   5.614   3.957   6.830 -1.1015  0.4831 -0.5541
    2MOL   H225  607   5.654   4.029   6.986  2.0605  1.0537  0.4230
    2MOL   H226  608   5.861   4.208   6.794  0.6983  0.7400 -0.4806
    2MOL   H227  609   6.106   4.154   6.775  1.0317 -0.8524  1.2067
    2MOL   H228  610   6.162   3.816   6.610  0.1833  0.1272 -1.0507
    2MOL   H229  611   6.194   3.713   6.755 -2.4790  1.5541  0.5016
    2MOL   C230  612   6.352   3.750   6.615  0.2862 -0.1837  0.5664
    2MOL   C231  613   6.431   3.867   6.548 -0.4610  0.5187  1.1122
    2MOL   C232  614   6.569   3.861   6.533  0.3820  0.3447 -0.0027
    2MOL   C233  615   6.644   3.960   6.460 -0.3193  0.0082 -0.0501
    2MOL   C234  616   6.570   4.072   6.411  0.1923  0.1233 -0.1037
    2MOL   C235  617   6.639   4.185   6.335  0.2402  0.3085  0.4906
    2MOL   C236  618   6.433   4.088   6.443 -0.4023  0.5517 -0.0828
    2MOL   C237  619   6.358   3.982   6.496 -0.3616  0.4767  0.0221
    2MOL   C238  620   6.326   3.637   6.521  0.3770  0.5944  0.4296
    2MOL   H239  621   6.423   3.714   6.688 -0.5080 -0.9399  0.9734
    2MOL   H240  622   6.620   3.775   6.576  1.6818  0.4541 -1.2735
    2MOL   H241  623   6.751   3.964   6.453 -0.4485  1.2745 -1.5420
    2MOL   H242  624   6.742   4.161   6.306  0.6812 -0.3699  2.5346
    2MOL   H243  625   6.586   4.207   6.242 -0.1806 -1.2900  0.3330
    2MOL   H244  626   6.628   4.269   6.403  0.6094  0.9141 -0.1966
    2MOL   H245  627   6.391   4.182   6.408 -1.1614  0.8311  1.5305
    2MOL   H246  628   6.250   3.990   6.504 -0.2377  2.9367 -0.4154
    2MOL   H247  629   6.285   3.681   6.430  0.9009 -1.2684 -0.7375
    2MOL   H248  630   6.243   3.578   6.561  2.0322 -1.1743  1.3027
    2MOL   C249  631   6.443   3.542   6.488  0.1185 -0.0986 -0.1064
    2MOL   C250  632   6.524   3.570   6.357 -0.9044  0.0137 -0.3594
    2MOL   C251  633   6.458   3.580   6.237 -0.1355 -0.5867  0.5915
    2MOL   C252  634   6.531   3.604   6.118  0.4210  0.2274 -0.2915
    2MOL   C253  635   6.671   3.603   6.110 -0.3386  0.3330  0.2555
    2MOL   C254  636   6.751   3.621   5.977 -0.2933  0.1106 -0.4300
    2MOL   C255  637   6.740   3.599   6.235  0.1372 -0.2692  0.0166
    2MOL   C256  638   6.664   3.587   6.360  0.3754 -0.1412 -0.1360
    2MOL   C257  639   6.410   3.392   6.501 -0.8766 -0.5263  0.3252
    2MOL   H258  640   6.511   3.572   6.568  2.2856  0.4443 -2.0927
    2MOL   H259  641   6.351   3.567   6.232  0.0150 -1.3362 -0.8783
    2MOL   H260  642   6.486   3.597   6.020 -0.9952 -1.8392  0.4890
    2MOL   H261  643   6.718   3.536   5.917 -0.8994  0.8415 -1.1579
    2MOL   H262  644   6.705   3.703   5.920  0.4994  0.8616 -0.0039
    2MOL   H263  645   6.858   3.639   5.974 -0.1553 -0.7140 -0.3010
    2MOL   H264  646   6.845   3.607   6.255 -0.0731  0.4204  0.8750
    2MOL   H265  647   6.714   3.581   6.456 -0.4282  2.1187  0.4598
    2MOL   H266  648   6.477   3.335   6.436  1.2755  2.3580 -0.0678
    2MOL   H267  649   6.313   3.375   6.455 -2.0259  2.6235  1.4730
    2MOL   C268  650   6.425   3.328   6.636 -0.4499 -0.4228 -0.0425
    2MOL   C269  651   6.554   3.366   6.708  0.2042 -0.1069 -0.4853
    2MOL   C270  652   6.674   3.351   6.636 -0.7913  0.2457 -0.6968
    2MOL   C271  653   6.801   3.363   6.708 -0.4174  0.6960  0.3220
    2MOL   C272  654   6.804   3.384   6.843  1.0481  0.0253 -0.2346
    2MOL   C273  655   6.929   3.396   6.929  0.2586 -0.8983 -0.2528
    2MOL   C274  656   6.678   3.385   6.911  0.1449 -0.1092 -0.4358
    2MOL   C275  657   6.555   3.381   6.849 -0.3522 -0.4966  0.4283
    2MOL   C276  658   6.383   3.180   6.645  0.1122  0.0602  0.3869
    2MOL   H277  659   6.357   3.384   6.701 -1.0970 -1.3081  0.0371
    2MOL   H278  660   6.676   3.326   6.531  0.5942  1.1978 -0.9167
    2MOL   H279  661   6.897   3.356   6.658 -0.4123  1.1691  0.2685
    2MOL   H280  662   6.979   3.491   6.910 -1.7264 -0.3282 -2.8269
    2MOL   H281  663   6.914   3.376   7.035 -0.3036 -0.5971 -0.2763
    2MOL   H282  664   7.004   3.321   6.902  1.3134  0.0828 -0.0809
    2MOL   H283  665   6.679   3.410   7.017  1.3173 -0.2708 -0.4014
    2MOL   H284  666   6.467   3.378   6.911  0.1020  1.5424  1.2125
    2MOL   H285  667   6.444   3.133   6.721  0.7030 -0.6657 -0.5238
    2MOL   H286  668   6.416   3.127   6.556  1.1826  0.1317  0.7381
    2MOL   C287  669   6.229   3.153   6.673  0.2259 -0.6076  0.5976
    2MOL   C288  670   6.196   3.183   6.823  0.2755 -1.0479  0.3047
    2MOL   C289  671   6.075   3.255   6.851 -0.3710 -0.1057  0.1216
    2MOL   C290  672   6.038   3.269   6.988  0.0341 -0.2363 -0.2927
    2MOL   C291  673   6.115   3.219   7.092 -0.0367 -0.1150 -0.1224
    2MOL   C292  674   6.092   3.254   7.239  0.4720 -0.5720  0.2878
    2MOL   C293  675   6.236   3.152   7.062  0.2460  0.3872 -0.2174
    2MOL   C294  676   6.273   3.135   6.928  0.9999  0.5771  0.1506
    2MOL   C295  677   6.191   3.004   6.641  0.6954  0.3965 -0.5898
    2MOL   H296  678   6.168   3.219   6.611 -0.7586 -2.7365 -0.7671
    2MOL   H297  679   6.011   3.280   6.768  0.0141  0.0639 -0.1240
    2MOL   H298  680   5.951   3.331   7.006  0.9025  0.4226  1.8178
    2MOL   H299  681   6.034   3.170   7.278 -0.7715 -0.1762 -0.6922
    2MOL   H300  682   6.180   3.258   7.304  0.7130 -1.1827  0.0122
    2MOL   H301  683   6.032   3.344   7.243 -0.0877 -0.7457 -2.7894
    2MOL   H302  684   6.312   3.118   7.131  1.1850 -1.1450 -1.9604
    2MOL   H303  685   6.354   3.068   6.903 -1.0923 -1.5459 -1.0960
    2MOL   H304  686   6.253   2.933   6.697 -1.5145  2.1895  4.3911
    2MOL   H305  687   6.216   2.978   6.538 -0.2852  0.2865 -0.7983
    2MOL   C306  688   6.043   2.967   6.664  0.1182 -0.3471  0.0083
    2MOL   C307  689   6.024   2.815   6.692  0.0491  1.1998  0.6590
    2MOL   C308  690   5.994   2.767   6.820  0.0633  0.0899 -0.0762
    2MOL   C309  691   5.972   2.629   6.843  0.4755 -0.1739  0.1114
    2MOL   C310  692   5.995   2.539   6.736 -0.3647  0.0620  0.5659
    2MOL   C311  693   5.966   2.394   6.751  0.2358 -0.2387 -0.2038
    2MOL   C312  694   6.039   2.584   6.610 -0.4707 -0.2510 -0.4665
    2MOL   C313  695   6.050   2.724   6.584  0.4496 -0.2564  0.0410
    2MOL   C314  696   5.951   3.025   6.546  0.7124 -0.2929 -0.0493
    2MOL   H315  697   6.013   3.018   6.756  1.1244 -1.9353  1.2448
    2MOL   H316  698   5.990   2.835   6.905 -0.6673 -0.0737  0.0286
    2MOL   H317  699   5.940   2.588   6.937  1.3080 -1.1484 -0.0197
    2MOL   H318  700   6.037   2.339   6.813  2.0289  1.3241 -0.8119
    2MOL   H319  701   5.866   2.373   6.788  0.0530 -0.4249 -0.7923
    2MOL   H320  702   5.964   2.360   6.647 -0.3798 -1.4707  0.1993
    2MOL   H321  703   6.073   2.509   6.540  1.1585 -0.7624  0.8214
    2MOL   H322  704   6.076   2.757   6.485 -2.2568 -2.1930 -1.4080
    2MOL   H323  705   5.986   2.986   6.451 -2.7671  0.0348 -1.5723
    2MOL   H324  706   5.967   3.131   6.528 -1.9504  0.2945  0.7617
    2MOL   C325  707   5.800   2.987   6.553 -0.1677 -0.3762  0.0629
    2MOL   C326  708   5.722   3.000   6.420 -0.0396 -0.1158  0.0809
    2MOL   C327  709   5.710   3.126   6.357  0.2163 -0.2267 -0.0009
    2MOL   C328  710   5.632   3.136   6.236  0.3595 -0.2916 -0.0795
    2MOL   C329  711   5.562   3.023   6.186 -0.1077  0.4871  0.2645
    2MOL   C330  712   5.470   3.029   6.071 -0.2271  0.8161 -0.9699
    2MOL   C331  713   5.580   2.898   6.250 -0.6703  0.3815 -0.6018
    2MOL   C332  714   5.665   2.884   6.363  0.6223  0.4099  0.3958
    2MOL   C333  715   5.723   3.055   6.671 -0.2750 -0.1197 -0.0355
    2MOL   H334  716   5.810   2.881   6.575  0.6502 -0.3719 -0.2911
    2MOL   H335  717   5.762   3.210   6.401  2.4679 -1.7993  0.3594
    2MOL   H336  718   5.624   3.234   6.190 -0.2381 -0.9401 -1.3917
    2MOL   H337  719   5.493   2.944   6.007  1.5771  1.0080 -0.6032
    2MOL   H338  720   5.365   3.027   6.100 -0.3608  1.0365 -1.4331
    2MOL   H339  721   5.476   3.121   6.012 -1.9238  1.1629 -0.6359
    2MOL   H340  722   5.533   2.807   6.216  0.0703  1.2016 -3.9804
    2MOL   H341  723   5.668   2.792   6.419  1.8206  0.1344 -0.1172
    2MOL   H342  724   5.656   3.127   6.625 -0.3835 -1.1752 -1.5802
    2MOL   H343  725   5.790   3.123   6.723 -0.5850  0.1337  0.0333
    2MOL   C344  726   5.667   2.951   6.776  0.1547  0.2873 -0.7478
    2MOL   C345  727   5.560   2.854   6.721  0.3028 -0.5706 -0.4675
    2MOL   C346  728   5.436   2.902   6.688 -0.5333 -0.1526  0.4682
    2MOL   C347  729   5.344   2.816   6.631  0.0984  0.9268 -0.5439
    2MOL   C348  730   5.377   2.685   6.606  0.8989  0.8110  0.3901
    2MOL   C349  731   5.266   2.595   6.559  0.1361 -0.3568 -0.4177
    2MOL   C350  732   5.506   2.639   6.634  0.9055  0.0351  0.0439
    2MOL   C351  733   5.596   2.718   6.704 -0.1687  0.3051 -0.1517
    2MOL   C352  734   5.618   3.021   6.907  0.1376  0.5505 -0.4602
    2MOL   H353  735   5.749   2.888   6.810 -1.4249 -1.1743  0.4118
    2MOL   H354  736   5.430   3.010   6.697 -1.2855 -0.2840  1.5432
    2MOL   H355  737   5.248   2.848   6.594 -0.4296  0.6878  0.5889
    2MOL   H356  738   5.223   2.560   6.653 -0.8046 -3.1968 -1.8442
    2MOL   H357  739   5.183   2.642   6.506  1.0464  0.6610 -0.9448
    2MOL   H358  740   5.302   2.514   6.495 -2.1817 -1.2647 -0.6186
    2MOL   H359  741   5.522   2.532   6.630 -0.2769 -0.2615  2.2644
    2MOL   H360  742   5.697   2.687   6.727 -0.2255  0.0112 -0.3019
    2MOL   H361  743   5.538   3.082   6.865 -0.6683 -2.6330 -3.7059
    2MOL   H362  744   5.690   3.096   6.942  4.1167 -2.5242 -1.7260
    2MOL   C363  745   5.563   2.942   7.026  0.4168  0.1520 -0.1928
    2MOL   C364  746   5.483   3.031   7.121 -0.1583  0.4196  0.3805
    2MOL   C365  747   5.347   2.996   7.148 -0.2880 -0.4491  0.4512
    2MOL   C366  748   5.276   3.073   7.249 -0.4286  1.3402 -0.1794
    2MOL   C367  749   5.334   3.186   7.305  0.4003 -0.2698 -0.7758
    2MOL   C368  750   5.252   3.285   7.399 -0.1612  0.5774  0.3315
    2MOL   C369  751   5.465   3.223   7.263  0.0962 -0.0668  0.2402
    2MOL   C370  752   5.541   3.146   7.177 -0.3423  0.3157  0.4866
    2MOL   C371  753   5.686   2.873   7.094 -0.2472  0.4430  0.0139
    2MOL   H372  754   5.484   2.873   6.997  1.0438 -0.3461 -0.7161
    2MOL   H373  755   5.297   2.913   7.100  0.8600 -0.4787 -0.7321
    2MOL   H374  756   5.176   3.051   7.283  0.0981  2.1783  1.9913
    2MOL   H375  757   5.156   3.307   7.353 -0.2111  1.6159  0.9207
    2MOL   H376  758   5.224   3.250   7.499  0.2579  2.7631  1.2477
    2MOL   H377  759   5.295   3.385   7.405 -0.9753  0.9892 -0.6478
    2MOL   H378  760   5.516   3.310   7.302 -0.9532  0.1669  1.0983
    2MOL   H379  761   5.645   3.165   7.159 -0.2278  0.0795  0.8922
    2MOL   H380  762   5.759   2.947   7.127  0.9782 -0.9068  0.3774
    2MOL   H381  763   5.724   2.800   7.024 -1.9278 -1.7642  1.3472
    2MOL   H382  764   5.665   2.817   7.185  2.2051 -1.4506 -0.5578
    3MOL     C1  765   6.595   4.936   1.393 -0.0128 -0.4809 -0.2258
    3MOL     C2  766   6.654   5.042   1.297 -0.1453 -0.1155 -0.3463
    3MOL     C3  767   6.714   5.163   1.347  0.3702 -0.5226 -0.3588
    3MOL     C4  768   6.764   5.260   1.257  0.3456 -0.4415  0.2256
    3MOL     C5  769   6.759   5.235   1.112  0.9147  0.6701  0.2587
    3MOL     C6  770   6.807   5.344   1.014 -0.4643 -0.4209  0.3227
    3MOL     C7  771   6.699   5.118   1.068 -0.0463 -0.4151 -0.2008
    3MOL     C8  772   6.645   5.024   1.159  0.5464 -0.5930 -0.2888
    3MOL     C9  773   6.453   4.976   1.436 -0.3728  0.5497 -0.7678
    3MOL    H10  774   6.586   4.841   1.340  2.5578 -0.8334 -0.0594
    3MOL    H11  775   6.715   5.178   1.453  0.6028 -0.3092 -0.3911
    3MOL    H12  776   6.821   5.346   1.291  0.2666 -0.5473  0.6217
    3MOL    H13  777   6.724   5.367   0.948  0.0786 -0.4367 -0.3749
    3MOL    H14  778   6.843   5.425   1.077 -1.9256  1.1316 -0.8100
    3MOL    H15  779   6.883   5.305   0.945 -0.1563  0.9175 -0.0976
    3MOL    H16  780   6.689   5.097   0.963  0.0824  0.9970 -0.5002
    3MOL    H17  781   6.601   4.937   1.112  3.5836 -1.6491 -1.2796
    3MOL    H18  782   6.383   4.966   1.353 -0.6829 -1.1690 -0.3084
    3MOL    H19  783   6.453   5.082   1.461  2.7148  0.1532  1.1109
    3MOL    H20  784   6.656   4.930   1.483 -0.0050 -4.0765 -0.3868
    3MOL    C21  785   6.403   4.876   1.547 -0.1950 -0.1290 -0.3301
    3MOL    C22  786   6.436   4.735   1.513 -0.3607  0.1610  0.0052
    3MOL    C23  787   6.364   4.665   1.416  0.0142  0.0677  0.6006
    3MOL    C24  788   6.393   4.527   1.393 -0.0079  0.3909  0.4105
    3MOL    C25  789   6.485   4.459   1.477  0.1792  0.1375  0.1275
    3MOL    C26  790   6.514   4.307   1.472 -0.2557  0.7297 -0.1818
    3MOL    C27  791   6.559   4.534   1.573  0.5607 -0.3775  0.4431
    3MOL    C28  792   6.526   4.670   1.597 -0.0531 -0.8274 -0.5803
    3MOL    C29  793   6.255   4.909   1.578  0.2783  0.8003 -0.4147
    3MOL    H30  794   6.455   4.901   1.640 -1.6105  0.4500  0.3133
    3MOL    H31  795   6.288   4.702   1.349 -0.4744  0.7754  1.5434
    3MOL    H32  796   6.331   4.474   1.323  0.4169  1.6987 -0.9581
    3MOL    H33  797   6.430   4.256   1.521 -1.0318  1.6979 -0.4873
    3MOL    H34  798   6.515   4.280   1.367  1.1226  0.1299 -0.0281
    3MOL    H35  799   6.610   4.283   1.518  0.3279  2.4881 -0.4750
    3MOL    H36  800   6.637   4.498   1.639  1.3937 -2.2320 -1.5228
    3MOL    H37  801   6.576   4.717   1.680  1.0890 -2.7699 -0.1579
    3MOL    H38  802   6.208   4.820   1.620 -0.2256  1.1684 -0.1939
    3MOL    H39  803   6.197   4.920   1.486  0.1442  0.6436 -0.3495
    3MOL    C40  804   6.239   5.031   1.661 -0.3450  0.7554 -0.7298
    3MOL    C41  805   6.222   5.006   1.816 -0.3696  0.5337  0.0344
    3MOL    C42  806   6.300   5.083   1.899 -0.2846 -0.4063  0.2172
    3MOL    C43  807   6.314   5.056   2.036  0.4349  0.3140  0.1367
    3MOL    C44  808   6.239   4.951   2.090 -0.4527  0.9541 -0.0100
    3MOL    C45  809   6.243   4.940   2.243  0.2792 -0.7029  0.5992
    3MOL    C46  810   6.153   4.871   2.012  0.8325 -0.0046 -0.1332
    3MOL    C47  811   6.143   4.898   1.869 -0.1169 -0.6389  0.3533
    3MOL    C48  812   6.130   5.128   1.612 -0.1411  0.9752  0.3919
    3MOL    H49  813   6.337   5.079   1.661 -0.5229  1.3450  3.2658
    3MOL    H50  814   6.364   5.157   1.855  1.1045 -1.4048  0.5321
    3MOL    H51  815   6.393   5.102   2.093 -0.2712  3.5445 -1.4199
    3MOL    H52  816   6.159   4.881   2.280 -1.2724  1.3937  0.5067
    3MOL    H53  817   6.335   4.894   2.281  0.4917  0.5560  1.6601
    3MOL    H54  818   6.223   5.042   2.276  1.5000 -0.1548 -0.3326
    3MOL    H55  819   6.106   4.784   2.057 -0.0812  0.6206  0.1399
    3MOL    H56  820   6.089   4.832   1.802 -2.1858 -0.6529  1.9913
    3MOL    H57  821   6.086   5.175   1.700  1.8966  1.0497  1.4162
    3MOL    H58  822   6.058   5.065   1.561  0.2486 -0.3067  1.4165
    3MOL    C59  823   6.180   5.244   1.530 -0.6085  0.1058 -0.0236
    3MOL    C60  824   6.269   5.330   1.615  0.3165  0.5006  0.1324
    3MOL    C61  825   6.407   5.334   1.572 -0.3980 -0.2178  0.0216
    3MOL    C62  826   6.499   5.389   1.661 -0.1643  0.3665 -0.2230
    3MOL    C63  827   6.462   5.436   1.789  0.1317 -0.6049 -0.6189
    3MOL    C64  828   6.566   5.508   1.864  0.0514  0.2188  0.0616
    3MOL    C65  829   6.328   5.430   1.832  0.6395  0.3247  0.8067
    3MOL    C66  830   6.224   5.391   1.735 -0.0641  0.8444 -0.4024
    3MOL    C67  831   6.066   5.324   1.459 -0.5363 -0.0033 -0.5909
    3MOL    H68  832   6.237   5.191   1.454 -1.6703 -0.6271 -0.3154
    3MOL    H69  833   6.434   5.296   1.475  0.4903 -1.4670  0.7639
    3MOL    H70  834   6.604   5.393   1.635 -0.1913 -0.8182 -0.5341
    3MOL    H71  835   6.650   5.447   1.895  1.2694  0.6672 -2.2246
    3MOL    H72  836   6.603   5.578   1.788 -0.9435 -1.9694 -2.5239
    3MOL    H73  837   6.527   5.560   1.952  0.0842 -0.9743  0.7843
    3MOL    H74  838   6.296   5.464   1.929 -0.6188 -0.5680  0.7065
    3MOL    H75  839   6.119   5.395   1.759  0.1848 -3.7330  2.1395
    3MOL    H76  840   6.109   5.412   1.411 -0.5148 -0.5433 -1.5712
    3MOL    H77  841   6.004   5.365   1.539  0.1205 -0.8977  0.4007
    3MOL    C78  842   5.984   5.258   1.340  1.0207  0.4228 -0.3930
    3MOL    C79  843   6.067   5.204   1.223  0.0940 -0.4020  0.8066
    3MOL    C80  844   6.125   5.076   1.237  0.7984  0.5282 -0.1668
    3MOL    C81  845   6.190   5.015   1.129  0.7040 -0.3566  0.0095
    3MOL    C82  846   6.200   5.094   1.007  0.1542  0.2225  0.2979
    3MOL    C83  847   6.255   5.031   0.887 -0.3313 -0.1453  0.5591
    3MOL    C84  848   6.159   5.230   1.002 -0.4675  0.8040 -0.1841
    3MOL    C85  849   6.087   5.283   1.109 -0.3177 -0.1502  0.2967
    3MOL    C86  850   5.872   5.354   1.296 -0.4654  0.6754  0.2416
    3MOL    H87  851   5.927   5.178   1.386  0.3323  1.6216  0.8783
    3MOL    H88  852   6.119   5.024   1.331  0.8553  3.7151  1.6659
    3MOL    H89  853   6.228   4.915   1.140  0.1140 -0.8160 -1.9431
    3MOL    H90  854   6.185   4.950   0.864  0.4179 -0.2084 -1.5820
    3MOL    H91  855   6.255   5.091   0.796 -0.1986 -0.6701  0.2049
    3MOL    H92  856   6.350   4.982   0.910 -1.2194 -1.2281  1.9645
    3MOL    H93  857   6.168   5.294   0.915 -1.0669 -1.1437 -1.7251
    3MOL    H94  858   6.052   5.385   1.107  2.5148  0.8455 -0.1690
    3MOL    H95  859   5.846   5.311   1.199  2.0601 -0.5628  0.0769
    3MOL    H96  860   5.903   5.456   1.274  2.1207 -0.4819 -1.6151
    3MOL    C97  861   5.728   5.365   1.357 -0.0868  0.7828 -0.2788
    3MOL    C98  862   5.649   5.430   1.247 -0.1988  0.7488  0.2533
    3MOL    C99  863   5.644   5.570   1.230 -0.2328  0.2496  0.4233
    3MOL   C100  864   5.584   5.616   1.113 -0.0638 -0.3360 -0.1716
    3MOL   C101  865   5.527   5.534   1.016  0.2158 -0.8619  0.3759
    3MOL   C102  866   5.447   5.580   0.892  0.4079 -0.0016  0.1590
    3MOL   C103  867   5.522   5.400   1.046  0.3513 -0.6620 -0.1388
    3MOL   C104  868   5.582   5.343   1.155  0.2711 -0.1673 -0.1174
    3MOL   C105  869   5.723   5.447   1.492  0.9585 -0.3200  0.4228
    3MOL   H106  870   5.692   5.263   1.370  0.0893  0.6791 -0.5773
    3MOL   H107  871   5.679   5.639   1.305  0.5449 -0.2844  0.5441
    3MOL   H108  872   5.586   5.721   1.086 -0.7509 -0.1915  0.3230
    3MOL   H109  873   5.365   5.639   0.933  1.0080  1.7854 -1.1283
    3MOL   H110  874   5.509   5.647   0.832  2.2337 -1.7432  0.0290
    3MOL   H111  875   5.412   5.493   0.837  0.8285  0.0320 -0.1624
    3MOL   H112  876   5.477   5.330   0.977 -1.4135 -0.7953  1.1241
    3MOL   H113  877   5.583   5.236   1.161 -3.1251 -0.6064 -4.9149
    3MOL   H114  878   5.757   5.549   1.476 -1.8740  0.5661 -0.2932
    3MOL   H115  879   5.784   5.413   1.575 -0.4626 -1.5087  0.9917
    3MOL   C116  880   5.583   5.460   1.556 -0.2165  0.1815  0.3125
    3MOL   C117  881   5.568   5.575   1.653 -0.7463  0.3352  0.5529
    3MOL   C118  882   5.671   5.598   1.745  0.1762 -0.3427  0.2794
    3MOL   C119  883   5.673   5.714   1.821  0.0260 -0.0789 -0.7262
    3MOL   C120  884   5.569   5.805   1.799 -0.3434  0.1870 -0.2354
    3MOL   C121  885   5.570   5.936   1.882  0.5485 -0.5703  0.6380
    3MOL   C122  886   5.458   5.777   1.715  0.0018 -0.4198 -0.1657
    3MOL   C123  887   5.462   5.662   1.637  0.3901  0.3022 -0.5732
    3MOL   C124  888   5.541   5.325   1.619  0.5159  0.2969 -0.0659
    3MOL   H125  889   5.521   5.488   1.471  0.1343  1.3456  0.4298
    3MOL   H126  890   5.752   5.526   1.748  1.1187  0.6093 -1.3953
    3MOL   H127  891   5.749   5.742   1.892 -1.1602 -2.2551  1.4976
    3MOL   H128  892   5.541   6.013   1.812 -4.4051 -2.0036  0.8910
    3MOL   H129  893   5.510   5.932   1.974 -0.4852  0.7896  0.0398
    3MOL   H130  894   5.673   5.957   1.909 -0.0919  1.9842  1.2110
    3MOL   H131  895   5.364   5.830   1.714  0.5589  0.5999  0.2960
    3MOL   H132  896   5.380   5.637   1.572 -1.7635  2.1381  1.3661
    3MOL   H133  897   5.585   5.297   1.714 -0.3252 -2.0932 -0.3338
    3MOL   H134  898   5.564   5.236   1.560 -1.5943 -1.5204  1.7321
    3MOL   C135  899   5.389   5.316   1.651  0.2705 -0.1125 -0.0384
    3MOL   C136  900   5.355   5.173   1.719  0.0596 -0.0086 -0.6479
    3MOL   C137  901   5.341   5.053   1.651  0.2398  0.4718 -0.9420
    3MOL   C138  902   5.308   4.931   1.722  0.5004 -0.4880  0.2647
    3MOL   C139  903   5.303   4.939   1.865  0.1480 -0.3665  0.1001
    3MOL   C140  904   5.275   4.810   1.946  0.2303 -1.1172 -0.0358
    3MOL   C141  905   5.329   5.060   1.933 -0.3493 -0.7214 -0.6224
    3MOL   C142  906   5.355   5.171   1.861 -0.4191 -0.2417  0.0960
    3MOL   C143  907   5.283   5.327   1.543 -0.1437 -0.8577  0.6224
    3MOL   H144  908   5.364   5.380   1.735 -1.7934 -0.0338 -0.6684
    3MOL   H145  909   5.353   5.042   1.544 -0.8239 -2.0824 -0.8424
    3MOL   H146  910   5.301   4.836   1.672  2.0692 -1.1670  1.2895
    3MOL   H147  911   5.363   4.747   1.933  0.0340 -1.4441  0.2077
    3MOL   H148  912   5.253   4.825   2.051  0.2613 -0.0764 -0.1697
    3MOL   H149  913   5.189   4.770   1.893 -1.1128 -0.8052  1.8575
    3MOL   H150  914   5.326   5.065   2.041 -1.5613 -0.7012 -0.6442
    3MOL   H151  915   5.388   5.257   1.918 -1.5250 -1.3589  2.5218
    3MOL   H152  916   5.272   5.238   1.483  0.3069  0.0625 -0.8410
    3MOL   H153  917   5.325   5.413   1.490  1.0757 -1.0203  1.3109
    3MOL   C154  918   5.137   5.360   1.592  0.8077 -0.0421 -0.6016
    3MOL   C155  919   5.128   5.493   1.665 -0.3038 -0.6843  0.2679
    3MOL   C156  920   5.105   5.508   1.805  0.0694 -0.6650  0.2600
    3MOL   C157  921   5.076   5.636   1.862 -0.2007  0.0917  0.4558
    3MOL   C158  922   5.064   5.752   1.781  0.7932 -0.2124  0.3973
    3MOL   C159  923   5.041   5.893   1.836  0.6423  0.0994  0.0879
    3MOL   C160  924   5.079   5.740   1.644  0.1789  0.2123  0.2618
    3MOL   C161  925   5.114   5.611   1.586 -0.2381 -0.4131 -0.2152
    3MOL   C162  926   5.066   5.246   1.676  0.1355  0.0609 -0.2048
    3MOL   H163  927   5.085   5.379   1.498 -0.9896  0.2178  0.4046
    3MOL   H164  928   5.125   5.427   1.873  2.2982  1.0765  1.7996
    3MOL   H165  929   5.066   5.639   1.969  1.0664 -0.9326  0.6076
    3MOL   H166  930   5.131   5.923   1.890  0.4733  1.2941 -0.2684
    3MOL   H167  931   5.020   5.973   1.764  1.0074  0.5238  0.4520
    3MOL   H168  932   4.959   5.887   1.908 -0.1176  1.5382 -0.6132
    3MOL   H169  933   5.079   5.829   1.583  1.4479 -0.5625 -0.8938
    3MOL   H170  934   5.141   5.596   1.483 -0.3058 -0.6661 -0.1970
    3MOL   H171  935   5.102   5.234   1.778  0.3444 -2.5369 -0.5524
    3MOL   H172  936   5.086   5.158   1.615  0.1504 -0.1763  0.1426
    3MOL   C173  937   4.907   5.259   1.676  0.3343  0.2138 -0.3304
    3MOL   C174  938   4.833   5.148   1.754 -0.5208 -0.2973 -0.8770
    3MOL   C175  939   4.712   5.180   1.820 -0.4342  0.0032 -0.2964
    3MOL   C176  940   4.646   5.081   1.904 -0.1204  0.6354  0.6781
    3MOL   C177  941   4.703   4.954   1.924 -0.4177 -0.5934  0.3601
    3MOL   C178  942   4.628   4.854   1.999 -0.1509  0.3774 -0.2541
    3MOL   C179  943   4.829   4.923   1.865  0.1417 -0.7155  0.7091
    3MOL   C180  944   4.894   5.022   1.789  0.1394  0.6650  0.5284
    3MOL   C181  945   4.842   5.269   1.530 -0.3145 -0.0710  0.3828
    3MOL   H182  946   4.875   5.350   1.727 -1.1666 -1.5582  1.9783
    3MOL   H183  947   4.662   5.272   1.794  1.6187  0.6805 -1.9579
    3MOL   H184  948   4.552   5.107   1.951 -1.6062  0.3062 -2.0352
    3MOL   H185  949   4.650   4.752   1.967 -1.3673 -0.5633  1.7561
    3MOL   H186  950   4.649   4.855   2.106 -1.0463 -1.3278 -0.0367
    3MOL   H187  951   4.522   4.874   1.987  0.1365 -0.1093 -4.1319
    3MOL   H188  952   4.878   4.828   1.882  1.4300 -0.1939 -0.0466
    3MOL   H189  953   4.992   4.996   1.750  0.1891  2.9895 -1.0198
    3MOL   H190  954   4.768   5.193   1.506  0.1251 -1.0234  1.9353
    3MOL   H191  955   4.915   5.236   1.457  1.3449 -3.4633  3.3962
    3MOL   C192  956   4.783   5.410   1.494  0.4171 -0.2874 -0.1370
    3MOL   C193  957   4.672   5.451   1.584 -0.2900  0.6642 -0.5831
    3MOL   C194  958   4.667   5.581   1.643 -0.1089 -0.2976  0.1860
    3MOL   C195  959   4.563   5.611   1.732  0.0771  0.0947 -0.4231
    3MOL   C196  960   4.446   5.528   1.741 -0.1410  0.5024  0.8044
    3MOL   C197  961   4.327   5.561   1.826 -0.2787  0.1597 -0.6003
    3MOL   C198  962   4.443   5.400   1.673  0.0294 -0.2222 -0.6346
    3MOL   C199  963   4.554   5.364   1.600 -0.7191  0.1710  0.0083
    3MOL   C200  964   4.728   5.421   1.347 -0.0291  0.2848  0.3483
    3MOL   H201  965   4.859   5.488   1.503 -0.6766  0.6868  0.7746
    3MOL   H202  966   4.744   5.656   1.632  1.8134 -2.2065  0.3654
    3MOL   H203  967   4.570   5.706   1.783  1.2053 -0.1432 -0.1044
    3MOL   H204  968   4.381   5.599   1.913  0.0083 -0.9251 -0.3004
    3MOL   H205  969   4.260   5.633   1.778 -2.7511 -2.0290 -0.5817
    3MOL   H206  970   4.268   5.477   1.863 -0.8734  0.8990  0.1650
    3MOL   H207  971   4.350   5.346   1.664  2.1428 -3.6169 -3.4368
    3MOL   H208  972   4.549   5.279   1.534  1.6044  1.0512 -1.3303
    3MOL   H209  973   4.674   5.515   1.331  0.4434  0.0059 -3.2557
    3MOL   H210  974   4.651   5.345   1.334  1.2395 -0.7940 -0.9466
    3MOL   C211  975   4.829   5.409   1.230  0.3975  0.6531 -0.0817
    3MOL   C212  976   4.947   5.508   1.230  0.2703  0.3123  0.0626
    3MOL   C213  977   5.077   5.457   1.226  0.0555 -0.1319  0.1883
    3MOL   C214  978   5.187   5.544   1.222 -0.7451  0.4512 -0.5778
    3MOL   C215  979   5.169   5.685   1.230  0.7678  0.6789 -0.2682
    3MOL   C216  980   5.291   5.779   1.241 -0.3962  0.5740 -0.2219
    3MOL   C217  981   5.043   5.738   1.243  0.1010 -0.1690 -0.3679
    3MOL   C218  982   4.931   5.650   1.241 -0.3390 -0.0614  0.4448
    3MOL   C219  983   4.752   5.405   1.104 -0.0717  0.3495  0.0884
    3MOL   H220  984   4.875   5.310   1.237  0.8445  0.7521 -1.5228
    3MOL   H221  985   5.088   5.351   1.215  0.2153 -0.1519  0.5266
    3MOL   H222  986   5.285   5.499   1.213 -0.0705  1.4924  1.2779
    3MOL   H223  987   5.293   5.877   1.192  1.2239  0.3159 -0.6914
    3MOL   H224  988   5.312   5.802   1.345 -1.0530  0.6251 -0.0951
    3MOL   H225  989   5.379   5.721   1.214  1.1546  2.2628  1.0536
    3MOL   H226  990   5.022   5.844   1.255 -0.8508 -0.4246  0.2531
    3MOL   H227  991   4.831   5.690   1.233 -0.2686  0.0729  0.2460
    3MOL   H228  992   4.725   5.509   1.088 -0.9505 -0.1181 -1.6332
    3MOL   H229  993   4.656   5.358   1.128  1.1983 -0.9647  2.7682
    3MOL   C230  994   4.826   5.337   0.990  0.1770  0.7907 -0.3793
    3MOL   C231  995   4.770   5.373   0.857  0.1178 -0.4834  0.1329
    3MOL   C232  996   4.858   5.404   0.750  0.1444  0.1310 -0.1074
    3MOL   C233  997   4.804   5.443   0.623 -0.0723 -0.3911 -0.2108
    3MOL   C234  998   4.671   5.437   0.608  0.0989  0.1117 -0.1052
    3MOL   C235  999   4.620   5.499   0.479 -0.0389  0.6256  0.5315
    3MOL   C236 1000   4.579   5.409   0.710  0.2862 -0.3490 -0.0437
    3MOL   C237 1001   4.630   5.380   0.838 -0.4802 -0.5274 -0.3785
    3MOL   C238 1002   4.828   5.183   1.004 -0.0521 -0.1514 -0.3143
    3MOL   H239 1003   4.927   5.376   0.990  0.1596  0.8375 -1.3284
    3MOL   H240 1004   4.965   5.394   0.762  0.2935  1.3394 -0.4023
    3MOL   H241 1005   4.865   5.478   0.541  0.7140  1.4797  1.1408
    3MOL   H242 1006   4.512   5.507   0.468  0.3560  2.6638 -2.6684
    3MOL   H243 1007   4.661   5.600   0.478 -1.1782  1.0971  1.1109
    3MOL   H244 1008   4.650   5.440   0.392 -1.8705 -0.8341  0.8618
    3MOL   H245 1009   4.471   5.408   0.701  0.1318  2.1221  1.1471
    3MOL   H246 1010   4.562   5.370   0.921 -1.2548  0.4662 -0.8782
    3MOL   H247 1011   4.734   5.140   0.969 -0.7845  1.9146 -1.0060
    3MOL   H248 1012   4.824   5.149   1.107  0.1654 -3.7771 -1.4237
    3MOL   C249 1013   4.939   5.100   0.931  0.3580  0.9402 -0.4641
    3MOL   C250 1014   4.883   4.972   0.872 -0.2188 -0.2175 -0.2210
    3MOL   C251 1015   4.828   4.972   0.744 -0.3792 -0.8056  0.5664
    3MOL   C252 1016   4.790   4.853   0.674 -0.5669 -0.2441  0.8823
    3MOL   C253 1017   4.806   4.727   0.740  0.3421  0.0195  0.0716
    3MOL   C254 1018   4.758   4.600   0.675  0.2459  0.8888 -0.2481
    3MOL   C255 1019   4.862   4.723   0.871  0.4599 -0.5240  0.2276
    3MOL   C256 1020   4.896   4.847   0.937  0.2716 -0.3612 -0.7025
    3MOL   C257 1021   5.059   5.079   1.030  0.2487 -0.7972 -0.2875
    3MOL   H258 1022   4.960   5.165   0.846  1.8530 -1.0382 -1.6167
    3MOL   H259 1023   4.807   5.065   0.693 -2.0025 -1.1175  0.6568
    3MOL   H260 1024   4.746   4.857   0.576  2.8744 -1.6531 -0.8081
    3MOL   H261 1025   4.697   4.559   0.756 -0.0636  0.5324 -0.6613
    3MOL   H262 1026   4.687   4.606   0.592  0.1050  0.6772 -0.1443
    3MOL   H263 1027   4.843   4.536   0.654 -0.4011 -0.2964  0.6817
    3MOL   H264 1028   4.874   4.630   0.924 -2.0997 -0.0225  1.7746
    3MOL   H265 1029   4.933   4.837   1.038 -0.0141  1.5376 -0.3905
    3MOL   H266 1030   5.012   5.034   1.118 -0.2615 -0.9209 -0.6148
    3MOL   H267 1031   5.097   5.171   1.074 -0.3140 -0.8278  0.2723
    3MOL   C268 1032   5.179   5.005   0.976 -0.5037 -0.4394  0.2873
    3MOL   C269 1033   5.259   4.957   1.098 -0.6920 -0.2389 -0.2802
    3MOL   C270 1034   5.361   5.029   1.172  0.7842 -0.2374  0.0730
    3MOL   C271 1035   5.443   4.958   1.261 -0.0553 -0.4249 -0.1766
    3MOL   C272 1036   5.424   4.822   1.285  0.3665 -0.1096 -0.0827
    3MOL   C273 1037   5.513   4.746   1.378 -0.7025 -0.3833  0.5774
    3MOL   C274 1038   5.312   4.753   1.229 -0.3984  0.1286 -0.9799
    3MOL   C275 1039   5.235   4.822   1.135  1.0596  0.2331 -0.2434
    3MOL   C276 1040   5.257   5.091   0.868  0.2194 -0.1241  0.3888
    3MOL   H277 1041   5.146   4.911   0.932  0.6894  0.0986 -1.8402
    3MOL   H278 1042   5.381   5.132   1.145  0.6368 -0.3803 -0.5807
    3MOL   H279 1043   5.526   5.013   1.304 -0.5887  2.0105 -2.0953
    3MOL   H280 1044   5.610   4.793   1.393 -0.4905 -1.2674  2.0551
    3MOL   H281 1045   5.460   4.724   1.471 -0.2173 -1.7296  0.5499
    3MOL   H282 1046   5.543   4.652   1.332  2.0845  1.2718 -1.1255
    3MOL   H283 1047   5.296   4.649   1.252 -1.1572  0.6782  1.0585
    3MOL   H284 1048   5.164   4.770   1.072 -0.0071 -0.2850  1.3647
    3MOL   H285 1049   5.296   5.182   0.915  1.1574  0.2380 -1.0761
    3MOL   H286 1050   5.194   5.132   0.789 -0.1845 -1.2790  0.1079
    3MOL   C287 1051   5.369   5.013   0.804  0.0092  0.4638 -0.5782
    3MOL   C288 1052   5.497   5.093   0.803 -0.0934  0.5710  0.0023
    3MOL   C289 1053   5.506   5.193   0.712 -0.4129 -0.6748  0.4862
    3MOL   C290 1054   5.625   5.273   0.709  0.5914 -0.2624 -0.2839
    3MOL   C291 1055   5.724   5.256   0.806  0.6032  0.2233 -0.0247
    3MOL   C292 1056   5.845   5.353   0.806  0.3915  0.3632 -0.4507
    3MOL   C293 1057   5.720   5.142   0.899 -0.1827  0.1539 -0.3606
    3MOL   C294 1058   5.604   5.055   0.890  0.6344  0.2891  1.1816
    3MOL   C295 1059   5.333   4.944   0.672  0.4764 -0.6639 -0.8656
    3MOL   H296 1060   5.395   4.938   0.879 -1.5370 -1.4432 -1.8903
    3MOL   H297 1061   5.420   5.215   0.650 -0.7360  1.2046  1.5580
    3MOL   H298 1062   5.634   5.355   0.640 -0.8862 -1.2300 -1.6375
    3MOL   H299 1063   5.909   5.322   0.889 -1.5429 -1.8010  0.2852
    3MOL   H300 1064   5.909   5.339   0.719 -1.0834  0.3044 -1.5354
    3MOL   H301 1065   5.829   5.460   0.814  0.7105  0.3431  0.4422
    3MOL   H302 1066   5.800   5.123   0.968 -2.6713  1.8060  3.0993
    3MOL   H303 1067   5.596   4.965   0.949  0.0136 -0.6922 -0.3923
    3MOL   H304 1068   5.321   5.025   0.601  0.3406 -2.1357 -2.5399
    3MOL   H305 1069   5.239   4.892   0.691 -0.0249  0.7031  0.5097
    3MOL   C306 1070   5.433   4.842   0.624 -0.5921  0.0048 -0.0212
    3MOL   C307 1071   5.492   4.886   0.488 -0.0951  0.4291  0.5176
    3MOL   C308 1072   5.417   4.942   0.387 -0.7215 -0.4533  0.1482
    3MOL   C309 1073   5.474   4.984   0.267  0.5151 -0.6536 -0.0393
    3MOL   C310 1074   5.617   4.977   0.253  0.1811  0.0985  0.2316
    3MOL   C311 1075   5.680   5.050   0.134 -0.7792 -0.0645  0.1581
    3MOL   C312 1076   5.694   4.916   0.353 -0.3873 -0.1519 -0.2097
    3MOL   C313 1077   5.631   4.877   0.476 -0.4840 -0.3186 -0.4484
    3MOL   C314 1078   5.379   4.705   0.604 -0.1440  0.0940 -0.0242
    3MOL   H315 1079   5.513   4.836   0.698  0.0946 -1.1201 -0.8478
    3MOL   H316 1080   5.309   4.945   0.394 -0.6423  1.2321  0.7014
    3MOL   H317 1081   5.421   5.037   0.189  0.7189 -0.8639 -0.3217
    3MOL   H318 1082   5.604   5.045   0.056  0.1844  0.1641 -0.8123
    3MOL   H319 1083   5.709   5.154   0.145 -0.7377 -0.1559  0.9164
    3MOL   H320 1084   5.767   4.998   0.093 -0.9533 -0.8544  0.7753
    3MOL   H321 1085   5.801   4.916   0.342 -0.3378 -0.0211  0.2491
    3MOL   H322 1086   5.692   4.837   0.556 -1.4542 -2.6329 -0.8505
    3MOL   H323 1087   5.447   4.645   0.544  0.4400  1.6778 -0.9823
    3MOL   H324 1088   5.291   4.717   0.542 -0.5495  0.0906  0.5508
    3MOL   C325 1089   5.346   4.618   0.735 -0.6148 -0.5766 -0.0332
    3MOL   C326 1090   5.475   4.583   0.807 -0.6025 -0.5836 -0.8938
    3MOL   C327 1091   5.501   4.628   0.940 -0.1233  0.6643  0.5500
    3MOL   C328 1092   5.617   4.592   1.008  0.8795 -0.2333  0.6051
    3MOL   C329 1093   5.705   4.496   0.952  0.2679 -0.1609  0.9398
    3MOL   C330 1094   5.836   4.463   1.011  0.2015  0.4517  0.2893
    3MOL   C331 1095   5.676   4.439   0.823  0.3839  0.5370  0.0126
    3MOL   C332 1096   5.567   4.486   0.750 -0.0171  0.0480  0.2948
    3MOL   C333 1097   5.261   4.503   0.684 -0.1396  0.0549 -0.1175
    3MOL   H334 1098   5.286   4.671   0.810  1.1616  0.5452  0.6242
    3MOL   H335 1099   5.432   4.691   0.993  0.4985 -1.1128  3.6155
    3MOL   H336 1100   5.635   4.649   1.098 -2.4447  1.2679  0.4048
    3MOL   H337 1101   5.920   4.495   0.950  2.2384 -0.1553  2.7273
    3MOL   H338 1102   5.851   4.508   1.109  0.3019 -0.1582  0.5594
    3MOL   H339 1103   5.843   4.356   1.030 -0.1829  0.0594 -1.6468
    3MOL   H340 1104   5.740   4.365   0.778  1.1451  2.5282 -2.3647
    3MOL   H341 1105   5.548   4.461   0.647  2.6481  0.7607 -0.3927
    3MOL   H342 1106   5.312   4.440   0.610  0.5923 -0.1554  0.5610
    3MOL   H343 1107   5.177   4.551   0.634 -0.3833 -0.3647 -0.1152
    3MOL   C344 1108   5.217   4.402   0.792 -0.0196  0.4334  0.3188
    3MOL   C345 1109   5.170   4.268   0.735  0.2010  0.0904 -0.7752
    3MOL   C346 1110   5.055   4.263   0.652  0.2776  0.1055  0.9881
    3MOL   C347 1111   5.026   4.143   0.592  0.6278  0.3397  0.3820
    3MOL   C348 1112   5.090   4.025   0.632 -0.1555 -0.6944 -0.2252
    3MOL   C349 1113   5.044   3.889   0.576  0.0309  0.1051 -0.3005
    3MOL   C350 1114   5.197   4.031   0.717 -0.3100 -0.1984 -0.4589
    3MOL   C351 1115   5.244   4.156   0.768 -0.1231  0.1048 -0.0392
    3MOL   C352 1116   5.116   4.472   0.887  0.6880  0.4301 -0.2917
    3MOL   H353 1117   5.306   4.383   0.852  0.2203  1.5155  0.3236
    3MOL   H354 1118   4.995   4.350   0.631 -0.6452 -0.7185  0.1483
    3MOL   H355 1119   4.938   4.134   0.530  0.1309 -0.7399  1.2389
    3MOL   H356 1120   5.103   3.851   0.493 -0.9913 -1.5391 -0.2809
    3MOL   H357 1121   5.052   3.807   0.646 -1.9612  1.9911  2.2325
    3MOL   H358 1122   4.940   3.891   0.542 -0.9934  0.4880  2.7522
    3MOL   H359 1123   5.247   3.940   0.746 -0.2189  0.0425  0.1391
    3MOL   H360 1124   5.325   4.169   0.839 -0.6464  0.8653  0.4327
    3MOL   H361 1125   5.032   4.500   0.824 -0.2993  0.1969  0.9027
    3MOL   H362 1126   5.146   4.563   0.940 -1.0256  0.3070  0.9308
    3MOL   C363 1127   5.052   4.373   0.999  0.0279  0.1520 -0.0155
    3MOL   C364 1128   4.950   4.446   1.087  0.1742 -0.4338  0.0035
    3MOL   C365 1129   4.991   4.543   1.172  0.0374 -0.3226 -0.4950
    3MOL   C366 1130   4.899   4.619   1.255  0.1085  0.0046 -0.7762
    3MOL   C367 1131   4.761   4.581   1.255  0.7322  0.1804  0.6167
    3MOL   C368 1132   4.652   4.656   1.334 -0.2395 -0.2389  0.1521
    3MOL   C369 1133   4.712   4.482   1.169 -0.0289  0.2507 -0.0291
    3MOL   C370 1134   4.812   4.401   1.102  0.1296 -0.9211 -0.5555
    3MOL   C371 1135   5.158   4.320   1.092  0.0057  0.7024  0.2120
    3MOL   H372 1136   5.003   4.294   0.942  0.6819  0.7613 -1.4647
    3MOL   H373 1137   5.095   4.574   1.172 -0.2851  0.7713 -0.3421
    3MOL   H374 1138   4.933   4.709   1.304 -1.2509  0.2632 -0.2871
    3MOL   H375 1139   4.582   4.699   1.262 -0.9194  0.4461  1.2092
    3MOL   H376 1140   4.588   4.589   1.392  0.4811 -0.5669  0.5619
    3MOL   H377 1141   4.703   4.733   1.391 -0.7254  1.3071 -1.4472
    3MOL   H378 1142   4.611   4.446   1.163  0.0032  0.6034 -3.6265
    3MOL   H379 1143   4.773   4.314   1.050 -0.8734  0.9571 -3.0811
    3MOL   H380 1144   5.213   4.408   1.124  1.3499  0.3055 -0.9090
    3MOL   H381 1145   5.241   4.258   1.056 -1.0277  0.7143 -2.2830
    3MOL   H382 1146   5.122   4.280   1.186 -0.6055  0.1171 -0.2607
    4MOL     C1 1147   3.694   6.761   5.048  0.4170 -0.7045  0.3038
    4MOL     C2 1148   3.686   6.722   5.195  0.0498  0.1402 -0.3494
    4MOL     C3 1149   3.796   6.754   5.282  0.3613  0.4098  0.4012
    4MOL     C4 1150   3.792   6.700   5.411 -0.5099 -0.3303  0.0957
    4MOL     C5 1151   3.679   6.634   5.466  0.2258  0.1979 -0.7187
    4MOL     C6 1152   3.684   6.587   5.611  0.5623 -0.3696 -0.6511
    4MOL     C7 1153   3.570   6.607   5.375 -0.0328  0.1060  1.1705
    4MOL     C8 1154   3.572   6.659   5.248  0.4636 -0.9567 -0.3865
    4MOL     C9 1155   3.691   6.919   5.022  0.2262 -0.6778  0.6298
    4MOL    H10 1156   3.784   6.729   4.996  0.9725  2.5662 -0.8468
    4MOL    H11 1157   3.889   6.797   5.246  0.1866  0.9117  0.5405
    4MOL    H12 1158   3.882   6.717   5.467 -0.0719 -0.2247 -0.6346
    4MOL    H13 1159   3.630   6.647   5.683 -0.5172 -1.4419 -0.5521
    4MOL    H14 1160   3.635   6.491   5.627 -2.6644  1.0906 -1.2264
    4MOL    H15 1161   3.783   6.564   5.650  1.0621  1.6993 -0.6146
    4MOL    H16 1162   3.478   6.562   5.411 -1.0262  1.9435  0.9852
    4MOL    H17 1163   3.486   6.636   5.186 -0.8222 -0.6285  1.2436
    4MOL    H18 1164   3.764   6.982   5.073  1.1856 -0.7084 -0.6628
    4MOL    H19 1165   3.596   6.953   5.061 -0.2219  1.1305 -1.9697
    4MOL    H20 1166   3.605   6.715   5.005  1.0883 -0.4850 -1.3726
    4MOL    C21 1167   3.709   6.935   4.870  0.7514 -0.2371 -0.3229
    4MOL    C22 1168   3.848   6.913   4.815  0.5087  0.3223  0.7242
    4MOL    C23 1169   3.962   6.973   4.867 -0.6751  0.1053 -0.0601
    4MOL    C24 1170   4.089   6.939   4.825 -0.0457 -0.5848 -0.3939
    4MOL    C25 1171   4.105   6.846   4.722 -0.2251  0.2434 -0.1681
    4MOL    C26 1172   4.242   6.817   4.666  0.4140  0.0170 -0.0810
    4MOL    C27 1173   3.986   6.783   4.669 -0.1179  0.1598  0.0191
    4MOL    C28 1174   3.863   6.817   4.718 -0.4218 -0.3399  0.7441
    4MOL    C29 1175   3.673   7.086   4.830  0.5109  0.2236 -0.3558
    4MOL    H30 1176   3.640   6.860   4.832 -0.6683 -0.2888  2.2512
    4MOL    H31 1177   3.955   7.046   4.946  0.1140 -1.7004  1.7162
    4MOL    H32 1178   4.177   6.980   4.872 -0.1499 -1.5978  0.7122
    4MOL    H33 1179   4.322   6.873   4.716  0.3590  2.0032 -2.1588
    4MOL    H34 1180   4.269   6.712   4.670  0.4643  0.0411  0.2117
    4MOL    H35 1181   4.262   6.833   4.560  0.2889 -2.7811 -0.5696
    4MOL    H36 1182   4.002   6.714   4.588  0.0707 -0.3986  0.5337
    4MOL    H37 1183   3.789   6.762   4.662 -0.8182  1.2607 -0.3426
    4MOL    H38 1184   3.720   7.123   4.739  3.9297  1.2155  1.7101
    4MOL    H39 1185   3.721   7.146   4.908  1.1871 -1.9502  0.9277
    4MOL    C40 1186   3.524   7.125   4.826  0.8150  0.4393 -0.2361
    4MOL    C41 1187   3.447   7.033   4.731 -0.4006 -0.1311  0.4824
    4MOL    C42 1188   3.510   6.987   4.615 -0.1320  0.1927 -0.3647
    4MOL    C43 1189   3.447   6.891   4.538 -0.2506  0.3324  0.3271
    4MOL    C44 1190   3.317   6.847   4.570  0.0920  0.4011  0.7720
    4MOL    C45 1191   3.247   6.752   4.479  0.6275 -0.0752  0.1740
    4MOL    C46 1192   3.249   6.896   4.682  0.4051  0.3343  0.3199
    4MOL    C47 1193   3.314   6.990   4.765  0.3897 -0.1965 -0.9304
    4MOL    C48 1194   3.492   7.271   4.800 -0.3229  0.6685 -0.5212
    4MOL    H49 1195   3.477   7.096   4.920  1.5068  0.1324  0.0196
    4MOL    H50 1196   3.605   7.028   4.582 -0.3566  0.0397 -1.2288
    4MOL    H51 1197   3.500   6.859   4.449  1.1193  0.6215  1.0226
    4MOL    H52 1198   3.157   6.705   4.519 -0.1245  1.1254 -0.0855
    4MOL    H53 1199   3.202   6.805   4.395  0.7217 -1.6771 -0.9052
    4MOL    H54 1200   3.317   6.689   4.425 -0.4328 -0.3308 -0.9167
    4MOL    H55 1201   3.149   6.863   4.706  0.4598  0.2839  0.4772
    4MOL    H56 1202   3.262   7.013   4.857 -0.1464  0.3005 -1.3556
    4MOL    H57 1203   3.386   7.275   4.772 -0.2992  1.0791 -0.5616
    4MOL    H58 1204   3.544   7.299   4.709  1.7016 -1.6480 -0.1035
    4MOL    C59 1205   3.518   7.361   4.919  0.2239  0.4702  0.1723
    4MOL    C60 1206   3.407   7.342   5.025  1.0038 -0.0601 -0.4457
    4MOL    C61 1207   3.278   7.382   4.989 -0.4167  0.3153  0.1774
    4MOL    C62 1208   3.178   7.375   5.082 -0.2688  0.1081 -0.2987
    4MOL    C63 1209   3.203   7.339   5.214  0.8042  0.6973  0.3052
    4MOL    C64 1210   3.103   7.351   5.327 -0.8584  0.3085 -0.5470
    4MOL    C65 1211   3.331   7.294   5.258  0.3430  0.2907 -0.1020
    4MOL    C66 1212   3.432   7.299   5.156  0.1573  0.2073  0.1416
    4MOL    C67 1213   3.538   7.514   4.875 -0.0735  0.0522  0.4684
    4MOL    H68 1214   3.610   7.330   4.969 -0.5455  2.0515  2.6445
    4MOL    H69 1215   3.254   7.419   4.890  2.0562  0.2369 -0.4968
    4MOL    H70 1216   3.080   7.410   5.051 -0.3140  0.1422 -0.1158
    4MOL    H71 1217   3.043   7.260   5.317  0.1032 -0.2879 -0.9092
    4MOL    H72 1218   3.154   7.347   5.423  3.5336  1.3496 -2.7508
    4MOL    H73 1219   3.051   7.446   5.316  0.2508  1.1951  1.6565
    4MOL    H74 1220   3.371   7.267   5.355  1.9860  0.0599 -0.8234
    4MOL    H75 1221   3.535   7.280   5.185  0.3494 -1.9113 -1.8280
    4MOL    H76 1222   3.534   7.578   4.964  1.1318  2.6917 -1.2967
    4MOL    H77 1223   3.457   7.541   4.808  1.1419 -0.9899 -1.4653
    4MOL    C78 1224   3.675   7.561   4.813 -0.3341 -0.0955 -0.5175
    4MOL    C79 1225   3.794   7.503   4.884  0.3006 -0.0307 -0.4800
    4MOL    C80 1226   3.798   7.531   5.025 -0.2191  0.1798 -0.1010
    4MOL    C81 1227   3.907   7.477   5.097 -0.6759  0.5583  0.6184
    4MOL    C82 1228   4.004   7.392   5.037  1.0293  0.3908 -0.0446
    4MOL    C83 1229   4.128   7.353   5.116  0.3917 -0.1127  0.3777
    4MOL    C84 1230   3.997   7.369   4.899  0.1398  0.1567  0.0110
    4MOL    C85 1231   3.892   7.424   4.821 -0.1179  0.0766  0.1446
    4MOL    C86 1232   3.685   7.709   4.797  0.4469 -0.0113  0.1503
    4MOL    H87 1233   3.686   7.526   4.710  1.0889  1.0886 -0.7795
    4MOL    H88 1234   3.728   7.597   5.074  1.6466  1.6824  0.6161
    4MOL    H89 1235   3.912   7.505   5.201  2.5580 -1.1566  0.9979
    4MOL    H90 1236   4.195   7.439   5.110 -0.1430  0.3825  1.4187
    4MOL    H91 1237   4.109   7.311   5.215 -2.6788  0.0693 -0.1009
    4MOL    H92 1238   4.179   7.269   5.068 -0.5939 -0.3714 -0.2197
    4MOL    H93 1239   4.080   7.325   4.846 -0.1924  2.4447 -2.4690
    4MOL    H94 1240   3.889   7.408   4.714 -2.7783 -1.2170  0.3664
    4MOL    H95 1241   3.694   7.763   4.892  0.5829  3.2471 -1.6171
    4MOL    H96 1242   3.589   7.743   4.759  0.2028  0.2860  1.0133
    4MOL    C97 1243   3.797   7.750   4.703  0.0129  0.1568 -0.7841
    4MOL    C98 1244   3.846   7.897   4.740  0.4827  0.7646  0.4469
    4MOL    C99 1245   3.979   7.926   4.711 -0.7607 -0.2112 -0.0328
    4MOL   C100 1246   4.030   8.045   4.771 -0.4220  0.4598 -0.1084
    4MOL   C101 1247   3.955   0.059   4.844  0.8696  0.0122 -0.3202
    4MOL   C102 1248   4.026   0.179   4.904 -0.2709  0.0965 -0.4219
    4MOL   C103 1249   3.818   0.024   4.863 -0.1280  0.1410 -0.0309
    4MOL   C104 1250   3.762   7.989   4.806  0.2104  0.6685  1.1937
    4MOL   C105 1251   3.786   7.731   4.547  0.2625 -0.4785  0.6664
    4MOL   H106 1252   3.882   7.684   4.723 -1.7445 -1.5053  1.3983
    4MOL   H107 1253   4.046   7.867   4.652 -2.4523  0.1993 -2.4346
    4MOL   H108 1254   4.132   8.068   4.746  0.3823 -2.6488  0.0669
    4MOL   H109 1255   3.961   0.226   4.978 -0.3107 -0.5601 -0.0302
    4MOL   H110 1256   4.107   0.141   4.966 -0.6983  0.3341  0.2922
    4MOL   H111 1257   4.060   0.252   4.831  1.9326  1.2580  1.7231
    4MOL   H112 1258   3.747   0.076   4.925 -1.4830  0.7437 -2.0443
    4MOL   H113 1259   3.654   7.977   4.812  0.1645 -0.1789 -0.8373
    4MOL   H114 1260   3.809   7.629   4.515 -0.3076 -0.0134 -1.3364
    4MOL   H115 1261   3.864   7.796   4.506 -0.7247 -0.0399 -0.5553
    4MOL   C116 1262   3.651   7.770   4.478 -0.2901 -0.6096 -0.0220
    4MOL   C117 1263   3.541   7.660   4.486 -0.2364 -0.6516 -0.4320
    4MOL   C118 1264   3.412   7.687   4.541 -0.6475  0.1602  0.4237
    4MOL   C119 1265   3.318   7.584   4.558  0.1663  0.6030 -0.2312
    4MOL   C120 1266   3.334   7.455   4.505  0.1125  0.1134 -0.2120
    4MOL   C121 1267   3.231   7.349   4.507 -0.6922  0.5777  0.0826
    4MOL   C122 1268   3.465   7.426   4.456  0.4194  0.4157  0.0796
    4MOL   C123 1269   3.566   7.525   4.444  0.5044 -0.9734 -0.1940
    4MOL   C124 1270   3.663   7.809   4.328 -0.4864  0.3767 -0.2247
    4MOL   H125 1271   3.599   7.851   4.530 -0.3950  0.0176 -1.0742
    4MOL   H126 1272   3.385   7.786   4.572 -1.3814  1.0548 -2.8645
    4MOL   H127 1273   3.219   7.611   4.591  1.4678  1.5566  3.0665
    4MOL   H128 1274   3.144   7.382   4.564 -1.3225 -2.2926  0.8554
    4MOL   H129 1275   3.201   7.331   4.404  1.0281  1.0438 -0.5032
    4MOL   H130 1276   3.266   7.254   4.546  0.2579 -0.3063 -2.8318
    4MOL   H131 1277   3.493   7.326   4.427 -1.1029 -0.0242  0.0697
    4MOL   H132 1278   3.659   7.502   4.394  0.8148 -1.2003  0.4935
    4MOL   H133 1279   3.572   7.765   4.287  0.0206 -1.5221  0.6075
    4MOL   H134 1280   3.739   7.751   4.275  0.0997  0.5148  0.4604
    4MOL   C135 1281   3.679   7.958   4.297 -0.1773 -0.0333  0.1083
    4MOL   C136 1282   3.536   8.018   4.286 -0.2194  0.2914  0.1409
    4MOL   C137 1283   3.457   7.979   4.177  0.8467  0.1816 -0.3877
    4MOL   C138 1284   3.320   8.014   4.169  0.8590  0.2385 -0.1080
    4MOL   C139 1285   3.269   0.031   4.263 -0.2687 -0.7188  0.1287
    4MOL   C140 1286   3.119   0.077   4.260  0.4664  0.0664  0.3416
    4MOL   C141 1287   3.356   0.072   4.374  0.1300  0.3959 -0.2226
    4MOL   C142 1288   3.494   0.034   4.379 -0.0586  0.0912 -0.0049
    4MOL   C143 1289   3.756   7.989   4.167 -0.5685  0.2171  0.6314
    4MOL   H144 1290   3.737   7.998   4.381 -1.3248 -2.2700  2.0198
    4MOL   H145 1291   3.493   7.915   4.098  3.6422  2.8936 -1.4048
    4MOL   H146 1292   3.267   7.965   4.089 -1.7172  1.1474  0.9734
    4MOL   H147 1293   3.059   8.079   4.306  0.3942 -1.3412 -2.0451
    4MOL   H148 1294   3.114   0.175   4.308  0.8292  0.2395  0.0274
    4MOL   H149 1295   3.071   0.084   4.162 -0.2367 -0.4212  0.6512
    4MOL   H150 1296   3.330   0.143   4.450  0.1632  1.5129 -1.2315
    4MOL   H151 1297   3.558   0.071   4.459  1.9845 -2.3761 -0.4231
    4MOL   H152 1298   3.733   0.008   4.126 -0.6994 -0.4026 -0.8273
    4MOL   H153 1299   3.743   7.914   4.089 -0.4609 -0.8477  1.6376
    4MOL   C154 1300   3.905   8.004   4.200 -0.3988 -0.6198 -0.0620
    4MOL   C155 1301   3.936   0.055   4.279  0.1849  0.7970 -0.0662
    4MOL   C156 1302   3.975   0.056   4.412 -0.1576 -1.0628  0.1696
    4MOL   C157 1303   3.996   0.172   4.488  0.1893 -0.5340  0.0659
    4MOL   C158 1304   3.966   0.300   4.429  0.4035  0.5564  0.4722
    4MOL   C159 1305   3.966   0.418   4.521  0.7011 -0.4441 -0.3034
    4MOL   C160 1306   3.915   0.309   4.294 -0.1783  0.2679 -0.7377
    4MOL   C161 1307   3.906   0.179   4.228 -0.4391  0.2715  0.2850
    4MOL   C162 1308   3.991   8.001   4.066  0.0913  0.3734 -0.3418
    4MOL   H163 1309   3.949   7.932   4.268  2.2237  0.4933 -0.5136
    4MOL   H164 1310   3.991   8.045   4.469  3.6670 -0.9771 -0.6673
    4MOL   H165 1311   4.023   0.169   4.592  0.1763 -1.2996  0.0484
    4MOL   H166 1312   4.050   0.486   4.508  0.7639 -0.7782 -1.7228
    4MOL   H167 1313   3.880   0.482   4.502 -0.2830 -2.5051 -3.2655
    4MOL   H168 1314   3.958   0.393   4.627  0.2660  1.7577  0.2104
    4MOL   H169 1315   3.882   0.396   4.240  0.6983  0.7737 -0.4602
    4MOL   H170 1316   3.873   0.181   4.126 -1.0847 -2.6561  0.3773
    4MOL   H171 1317   4.091   8.039   4.088  0.0789 -0.0637  0.4769
    4MOL   H172 1318   3.944   8.066   3.991 -0.2746 -0.4194 -0.8035
    4MOL   C173 1319   4.011   7.861   4.000 -0.2933 -0.6854  0.8432
    4MOL   C174 1320   4.048   7.754   4.106 -0.4632  0.1109  0.2798
    4MOL   C175 1321   3.956   7.656   4.147  0.0626  0.6956 -0.2814
    4MOL   C176 1322   3.984   7.587   4.269  0.3053 -0.9099 -0.0058
    4MOL   C177 1323   4.100   7.606   4.341  0.0090  0.8635 -0.4172
    4MOL   C178 1324   4.116   7.541   4.479  0.0510 -0.6616  0.6828
    4MOL   C179 1325   4.193   7.705   4.290  0.4890 -0.0652 -0.4774
    4MOL   C180 1326   4.173   7.761   4.167 -0.2360 -0.7404  0.3016
    4MOL   C181 1327   4.119   7.859   3.893 -0.3293 -0.2867 -0.1019
    4MOL   H182 1328   3.915   7.828   3.959  0.0371 -0.5990 -0.0154
    4MOL   H183 1329   3.869   7.634   4.086 -0.8416  0.2250  1.1469
    4MOL   H184 1330   3.912   7.515   4.307 -0.4919 -0.0470  0.1438
    4MOL   H185 1331   4.126   7.433   4.469 -1.2389 -0.7664  0.3612
    4MOL   H186 1332   4.201   7.574   4.539 -0.2006 -1.6640  1.6144
    4MOL   H187 1333   4.024   7.556   4.536  1.1992 -0.4650  2.5016
    4MOL   H188 1334   4.284   7.718   4.347  0.8332 -0.5255 -0.9214
    4MOL   H189 1335   4.249   7.833   4.140 -2.0234  1.6663  1.4524
    4MOL   H190 1336   4.124   7.763   3.841 -2.9619  1.0718 -3.0781
    4MOL   H191 1337   4.211   7.886   3.944 -1.8977  0.8953  2.1904
    4MOL   C192 1338   4.090   7.950   3.773  0.0298  0.2903 -0.3956
    4MOL   C193 1339   3.980   7.897   3.680 -0.1108 -0.6275  0.5984
    4MOL   C194 1340   3.847   7.952   3.690  0.0542 -0.0916  0.3560
    4MOL   C195 1341   3.741   7.900   3.616 -0.6974 -0.6593 -0.1803
    4MOL   C196 1342   3.768   7.799   3.522 -0.0686  0.6870 -0.6649
    4MOL   C197 1343   3.664   7.736   3.433 -0.4620  0.2806  0.3376
    4MOL   C198 1344   3.898   7.747   3.511  0.7857  0.4458 -0.7886
    4MOL   C199 1345   4.009   7.794   3.587  0.6414  1.1757  0.1922
    4MOL   C200 1346   4.215   7.994   3.703  0.2714 -0.3563  0.2090
    4MOL   H201 1347   4.050   8.047   3.803  0.5941  0.6817 -0.8990
    4MOL   H202 1348   3.822   8.034   3.755 -0.3447  1.3680 -1.5898
    4MOL   H203 1349   3.642   7.942   3.623  0.0567  0.9681  0.8577
    4MOL   H204 1350   3.675   7.751   3.325  1.4142  0.0827  0.4799
    4MOL   H205 1351   3.663   7.628   3.441 -0.3660  0.2414 -0.1433
    4MOL   H206 1352   3.562   7.768   3.456 -0.2939  0.2903  1.0796
    4MOL   H207 1353   3.911   7.667   3.439  0.0704  0.3666 -0.8308
    4MOL   H208 1354   4.109   7.762   3.565 -0.4691  0.2610 -3.8949
    4MOL   H209 1355   4.188   8.052   3.614  1.1782 -0.4793 -0.1500
    4MOL   H210 1356   4.268   7.908   3.663  0.2390  0.1012 -0.8468
    4MOL   C211 1357   4.325   8.077   3.782  0.9046 -0.2597  0.3871
    4MOL   C212 1358   4.272   0.140   3.823  0.1942  0.0874 -0.3861
    4MOL   C213 1359   4.248   0.239   3.731 -0.2144 -0.5402  0.4375
    4MOL   C214 1360   4.210   0.373   3.762  0.3858  0.1389  0.0218
    4MOL   C215 1361   4.192   0.405   3.899  0.1820  0.3840  0.2394
    4MOL   C216 1362   4.155   0.545   3.942 -0.1604 -0.1820  0.0772
    4MOL   C217 1363   4.223   0.307   3.995 -0.8617 -0.8875  0.5906
    4MOL   C218 1364   4.263   0.178   3.959 -0.2598  0.0898 -0.3211
    4MOL   C219 1365   4.455   0.016   3.697 -0.4473  0.0533 -0.1902
    4MOL   H220 1366   4.344   8.023   3.875 -1.1418 -2.5991 -0.5022
    4MOL   H221 1367   4.243   0.213   3.626 -1.1283 -1.1174  0.6129
    4MOL   H222 1368   4.193   0.444   3.682  1.1564  0.2676 -0.0281
    4MOL   H223 1369   4.233   0.618   3.924  0.7485 -1.0613  0.4314
    4MOL   H224 1370   4.060   0.572   3.895 -0.4190 -2.5696 -0.8552
    4MOL   H225 1371   4.126   0.543   4.047 -0.9254 -1.8253 -0.1381
    4MOL   H226 1372   4.216   0.350   4.093  2.4530  1.3615 -0.0953
    4MOL   H227 1373   4.274   0.109   4.042  1.8086  0.1875 -0.4933
    4MOL   H228 1374   4.527   0.082   3.744 -0.1046 -1.5578  1.5956
    4MOL   H229 1375   4.438   0.072   3.605  0.4067  1.0599  0.2688
    4MOL   C230 1376   4.534   7.964   3.689  0.0855 -0.2900  0.7692
    4MOL   C231 1377   4.575   7.915   3.834 -0.3604 -0.7712  0.0582
    4MOL   C232 1378   4.620   8.001   3.937  0.3640  0.6911 -0.4306
    4MOL   C233 1379   4.642   7.950   4.068  1.1697  0.2262  0.1294
    4MOL   C234 1380   4.621   7.809   4.101 -0.1981 -0.5402 -0.0542
    4MOL   C235 1381   4.621   7.757   4.242  0.2262 -0.1577  0.5198
    4MOL   C236 1382   4.576   7.730   3.989 -0.4301  0.0688  0.1687
    4MOL   C237 1383   4.557   7.777   3.859 -0.0667 -0.5284 -0.7854
    4MOL   C238 1384   4.665   7.971   3.605  0.4923  0.5981  0.8485
    4MOL   H239 1385   4.478   7.882   3.646  0.1465  0.0534  0.0280
    4MOL   H240 1386   4.628   0.028   3.930  0.0086  0.8410  1.2101
    4MOL   H241 1387   4.661   8.020   4.147 -0.5524  0.7518  0.1080
    4MOL   H242 1388   4.599   7.834   4.316 -0.1959 -0.6281  0.8862
    4MOL   H243 1389   4.555   7.673   4.262 -0.5342  0.4367  0.5191
    4MOL   H244 1390   4.721   7.727   4.272  1.2139  1.6188 -0.9137
    4MOL   H245 1391   4.566   7.623   4.003  0.7743 -0.1208 -0.3539
    4MOL   H246 1392   4.530   7.702   3.786  0.8009 -3.6618  2.0594
    4MOL   H247 1393   4.723   7.881   3.629  0.0778 -0.1991 -1.0375
    4MOL   H248 1394   4.738   8.043   3.643  2.4348 -0.5649 -0.5360
    4MOL   C249 1395   4.660   7.986   3.451 -0.0750  0.0660 -0.0655
    4MOL   C250 1396   4.551   7.896   3.398 -0.0795  0.0492  0.6320
    4MOL   C251 1397   4.577   7.755   3.385  0.1875  0.2246  0.3854
    4MOL   C252 1398   4.481   7.667   3.335  0.3016  0.6946  0.2009
    4MOL   C253 1399   4.353   7.719   3.298 -0.0271 -0.3750  0.3782
    4MOL   C254 1400   4.247   7.634   3.252 -0.8411  0.7260 -0.0414
    4MOL   C255 1401   4.333   7.860   3.298 -0.5963  0.4392  0.2721
    4MOL   C256 1402   4.428   7.954   3.347 -0.3918  0.2233  0.2575
    4MOL   C257 1403   4.796   7.961   3.385 -0.2406 -0.9060  0.3630
    4MOL   H258 1404   4.630   0.009   3.434 -0.7048 -0.2246 -0.7619
    4MOL   H259 1405   4.667   7.709   3.422  1.0061  0.9190 -0.6875
    4MOL   H260 1406   4.496   7.560   3.334 -2.9383  0.1806  1.7228
    4MOL   H261 1407   4.176   7.631   3.334  1.9011  1.1712  2.4468
    4MOL   H262 1408   4.205   7.681   3.163 -2.7637 -1.7464 -0.4763
    4MOL   H263 1409   4.279   7.533   3.228 -0.3593  0.7320  0.5685
    4MOL   H264 1410   4.246   7.893   3.243 -0.7783  1.5466  1.2151
    4MOL   H265 1411   4.411   8.061   3.348  1.1892  0.4932  0.0656
    4MOL   H266 1412   4.824   7.856   3.384  2.5815 -0.1964 -1.2553
    4MOL   H267 1413   4.879   8.018   3.428 -0.9213  1.0648 -0.8905
    4MOL   C268 1414   4.797   7.997   3.231  0.0940  0.9995 -0.4642
    4MOL   C269 1415   4.851   7.886   3.150  0.3530 -0.0645 -0.4711
    4MOL   C270 1416   4.991   7.850   3.143 -0.2280 -0.0803  0.3607
    4MOL   C271 1417   5.031   7.749   3.061 -0.4498  0.1639 -0.0362
    4MOL   C272 1418   4.944   7.684   2.972 -0.1191 -0.6779 -0.1248
    4MOL   C273 1419   4.996   7.583   2.865  0.9508 -0.1508 -0.2498
    4MOL   C274 1420   4.808   7.713   2.983 -0.4428 -0.3160  0.7003
    4MOL   C275 1421   4.768   7.816   3.067  0.0986  0.4434  0.6251
    4MOL   C276 1422   4.869   0.046   3.193 -0.0200 -0.1412 -0.6400
    4MOL   H277 1423   4.692   8.015   3.211  0.0322  2.3647  0.9711
    4MOL   H278 1424   5.058   7.911   3.201  1.2807  0.0926 -1.5256
    4MOL   H279 1425   5.134   7.717   3.057 -0.8534 -1.3898  1.7357
    4MOL   H280 1426   5.083   7.524   2.894 -0.6185 -1.4734  1.8866
    4MOL   H281 1427   4.916   7.512   2.848 -0.5662  1.4327  0.0842
    4MOL   H282 1428   5.032   7.633   2.775  2.2500 -0.6231 -0.0119
    4MOL   H283 1429   4.742   7.660   2.915  1.0791  0.1616 -1.2023
    4MOL   H284 1430   4.661   7.825   3.077 -0.0771 -0.7179 -0.1812
    4MOL   H285 1431   4.874   0.066   3.086 -2.6292 -0.5892 -0.8845
    4MOL   H286 1432   4.974   0.046   3.222 -0.4569  0.6777  1.0707
    4MOL   C287 1433   4.816   0.176   3.267 -0.1638  0.5510  0.6245
    4MOL   C288 1434   4.670   0.220   3.240  0.0530  0.7998  0.3591
    4MOL   C289 1435   4.589   0.270   3.348  0.4742  0.0624  0.7711
    4MOL   C290 1436   4.456   0.311   3.323 -0.0059  0.0388  0.2765
    4MOL   C291 1437   4.409   0.306   3.189 -0.2326  0.3747  0.2964
    4MOL   C292 1438   4.265   0.349   3.150  0.3925  0.6257  0.6452
    4MOL   C293 1439   4.487   0.260   3.085 -0.4668  0.8347 -0.0204
    4MOL   C294 1440   4.617   0.210   3.109  0.6053  0.0697  0.0147
    4MOL   C295 1441   4.918   0.295   3.256  0.3251  0.3134  0.0425
    4MOL   H296 1442   4.826   0.160   3.374  3.7756  0.4584  0.3203
    4MOL   H297 1443   4.618   0.269   3.452 -0.1534  0.8629  0.9620
    4MOL   H298 1444   4.393   0.340   3.406 -0.6623 -0.1387 -0.1539
    4MOL   H299 1445   4.210   0.261   3.118  0.0795  0.8050  0.6916
    4MOL   H300 1446   4.206   0.379   3.237 -0.6405  2.5860 -0.7009
    4MOL   H301 1447   4.252   0.430   3.078  0.5448 -0.6451 -0.8309
    4MOL   H302 1448   4.454   0.262   2.982  1.3499  2.3403 -0.6147
    4MOL   H303 1449   4.678   0.164   3.033  0.8286  1.3541 -0.6113
    4MOL   H304 1450   4.869   0.381   3.303 -0.5365 -0.3101  0.2897
    4MOL   H305 1451   4.929   0.326   3.152 -1.0537 -0.8841 -0.4624
    4MOL   C306 1452   5.059   0.270   3.329  0.8727  0.0287  0.2089
    4MOL   C307 1453   5.051   0.213   3.474  0.0794  0.4769  0.1968
    4MOL   C308 1454   5.108   0.091   3.510  0.6166 -0.6070  0.9163
    4MOL   C309 1455   5.076   0.025   3.630 -0.8235 -0.1895  0.5039
    4MOL   C310 1456   4.985   0.087   3.712  0.2066 -0.3591  1.4489
    4MOL   C311 1457   4.938   0.007   3.830  0.1294 -0.0792 -0.7708
    4MOL   C312 1458   4.936   0.216   3.687 -0.5634  0.7736  0.4705
    4MOL   C313 1459   4.961   0.279   3.567  0.1795 -0.9601  0.3476
    4MOL   C314 1460   5.145   0.399   3.336 -0.1560 -0.1453  0.4628
    4MOL   H315 1461   5.097   0.195   3.259 -0.5715 -0.9300  0.4300
    4MOL   H316 1462   5.176   0.038   3.445  1.9263 -1.0784  2.6357
    4MOL   H317 1463   5.124   8.013   3.658  0.7597 -0.2032 -2.1286
    4MOL   H318 1464   5.018   8.060   3.900 -1.3118  0.3505  1.0916
    4MOL   H319 1465   4.873   0.064   3.896  1.1361  1.8644 -1.4111
    4MOL   H320 1466   4.894   7.990   3.807 -0.0596  0.6980 -3.8940
    4MOL   H321 1467   4.864   0.268   3.748 -0.0137  0.9526  0.9716
    4MOL   H322 1468   4.916   0.376   3.554  1.2881 -0.0505  2.9057
    4MOL   H323 1469   5.105   0.458   3.418 -1.0569  1.0912 -0.8333
    4MOL   H324 1470   5.131   0.461   3.247  2.2984 -1.6606 -1.0371
    4MOL   C325 1471   5.295   0.385   3.363 -0.8576 -0.4916 -0.1169
    4MOL   C326 1472   5.346   0.500   3.449  0.5273  0.4830 -0.8145
    4MOL   C327 1473   5.332   0.499   3.592  0.2430  0.6970  0.2202
    4MOL   C328 1474   5.364   0.609   3.670 -0.2009  0.2264  0.5601
    4MOL   C329 1475   5.432   0.718   3.608 -0.7260  0.3018 -0.3397
    4MOL   C330 1476   5.498   0.829   3.689 -0.7203 -0.0627 -0.3446
    4MOL   C331 1477   5.458   0.712   3.473  0.0186  0.3043 -0.6365
    4MOL   C332 1478   5.411   0.609   3.387 -0.3689 -0.5983 -0.0167
    4MOL   C333 1479   5.378   0.365   3.232 -0.3515 -0.0061 -0.4542
    4MOL   H334 1480   5.302   0.291   3.417 -0.3464  0.3016  1.2221
    4MOL   H335 1481   5.296   0.413   3.647  2.1258 -1.3554 -1.6250
    4MOL   H336 1482   5.338   0.602   3.774 -2.2609 -0.3686  0.0245
    4MOL   H337 1483   5.457   0.836   3.790  0.2106  2.2713 -0.1097
    4MOL   H338 1484   5.603   0.805   3.706 -1.3503 -1.6922  1.5828
    4MOL   H339 1485   5.483   0.924   3.638  2.8986  1.2008  0.8323
    4MOL   H340 1486   5.519   0.792   3.433 -0.0197 -0.5565 -2.4255
    4MOL   H341 1487   5.424   0.607   3.279 -0.6281  0.7441 -0.0853
    4MOL   H342 1488   5.487   0.364   3.244 -0.5125 -2.2273  1.1352
    4MOL   H343 1489   5.352   0.433   3.150  0.0293  1.2040  0.4192
    4MOL   C344 1490   5.355   0.233   3.166 -0.1053 -0.4252  0.3775
    4MOL   C345 1491   5.375   0.106   3.247  0.2929  0.3801 -0.5756
    4MOL   C346 1492   5.305   8.067   3.213  0.5779 -0.1156  0.0452
    4MOL   C347 1493   5.320   7.954   3.295 -0.3811 -0.2906  0.2760
    4MOL   C348 1494   5.398   7.950   3.411  0.0058 -0.1616 -0.1675
    4MOL   C349 1495   5.429   7.824   3.496  0.1413 -0.0047  0.6944
    4MOL   C350 1496   5.469   8.071   3.447 -0.3573 -0.1919  0.7325
    4MOL   C351 1497   5.455   0.105   3.360 -0.0232 -0.6941 -0.1536
    4MOL   C352 1498   5.440   0.212   3.034  0.4730 -0.0223 -0.3714
    4MOL   H353 1499   5.254   0.235   3.125 -0.5327  1.8817  1.4867
    4MOL   H354 1500   5.247   8.059   3.122 -0.4939  1.2025  0.6128
    4MOL   H355 1501   5.265   7.865   3.265  2.8319 -1.5639 -2.1401
    4MOL   H356 1502   5.381   7.843   3.592  1.4412  0.3968  1.2773
    4MOL   H357 1503   5.382   7.735   3.455 -0.0955  0.3885  0.0871
    4MOL   H358 1504   5.537   7.821   3.514  0.2847 -0.1551 -0.1671
    4MOL   H359 1505   5.530   0.005   3.535 -1.0103  3.5171  0.7021
    4MOL   H360 1506   5.496   0.195   3.402 -0.1241 -1.5607  1.8648
    4MOL   H361 1507   5.423   0.106   3.013 -2.2263  0.3733 -0.3941
    4MOL   H362 1508   5.545   0.223   3.062 -0.5312  0.7523  3.2905
    4MOL   C363 1509   5.414   0.314   2.917 -0.7302  0.0201 -0.0971
    4MOL   C364 1510   5.265   0.331   2.882 -0.3052 -0.0946  0.4632
    4MOL   C365 1511   5.201   0.460   2.872  0.5895  0.1115 -0.1825
    4MOL   C366 1512   5.057   0.471   2.855  0.5294 -0.5137  0.5794
    4MOL   C367 1513   4.986   0.352   2.833  0.6671 -0.2627 -0.6806
    4MOL   C368 1514   4.836   0.359   2.822 -0.1266  0.3540 -0.0236
    4MOL   C369 1515   5.046   0.226   2.831 -0.7759  0.1220  0.0093
    4MOL   C370 1516   5.185   0.216   2.849  0.0914 -0.1975 -0.0384
    4MOL   C371 1517   5.490   0.276   2.788  0.2746  0.6336  0.3521
    4MOL   H372 1518   5.452   0.411   2.949  0.1411 -0.2957 -0.1716
    4MOL   H373 1519   5.260   0.549   2.885  1.1158 -0.0674 -1.3098
    4MOL   H374 1520   5.013   0.569   2.853 -1.6663 -1.4899 -0.2072
    4MOL   H375 1521   4.787   0.330   2.915 -3.1397 -0.9973 -1.9678
    4MOL   H376 1522   4.814   0.461   2.788  1.2498  0.2909 -1.1494
    4MOL   H377 1523   4.804   0.291   2.743 -0.3705  1.0534 -0.5327
    4MOL   H378 1524   4.995   0.131   2.820  0.8560 -0.7494 -0.1850
    4MOL   H379 1525   5.231   0.120   2.868  0.0745  0.0287  1.1983
    4MOL   H380 1526   5.452   0.190   2.733 -0.3035  2.8197 -2.7631
    4MOL   H381 1527   5.594   0.251   2.808 -0.8800 -2.0840  3.5588
    4MOL   H382 1528   5.478   0.371   2.736  0.2421  2.1921  3.0734
    5MOL     C1 1529   7.296   7.637   6.991 -0.1817  0.1203 -0.5276
    5MOL     C2 1530   7.253   7.510   7.065 -0.5709  0.3045  0.7401
    5MOL     C3 1531   7.120   7.476   7.058 -0.7061  0.0795 -0.0169
    5MOL     C4 1532   7.069   7.360   7.122 -0.0655  1.1347  0.4004
    5MOL     C5 1533   7.154   7.292   7.215  0.8075 -0.2151  0.3301
    5MOL     C6 1534   7.105   7.168   7.294 -0.1388 -0.6010 -0.6904
    5MOL     C7 1535   7.290   7.333   7.226 -0.1143  0.4254  0.0848
    5MOL     C8 1536   7.341   7.437   7.146 -0.5211  0.2285 -0.0207
    5MOL     C9 1537   7.365   7.603   6.855  0.9765  0.0237 -0.1758
    5MOL    H10 1538   7.212   7.704   6.978 -0.0943  0.5303  0.9624
    5MOL    H11 1539   7.054   7.543   7.006 -2.3245 -1.8120 -0.4752
    5MOL    H12 1540   6.971   7.325   7.095  0.1263 -0.5329  1.7648
    5MOL    H13 1541   7.118   7.176   7.402 -1.0038 -0.6079 -0.5846
    5MOL    H14 1542   7.000   7.154   7.267 -0.8150  0.5499  1.2464
    5MOL    H15 1543   7.164   7.081   7.264  0.4148 -0.1259 -0.9776
    5MOL    H16 1544   7.356   7.276   7.291 -0.8464  0.7775  1.1514
    5MOL    H17 1545   7.444   7.471   7.153 -0.4528  0.2584 -1.1821
    5MOL    H18 1546   7.302   7.530   6.805  2.0269 -1.1284  0.1542
    5MOL    H19 1547   7.458   7.547   6.867  0.2448 -0.7041  2.3771
    5MOL    H20 1548   7.379   7.681   7.045  0.5328 -3.0064  1.0796
    5MOL    C21 1549   7.383   7.731   6.766 -0.4339  0.1770  0.7041
    5MOL    C22 1550   7.436   7.688   6.631 -1.2275  0.2515  0.3236
    5MOL    C23 1551   7.353   7.692   6.520 -0.7925  0.3328  0.1465
    5MOL    C24 1552   7.404   7.643   6.398 -0.3300  0.6302  0.4636
    5MOL    C25 1553   7.531   7.589   6.388 -0.1153 -0.1449 -0.0869
    5MOL    C26 1554   7.576   7.534   6.252  0.1378 -0.1004  0.1495
    5MOL    C27 1555   7.619   7.596   6.500  0.6706 -0.6687  1.1748
    5MOL    C28 1556   7.566   7.641   6.625 -0.0838  0.0227 -0.1440
    5MOL    C29 1557   7.480   7.835   6.834  0.7884  0.6422  0.0244
    5MOL    H30 1558   7.282   7.772   6.759  0.2590  1.8061 -0.2223
    5MOL    H31 1559   7.255   7.736   6.517 -1.7374 -1.8018 -2.4715
    5MOL    H32 1560   7.348   7.637   6.305  0.8219  1.0453 -0.2727
    5MOL    H33 1561   7.503   7.477   6.195  0.1782  1.3677 -1.3967
    5MOL    H34 1562   7.615   7.613   6.188  0.0411 -0.7973 -0.7703
    5MOL    H35 1563   7.659   7.467   6.275  0.2091 -0.0261  0.1093
    5MOL    H36 1564   7.716   7.551   6.485 -0.2729 -2.1228 -0.8588
    5MOL    H37 1565   7.626   7.630   6.715 -0.6847  0.8495  0.3567
    5MOL    H38 1566   7.576   7.786   6.847  1.6650  2.5861  1.0564
    5MOL    H39 1567   7.438   7.864   6.931 -2.6566 -0.3472 -1.1009
    5MOL    C40 1568   7.502   7.971   6.763  0.6560 -0.4496  0.1789
    5MOL    C41 1569   7.612   8.046   6.839 -0.5071  0.2439  0.7502
    5MOL    C42 1570   7.717   0.009   6.761  0.0836 -0.1648 -0.0886
    5MOL    C43 1571   7.822   0.089   6.819  0.0223  0.1171  0.6969
    5MOL    C44 1572   7.814   0.130   6.958  0.4848  0.0554 -0.1051
    5MOL    C45 1573   7.917   0.214   7.023 -0.9551  0.4138 -0.1841
    5MOL    C46 1574   7.710   0.078   7.036  0.7015 -0.1184  0.6629
    5MOL    C47 1575   7.603   0.001   6.974 -0.2561 -0.4240 -0.0979
    5MOL    C48 1576   7.379   8.066   6.759 -0.2300  0.1086 -0.0032
    5MOL    H49 1577   7.528   7.941   6.662 -0.9593  1.2801 -0.7987
    5MOL    H50 1578   7.728   8.066   6.657 -0.9441 -1.5756  0.0926
    5MOL    H51 1579   7.896   0.133   6.754 -2.3649  2.6019 -0.4527
    5MOL    H52 1580   7.990   0.156   7.078 -0.8013 -0.0848 -0.9024
    5MOL    H53 1581   7.963   0.270   6.942  1.0220  0.9187  1.2637
    5MOL    H54 1582   7.870   0.271   7.103 -2.9525  0.5459 -1.4020
    5MOL    H55 1583   7.695   0.109   7.138 -1.4751  3.0800 -0.5537
    5MOL    H56 1584   7.519   8.045   7.032 -1.7789  0.6614 -1.5846
    5MOL    H57 1585   7.391   0.074   6.821  2.2915 -0.6746  0.6995
    5MOL    H58 1586   7.292   8.016   6.802 -0.5603  0.4190 -0.3107
    5MOL    C59 1587   7.327   0.020   6.618 -0.7407 -0.2547  0.3256
    5MOL    C60 1588   7.422   0.108   6.539 -0.1911 -0.3986 -0.2174
    5MOL    C61 1589   7.449   0.070   6.408 -0.2388 -0.0736  0.0111
    5MOL    C62 1590   7.521   0.156   6.327 -0.0563 -0.7808 -0.2211
    5MOL    C63 1591   7.586   0.268   6.381 -0.3584 -0.2701 -0.0186
    5MOL    C64 1592   7.683   0.353   6.295  0.1123 -0.3059 -0.6115
    5MOL    C65 1593   7.567   0.302   6.518  0.1184 -0.0995 -0.3074
    5MOL    C66 1594   7.476   0.228   6.594  0.3622  0.1380 -0.0083
    5MOL    C67 1595   7.195   0.095   6.622  0.0513  0.1005  0.0458
    5MOL    H68 1596   7.308   8.002   6.575 -0.3696  1.0881 -3.0735
    5MOL    H69 1597   7.403   8.064   6.362 -2.4277 -0.5194  2.8649
    5MOL    H70 1598   7.545   0.138   6.224 -0.4884  0.0186 -0.4638
    5MOL    H71 1599   7.721   0.285   6.218  0.5093  1.0742 -1.6512
    5MOL    H72 1600   7.627   0.428   6.239 -1.9098 -1.9317 -0.8516
    5MOL    H73 1601   7.770   0.395   6.345 -1.4571  1.8834  0.3315
    5MOL    H74 1602   7.618   0.383   6.568 -0.7152  0.2315  0.0230
    5MOL    H75 1603   7.464   0.266   6.695 -2.0672 -0.6737  0.0372
    5MOL    H76 1604   7.169   0.132   6.523 -0.9382 -1.6108 -0.3725
    5MOL    H77 1605   7.205   0.185   6.681  1.1207 -1.0180  1.6043
    5MOL    C78 1606   7.068   0.006   6.679  0.6220  0.1045 -0.7186
    5MOL    C79 1607   6.994   8.023   6.555  0.7212  0.1059 -0.3541
    5MOL    C80 1608   7.035   7.897   6.511  0.1107  0.0017 -0.0005
    5MOL    C81 1609   6.974   7.834   6.397  0.5732 -0.2073  0.4735
    5MOL    C82 1610   6.891   7.909   6.312  0.1224 -0.0399 -0.2290
    5MOL    C83 1611   6.830   7.852   6.194  0.0009 -0.7166  0.1389
    5MOL    C84 1612   6.854   8.040   6.357 -0.0111 -0.1410 -0.1061
    5MOL    C85 1613   6.905   0.019   6.473 -0.0431  0.2920  0.1187
    5MOL    C86 1614   6.981   0.087   6.772 -0.0030 -0.1037  0.5763
    5MOL    H87 1615   7.090   7.999   6.741 -1.0606  0.2963  0.1724
    5MOL    H88 1616   7.093   7.835   6.578 -0.2640  0.0973  0.4148
    5MOL    H89 1617   7.009   7.735   6.373  1.5128  0.1125  0.5201
    5MOL    H90 1618   6.725   7.826   6.210 -0.3499  0.9824  0.8320
    5MOL    H91 1619   6.844   7.906   6.101  3.0289 -2.2633 -0.3406
    5MOL    H92 1620   6.875   7.757   6.168  1.6930  0.7782 -2.6525
    5MOL    H93 1621   6.780   0.008   6.294  1.8667  1.9376 -0.7718
    5MOL    H94 1622   6.890   0.122   6.502 -0.0512  0.3469 -0.0828
    5MOL    H95 1623   6.882   0.041   6.770 -0.8564  1.6959  0.2460
    5MOL    H96 1624   6.966   0.190   6.739  1.6022 -0.4042 -1.2374
    5MOL    C97 1625   7.040   0.102   6.915 -0.0027  0.1444  0.6894
    5MOL    C98 1626   7.060   8.058   7.007  0.4478  0.3050  0.2935
    5MOL    C99 1627   7.187   8.031   7.063 -0.0460  0.0748  0.1443
    5MOL   C100 1628   7.197   7.933   7.163 -0.4423 -0.0976 -0.0208
    5MOL   C101 1629   7.089   7.864   7.200  0.8498 -0.0794 -0.1010
    5MOL   C102 1630   7.105   7.759   7.302  0.0301 -0.1298 -0.7500
    5MOL   C103 1631   6.960   7.883   7.132 -0.9104  0.5975  0.5107
    5MOL   C104 1632   6.943   7.980   7.028  0.9949  0.6254  0.4749
    5MOL   C105 1633   6.958   0.205   6.993  0.0144  0.6192 -0.2013
    5MOL   H106 1634   7.143   0.134   6.899  0.0449  0.6329  1.9222
    5MOL   H107 1635   7.273   0.016   7.055 -0.1032  0.4864  2.4352
    5MOL   H108 1636   7.286   7.914   7.221  0.2764  0.3283 -0.9651
    5MOL   H109 1637   7.017   7.697   7.317  0.2851 -0.1998  0.6104
    5MOL   H110 1638   7.182   7.685   7.280  0.6669 -0.0235  1.0287
    5MOL   H111 1639   7.125   7.796   7.403  0.1886  0.1374 -0.8766
    5MOL   H112 1640   6.873   7.821   7.149 -0.9332  0.2483 -0.7654
    5MOL   H113 1641   6.842   7.993   6.990  0.5930 -1.0141  0.9323
    5MOL   H114 1642   6.986   0.182   7.096 -0.8228  2.2070  0.3950
    5MOL   H115 1643   6.851   0.183   6.986  0.4999 -3.0966  2.5865
    5MOL   C116 1644   6.999   0.355   6.981 -0.3343 -0.1038 -0.3566
    5MOL   C117 1645   7.154   0.377   6.985  0.4483  0.0680 -0.4428
    5MOL   C118 1646   7.236   0.312   7.083 -0.0325 -0.2143  0.5285
    5MOL   C119 1647   7.377   0.326   7.086 -0.3662  0.4879 -0.1263
    5MOL   C120 1648   7.442   0.415   6.994 -0.7265  0.5680  0.0035
    5MOL   C121 1649   7.595   0.431   6.999  0.2350 -0.3621  0.1501
    5MOL   C122 1650   7.367   0.476   6.898 -0.2370  0.1327  0.2597
    5MOL   C123 1651   7.224   0.453   6.887 -0.0125  0.3552  0.6798
    5MOL   C124 1652   6.930   0.447   7.086 -0.1054  0.0796  0.7641
    5MOL   H125 1653   6.962   0.393   6.885 -2.0271 -0.8530 -0.0187
    5MOL   H126 1654   7.194   0.246   7.158  0.2122  0.4780  1.2799
    5MOL   H127 1655   7.439   0.278   7.159 -0.4244 -0.9332 -0.9993
    5MOL   H128 1656   7.643   0.384   7.085 -0.1449  1.0998  1.1784
    5MOL   H129 1657   7.637   0.408   6.901 -0.8740  1.0921 -0.6787
    5MOL   H130 1658   7.607   0.536   7.022 -1.6248 -0.5044  1.9206
    5MOL   H131 1659   7.408   0.533   6.816 -2.0969  0.5528 -0.3952
    5MOL   H132 1660   7.159   0.492   6.810  0.0789 -1.2655 -0.2441
    5MOL   H133 1661   6.991   0.537   7.084 -1.2968  0.8778 -1.7461
    5MOL   H134 1662   6.948   0.413   7.188 -1.3665  0.6940  1.2010
    5MOL   C135 1663   6.781   0.476   7.054  0.0410  0.3656  0.1993
    5MOL   C136 1664   6.762   0.629   7.028 -0.3682 -0.3568 -0.4281
    5MOL   C137 1665   6.735   0.719   7.132 -0.0295  0.8576 -0.6726
    5MOL   C138 1666   6.728   0.860   7.107 -0.0719  0.8269  0.1877
    5MOL   C139 1667   6.726   0.898   6.971  0.1696 -0.3475  0.3334
    5MOL   C140 1668   6.716   1.046   6.938  0.2149 -0.2921 -0.4856
    5MOL   C141 1669   6.747   0.811   6.867  0.1553  0.0328 -0.1369
    5MOL   C142 1670   6.777   0.674   6.895 -0.3008  0.3749 -0.1225
    5MOL   C143 1671   6.680   0.430   7.164 -0.0930 -0.8928  0.4190
    5MOL   H144 1672   6.757   0.432   6.957  0.9291  1.7169 -0.6509
    5MOL   H145 1673   6.728   0.691   7.236 -0.2136 -1.5746 -1.2984
    5MOL   H146 1674   6.712   0.933   7.184  1.7994  1.1589  0.2653
    5MOL   H147 1675   6.782   1.053   6.852 -0.8318  0.5472 -1.2420
    5MOL   H148 1676   6.615   1.070   6.902  0.8564  3.3071 -0.1018
    5MOL   H149 1677   6.754   1.106   7.020 -0.1324  0.1385 -0.6367
    5MOL   H150 1678   6.740   0.846   6.765 -2.1931 -0.8057 -0.3005
    5MOL   H151 1679   6.804   0.608   6.814  2.8920  1.2098  0.1953
    5MOL   H152 1680   6.585   0.481   7.147  0.3581 -0.0951  0.2844
    5MOL   H153 1681   6.701   0.473   7.262 -2.1921  2.2159 -0.4294
    5MOL   C154 1682   6.638   0.283   7.179  0.5657 -0.3831 -0.0926
    5MOL   C155 1683   6.557   0.238   7.057  0.3924  0.1640  0.3598
    5MOL   C156 1684   6.569   0.112   7.012 -0.5964  0.1201  0.1793
    5MOL   C157 1685   6.488   0.064   6.906  0.0479  0.0541 -0.6863
    5MOL   C158 1686   6.391   0.142   6.850 -0.5621  0.1320 -0.8725
    5MOL   C159 1687   6.294   0.081   6.752  0.3614 -0.1656 -0.2758
    5MOL   C160 1688   6.369   0.273   6.901  0.0175  0.4498  0.5966
    5MOL   C161 1689   6.458   0.317   7.002 -0.0490 -0.3072 -0.1663
    5MOL   C162 1690   6.554   0.256   7.301  0.4213 -0.4698 -0.0628
    5MOL   H163 1691   6.725   0.217   7.181  0.0247 -1.1386 -0.7932
    5MOL   H164 1692   6.637   0.044   7.061 -1.7477 -1.1782  0.0212
    5MOL   H165 1693   6.513   8.045   6.871 -0.7925 -0.2123 -0.5390
    5MOL   H166 1694   6.331   0.102   6.652 -1.4685  0.2517 -0.8818
    5MOL   H167 1695   6.293   8.052   6.761 -0.3057 -0.0157  1.7642
    5MOL   H168 1696   6.194   0.120   6.768 -0.3520 -1.7604 -0.7508
    5MOL   H169 1697   6.287   0.336   6.870  0.2623  0.4067 -0.1390
    5MOL   H170 1698   6.440   0.414   7.046  0.0764 -1.1664  1.8768
    5MOL   H171 1699   6.520   0.152   7.295  1.2371 -0.6893 -0.8151
    5MOL   H172 1700   6.466   0.321   7.303  0.1514 -0.8494  0.4753
    5MOL   C173 1701   6.616   0.267   7.443 -0.1450 -0.4060  0.3127
    5MOL   C174 1702   6.762   0.214   7.442  0.1894 -0.3637  0.0055
    5MOL   C175 1703   6.783   0.080   7.406  0.4815  0.0460  0.9625
    5MOL   C176 1704   6.913   0.025   7.402 -0.3316 -0.9372  0.2974
    5MOL   C177 1705   7.023   0.112   7.439  0.4843 -0.5863 -0.4582
    5MOL   C178 1706   7.163   0.058   7.437  0.3920  0.2622  0.1414
    5MOL   C179 1707   6.998   0.248   7.486  0.0295  0.2037  0.1025
    5MOL   C180 1708   6.868   0.302   7.480 -0.3947  0.3407  0.2933
    5MOL   C181 1709   6.517   0.208   7.551 -0.0189 -0.0309 -0.1605
    5MOL   H182 1710   6.633   0.371   7.473 -1.8287  0.5677 -1.9641
    5MOL   H183 1711   6.694   0.027   7.374  0.5956 -0.1835  1.0229
    5MOL   H184 1712   6.916   8.005   7.363 -0.1283 -0.1831 -1.6935
    5MOL   H185 1713   7.217   0.122   7.367  0.1951  0.7255  0.4070
    5MOL   H186 1714   7.214   0.078   7.531 -0.1550  1.1665  0.2597
    5MOL   H187 1715   7.171   8.031   7.417  1.3623  0.0909  1.4062
    5MOL   H188 1716   7.078   0.310   7.522  0.4811 -0.7812  0.8070
    5MOL   H189 1717   6.854   0.400   7.523 -1.3491  0.8627 -1.1653
    5MOL   H190 1718   6.498   0.104   7.523  0.0413  0.7396 -3.1988
    5MOL   H191 1719   6.416   0.247   7.542  0.0698 -0.1920 -1.9515
    5MOL   C192 1720   6.566   0.201   7.696 -0.1345 -0.6991 -0.2220
    5MOL   C193 1721   6.470   0.120   7.774 -0.4080 -0.5794 -0.1727
    5MOL   C194 1722   6.506   8.069   7.807  0.1974 -0.2580 -0.2804
    5MOL   C195 1723   6.423   7.996   7.885  0.0619 -0.2251 -0.1171
    5MOL   C196 1724   6.293   8.047   7.919 -0.2683 -0.2745  0.3576
    5MOL   C197 1725   6.182   7.969   7.994 -0.9284  0.1306  0.0024
    5MOL   C198 1726   6.252   0.099   7.884  0.0113 -0.6734 -0.4063
    5MOL   C199 1727   6.341   0.174   7.808 -0.3822  0.1088 -0.3357
    5MOL   C200 1728   6.589   0.345   7.753 -0.4201  0.0994  0.5032
    5MOL   H201 1729   6.663   0.151   7.687  0.1006 -0.1559 -0.7388
    5MOL   H202 1730   6.603   8.028   7.782  0.8744  1.4626 -0.5054
    5MOL   H203 1731   6.453   7.901   7.927 -0.4211  0.8025  2.7050
    5MOL   H204 1732   6.185   7.860   7.991 -0.3883  0.0780  1.6907
    5MOL   H205 1733   6.194   7.990   0.020  1.8640 -0.4347 -0.1521
    5MOL   H206 1734   6.082   8.004   7.970 -1.0502 -0.1534  0.1014
    5MOL   H207 1735   6.153   0.141   7.895  0.5766  0.3306  1.0643
    5MOL   H208 1736   6.323   0.278   7.785  0.1275  0.6559  1.5934
    5MOL   H209 1737   6.502   0.411   7.744  0.0271  0.8043  1.2986
    5MOL   H210 1738   6.664   0.388   7.688 -0.7622 -1.1153 -0.7152
    5MOL   C211 1739   6.652   0.364   7.893 -0.0090 -0.3593 -0.1437
    5MOL   C212 1740   6.804   0.330   7.885  0.8873 -0.8259  0.0787
    5MOL   C213 1741   6.899   0.424   7.843  0.2921  0.1908  0.1675
    5MOL   C214 1742   7.038   0.393   7.855  0.2756 -0.0593  0.5794
    5MOL   C215 1743   7.080   0.267   7.898 -0.6180  0.8641  0.4989
    5MOL   C216 1744   7.225   0.227   7.889  0.1316 -0.3228 -0.6702
    5MOL   C217 1745   6.982   0.172   7.937  0.4070 -0.6796  0.0690
    5MOL   C218 1746   6.843   0.201   7.933  0.2842 -0.1492 -0.3009
    5MOL   C219 1747   6.574   0.311   8.018 -0.1416 -0.2782  0.6983
    5MOL   H220 1748   6.654   0.472   7.903  1.3539 -0.6144  2.7966
    5MOL   H221 1749   6.874   0.524   7.810 -0.8448 -0.2177 -0.2142
    5MOL   H222 1750   7.113   0.470   7.842  1.7277 -1.5069  0.3232
    5MOL   H223 1751   7.277   0.295   7.822  0.3930  0.4251  0.2824
    5MOL   H224 1752   7.267   0.262   7.983  1.5737 -1.8939 -0.7107
    5MOL   H225 1753   7.248   0.123   7.867 -1.7522 -1.4260  2.1870
    5MOL   H226 1754   7.020   0.077   7.969 -0.2927 -0.6019  1.1408
    5MOL   H227 1755   6.771   0.125   7.959 -0.1604  0.2680 -0.2976
    5MOL   H228 1756   6.571   0.203   8.007 -1.9573 -0.3182  1.2762
    5MOL   H229 1757   6.470   0.330   7.992 -0.3757  0.0843  1.8576
    5MOL   C230 1758   6.604   0.361   0.078 -0.0060  0.4704  0.2205
    5MOL   C231 1759   6.631   0.246   0.177 -0.5193 -0.3025 -0.0701
    5MOL   C232 1760   6.526   0.171   0.234  0.7348  0.3128 -0.1940
    5MOL   C233 1761   6.551   0.067   0.329  0.0047  0.3759 -0.5615
    5MOL   C234 1762   6.684   0.027   0.359  0.4311 -0.4446 -0.8375
    5MOL   C235 1763   6.708   7.999   0.466  0.0234  0.1491  0.1331
    5MOL   C236 1764   6.790   0.096   0.297  0.1147  0.4129 -0.9332
    5MOL   C237 1765   6.762   0.201   0.204  0.0351 -0.0308 -0.4440
    5MOL   C238 1766   6.483   0.446   0.121 -0.0072  0.2350 -0.3581
    5MOL   H239 1767   6.691   0.426   0.078  0.3757 -0.0207  1.2589
    5MOL   H240 1768   6.425   0.203   0.214  0.1414 -2.0470 -1.2230
    5MOL   H241 1769   6.475   0.013   0.384  0.3487  1.8620  1.4321
    5MOL   H242 1770   6.676   8.031   0.566  1.0564  1.6121  0.0177
    5MOL   H243 1771   6.639   7.921   0.434  0.4565 -0.2124  0.0929
    5MOL   H244 1772   6.813   7.974   0.453 -0.0213  0.3501 -0.6126
    5MOL   H245 1773   6.893   0.070   0.314  0.2403  2.8584  2.5920
    5MOL   H246 1774   6.839   0.254   0.151 -0.5511 -0.2025 -1.4895
    5MOL   H247 1775   6.483   0.452   0.230  2.4438  0.9638 -0.3716
    5MOL   H248 1776   6.389   0.394   0.102  1.1753 -1.7345 -0.9604
    5MOL   C249 1777   6.486   0.587   0.056 -0.1525  0.2553  0.1251
    5MOL   C250 1778   6.615   0.662   0.090  0.3327  0.0277 -0.2618
    5MOL   C251 1779   6.700   0.697   8.064 -0.1264 -0.4520  0.0925
    5MOL   C252 1780   6.817   0.773   0.013  0.1843  0.2311 -0.3326
    5MOL   C253 1781   6.852   0.814   0.142  0.0139 -0.3690  0.1997
    5MOL   C254 1782   6.984   0.888   0.164  0.0831 -0.0522  0.0618
    5MOL   C255 1783   6.775   0.757   0.252 -0.9461 -0.4153 -0.2502
    5MOL   C256 1784   6.655   0.691   0.224  0.1654 -0.5468  0.9841
    5MOL   C257 1785   6.365   0.670   0.100  0.5751  0.0069 -0.1688
    5MOL   H258 1786   6.481   0.575   8.028 -0.7395 -2.1675  0.3810
    5MOL   H259 1787   6.673   0.668   7.964  2.4085  0.5976 -0.9542
    5MOL   H260 1788   6.871   0.812   8.008 -1.2849  1.2622 -0.8236
    5MOL   H261 1789   6.985   0.977   0.102 -0.3343 -0.8989 -1.1817
    5MOL   H262 1790   7.001   0.923   0.266  1.4369 -0.1955 -0.1159
    5MOL   H263 1791   7.072   0.831   0.135 -0.3827  0.6228 -2.7778
    5MOL   H264 1792   6.796   0.779   0.356  0.1647 -2.9210  0.0813
    5MOL   H265 1793   6.607   0.640   0.307 -0.2148 -1.2061  0.3600
    5MOL   H266 1794   6.378   0.770   0.059  0.8319 -0.6095 -1.6223
    5MOL   H267 1795   6.372   0.673   0.209 -0.7231 -2.5927  0.0315
    5MOL   C268 1796   6.226   0.631   0.043  0.0222 -0.1263  0.0409
    5MOL   C269 1797   6.229   0.613   7.974  1.1301  0.0841  0.7894
    5MOL   C270 1798   6.269   0.714   7.888  0.6098 -0.2012 -0.2320
    5MOL   C271 1799   6.268   0.703   7.747  0.9064 -0.2020  0.0254
    5MOL   C272 1800   6.208   0.590   7.685 -0.2157 -0.4198 -0.4041
    5MOL   C273 1801   6.199   0.572   7.533 -0.4392 -0.0671 -0.2042
    5MOL   C274 1802   6.159   0.489   7.771 -0.7214  0.1865 -0.5366
    5MOL   C275 1803   6.170   0.496   7.911 -0.1390  0.2821  0.8340
    5MOL   C276 1804   6.121   0.740   0.074 -0.2906  0.9807  0.4725
    5MOL   H277 1805   6.199   0.535   0.086  2.7402 -1.3743 -0.9670
    5MOL   H278 1806   6.304   0.808   7.930 -2.1224  0.1650  1.3737
    5MOL   H279 1807   6.299   0.788   7.687  0.0302  0.6678  0.7829
    5MOL   H280 1808   6.213   0.669   7.485  0.6321 -0.0352  0.1471
    5MOL   H281 1809   6.267   0.494   7.497 -1.4557 -0.6761 -0.8488
    5MOL   H282 1810   6.106   0.532   7.494  0.4492 -2.1112 -0.3079
    5MOL   H283 1811   6.098   0.406   7.736 -1.7629  1.0542 -0.8052
    5MOL   H284 1812   6.118   0.426   7.974  0.0820 -1.0989 -0.4932
    5MOL   H285 1813   6.046   0.732   8.075  0.1761  0.3436  0.0888
    5MOL   H286 1814   6.161   0.838   0.052  0.8191  0.2158 -0.9840
    5MOL   C287 1815   6.050   0.730   0.205 -0.4711 -0.4078 -0.5326
    5MOL   C288 1816   5.998   0.589   0.241  0.0464  0.2168 -0.3691
    5MOL   C289 1817   6.048   0.520   0.357  1.0507 -0.3134 -0.2052
    5MOL   C290 1818   6.018   0.388   0.382  0.0908  0.4269  0.5276
    5MOL   C291 1819   5.932   0.317   0.297  0.3410 -0.4966  0.4692
    5MOL   C292 1820   5.910   0.169   0.327 -0.6905 -0.0919 -0.6112
    5MOL   C293 1821   5.888   0.374   0.175 -0.1197  0.0630 -0.6719
    5MOL   C294 1822   5.920   0.509   0.148 -0.4391  0.0489 -0.6683
    5MOL   C295 1823   5.942   0.838   0.215 -0.2196  0.6661 -0.4560
    5MOL   H296 1824   6.122   0.744   0.286 -1.5191 -1.6396  0.6482
    5MOL   H297 1825   6.115   0.578   0.417  2.9296  0.7326 -3.2115
    5MOL   H298 1826   6.048   0.344   0.476 -2.4508 -0.6559  0.8793
    5MOL   H299 1827   5.820   0.160   0.387  0.1508  1.7613  1.0079
    5MOL   H300 1828   5.893   0.110   0.237 -3.6774 -0.3414  0.0655
    5MOL   H301 1829   6.003   0.132   0.370  1.2385  1.6733 -3.0534
    5MOL   H302 1830   5.834   0.309   0.108 -1.0463 -0.0252  0.1486
    5MOL   H303 1831   5.873   0.554   0.062 -0.2672  2.0508  0.2629
    5MOL   H304 1832   5.884   0.842   0.307 -3.5516 -0.3658 -2.3819
    5MOL   H305 1833   5.862   0.821   0.142  0.3760 -2.5681 -0.4097
    5MOL   C306 1834   5.993   0.986   0.217 -0.3561 -0.3863 -0.1122
    5MOL   C307 1835   6.103   1.001   0.321 -0.1899 -0.3894 -0.6129
    5MOL   C308 1836   6.240   1.024   0.281  0.2488 -0.0584  0.0515
    5MOL   C309 1837   6.339   1.057   0.374 -0.0700  0.6594 -0.0726
    5MOL   C310 1838   6.313   1.043   0.512 -0.4635  0.3666 -0.2953
    5MOL   C311 1839   6.415   1.094   0.607 -0.4110 -0.1718 -0.5907
    5MOL   C312 1840   6.182   1.001   0.557  0.6274 -0.6570 -0.7157
    5MOL   C313 1841   6.077   0.995   0.459  0.4267  0.0590 -0.0689
    5MOL   C314 1842   5.888   1.098   0.229 -0.3141  0.3090 -0.1159
    5MOL   H315 1843   6.042   1.001   0.121 -0.3751 -0.3337 -0.1138
    5MOL   H316 1844   6.261   1.036   0.176 -1.0219  1.0085 -0.0954
    5MOL   H317 1845   6.431   1.097   0.335  0.2011 -0.4436 -0.5791
    5MOL   H318 1846   6.505   1.113   0.549 -0.7679  1.1645 -0.7108
    5MOL   H319 1847   6.355   1.172   0.654 -0.7443 -0.0757 -1.1686
    5MOL   H320 1848   6.433   1.028   0.692  0.7100  2.2666  1.0938
    5MOL   H321 1849   6.161   0.990   0.662  2.0132 -2.8983 -0.6518
    5MOL   H322 1850   5.982   0.961   0.497  1.2875  0.1941  2.2910
    5MOL   H323 1851   5.934   1.196   0.214 -0.8460  0.4214 -1.0890
    5MOL   H324 1852   5.838   1.113   0.325  0.6457  1.8719  0.1657
    5MOL   C325 1853   5.773   1.089   0.121 -0.2808  0.2486  0.2879
    5MOL   C326 1854   5.827   1.069   8.056  0.0069 -0.5670 -0.0776
    5MOL   C327 1855   5.818   0.946   7.984 -0.0716 -0.1410 -0.0924
    5MOL   C328 1856   5.877   0.928   7.852  0.4193 -0.3607 -0.5416
    5MOL   C329 1857   5.942   1.032   7.784  0.3492  0.4315  0.3500
    5MOL   C330 1858   6.008   1.005   7.651 -0.4429  0.2089  0.6128
    5MOL   C331 1859   5.936   1.157   7.850 -0.0898  0.0034 -0.6353
    5MOL   C332 1860   5.888   1.172   7.983  0.1002  0.0495 -0.0785
    5MOL   C333 1861   5.693   1.221   0.137 -0.1668 -0.1107  0.3226
    5MOL   H334 1862   5.724   0.995   0.144 -1.0983  0.8620  1.0925
    5MOL   H335 1863   5.777   0.864   8.040 -1.9016 -0.1925 -1.4775
    5MOL   H336 1864   5.856   0.835   7.802 -0.0254 -1.1808  1.1078
    5MOL   H337 1865   5.954   0.931   7.592 -3.2982  1.9559  0.9214
    5MOL   H338 1866   6.013   1.091   7.583  1.5985  0.5180  1.1391
    5MOL   H339 1867   6.110   0.980   7.678  0.2317  0.7947 -1.2590
    5MOL   H340 1868   5.983   1.243   7.804  0.8112  0.6217  1.3793
    5MOL   H341 1869   5.887   1.264   8.040  1.7982 -0.5170  0.8779
    5MOL   H342 1870   5.748   1.315   0.136  2.0450 -1.3447  1.8202
    5MOL   H343 1871   5.666   1.219   0.243  2.1361 -0.5135  0.9156
    5MOL   C344 1872   5.567   1.219   0.050 -0.1278  0.0930 -0.7727
    5MOL   C345 1873   5.498   1.346   0.068  0.3128 -0.3635 -0.3391
    5MOL   C346 1874   5.504   1.445   8.045 -0.3982 -0.4182 -0.4148
    5MOL   C347 1875   5.441   1.571   8.066 -0.7055 -0.0796 -0.4869
    5MOL   C348 1876   5.370   1.598   0.106  0.1217  0.6788 -0.3485
    5MOL   C349 1877   5.302   1.737   0.114  0.2018  0.6912  0.1275
    5MOL   C350 1878   5.362   1.496   0.206 -0.0046 -0.1097 -0.7620
    5MOL   C351 1879   5.430   1.375   0.187  0.0747  0.4752  0.2860
    5MOL   C352 1880   5.473   1.099   0.078  0.0063  0.3398  1.5725
    5MOL   H353 1881   5.610   1.217   8.030  1.6388  1.2521 -0.0574
    5MOL   H354 1882   5.538   1.429   7.944  0.5505  0.4979 -0.2545
    5MOL   H355 1883   5.441   1.643   7.985  0.6418  0.9549  0.4006
    5MOL   H356 1884   5.364   1.824   0.092 -0.5352  1.1417 -0.1714
    5MOL   H357 1885   5.209   1.749   0.058  0.6016  3.0825 -0.0693
    5MOL   H358 1886   5.269   1.761   0.215 -0.9242 -1.1088  0.2104
    5MOL   H359 1887   5.305   1.505   0.297  1.5579 -0.6641  0.2895
    5MOL   H360 1888   5.426   1.313   0.275  2.0027  1.8569  1.3848
    5MOL   H361 1889   5.464   1.097   0.187 -0.8453  1.9735  1.5557
    5MOL   H362 1890   5.531   1.012   0.050 -0.5381  0.8392 -1.1834
    5MOL   C363 1891   5.338   1.087   0.003  0.1744 -0.2232  0.8527
    5MOL   C364 1892   5.238   0.994   0.070  0.0347 -0.0531  0.1327
    5MOL   C365 1893   5.272   0.874   0.134 -1.0436  0.0877 -0.0459
    5MOL   C366 1894   5.181   0.786   0.188 -0.4324  0.3970  0.4298
    5MOL   C367 1895   5.049   0.824   0.201 -0.2012 -0.0951 -0.1851
    5MOL   C368 1896   4.953   0.749   0.291 -0.5364  0.5141 -0.6042
    5MOL   C369 1897   5.008   0.947   0.145 -0.0064  0.0755  0.3741
    5MOL   C370 1898   5.098   1.030   0.077 -0.2932  0.1939  0.1870
    5MOL   C371 1899   5.351   1.038   7.936 -0.2751 -0.6104 -0.1558
    5MOL   H372 1900   5.291   1.185   8.077 -0.7494 -0.6809  0.6269
    5MOL   H373 1901   5.377   0.847   0.138 -1.7421 -2.6140  1.0945
    5MOL   H374 1902   5.208   0.687   0.224  0.8818 -0.0110 -1.5912
    5MOL   H375 1903   4.854   0.756   0.245 -0.9261  0.6166  0.2409
    5MOL   H376 1904   4.988   0.647   0.307 -2.0652 -0.3105 -2.2315
    5MOL   H377 1905   4.963   0.793   0.390  1.1533 -0.9991 -0.0731
    5MOL   H378 1906   4.906   0.982   0.154  0.3478  0.9047  1.1791
    5MOL   H379 1907   5.061   1.123   0.036 -0.4666  0.5502  1.1358
    5MOL   H380 1908   5.416   1.114   7.893 -1.6894  0.3729 -0.5872
    5MOL   H381 1909   5.252   1.040   7.890 -0.9875 -1.0584  1.3327
    5MOL   H382 1910   5.401   0.942   7.924  1.1584  0.1331 -0.2058
    6MOL     C1 1911   4.887   6.295   3.952  0.1795 -0.3954  0.3976
    6MOL     C2 1912   4.734   6.296   3.945  0.0416  0.6896  0.4064
    6MOL     C3 1913   4.658   6.369   3.856 -0.2577  0.3091  0.4006
    6MOL     C4 1914   4.521   6.367   3.856  0.3640 -0.2762 -0.0231
    6MOL     C5 1915   4.451   6.287   3.944 -0.4093  0.3240  0.0329
    6MOL     C6 1916   4.301   6.283   3.931 -0.4904 -0.4689  0.1604
    6MOL     C7 1917   4.525   6.214   4.037  0.0175  0.3228  0.5394
    6MOL     C8 1918   4.666   6.215   4.040 -0.0056 -0.4646 -0.1708
    6MOL     C9 1919   4.935   6.433   3.984 -0.1869 -0.4365  0.3187
    6MOL    H10 1920   4.923   6.233   4.034  2.6720  1.1655  0.5590
    6MOL    H11 1921   4.707   6.439   3.790 -0.8364  0.9079  0.5996
    6MOL    H12 1922   4.468   6.433   3.789  1.0818 -0.3548 -0.6606
    6MOL    H13 1923   4.272   6.179   3.913 -3.0857  0.4553 -1.2265
    6MOL    H14 1924   4.261   6.304   4.030 -0.4600  1.8180 -0.2874
    6MOL    H15 1925   4.260   6.348   3.854 -0.0296  0.0164  0.3157
    6MOL    H16 1926   4.476   6.144   4.102 -2.2806  0.4324 -1.0240
    6MOL    H17 1927   4.716   6.161   4.119  0.2985  0.2821  0.1496
    6MOL    H18 1928   4.866   6.509   3.946 -0.3147 -0.8059 -0.1975
    6MOL    H19 1929   5.028   6.460   3.933  0.2484  2.1327  2.3609
    6MOL    H20 1930   4.923   6.272   3.852  0.5568  1.0509  0.1826
    6MOL    C21 1931   4.963   6.461   4.130 -0.2171  0.0363 -0.0630
    6MOL    C22 1932   4.951   6.609   4.155  0.0406  0.6294 -0.7032
    6MOL    C23 1933   5.061   6.691   4.121 -0.3310  0.3238  0.5979
    6MOL    C24 1934   5.048   6.834   4.145  0.2322  0.3657 -0.4443
    6MOL    C25 1935   4.932   6.885   4.203 -0.3001 -0.2198  0.5195
    6MOL    C26 1936   4.916   7.030   4.231 -0.6163 -0.5681 -0.2865
    6MOL    C27 1937   4.831   6.796   4.247 -0.4021 -0.3009  0.2807
    6MOL    C28 1938   4.843   6.655   4.225 -0.2434 -0.4613  0.4518
    6MOL    C29 1939   5.098   6.401   4.178  0.3457  0.1143  0.1718
    6MOL    H30 1940   4.892   6.414   4.199  0.4305  2.1560  2.1168
    6MOL    H31 1941   5.151   6.660   4.071 -0.1893  1.3189  0.2204
    6MOL    H32 1942   5.137   6.894   4.131 -0.3598  1.7090  1.3784
    6MOL    H33 1943   4.823   7.062   4.183  0.5162  0.4662 -1.8397
    6MOL    H34 1944   4.919   7.048   4.338 -2.9999 -1.6723  0.0079
    6MOL    H35 1945   4.998   7.076   4.174  1.1489 -1.1794  1.7173
    6MOL    H36 1946   4.744   6.832   4.300  1.0987 -1.3005  3.5540
    6MOL    H37 1947   4.756   6.601   4.258  0.0276 -2.0977 -1.4124
    6MOL    H38 1948   5.176   6.441   4.114 -0.1851 -0.3705 -0.7830
    6MOL    H39 1949   5.105   6.294   4.158  1.6642  0.1147  0.5752
    6MOL    C40 1950   5.132   6.403   4.325  0.8671  0.2834  0.0888
    6MOL    C41 1951   5.278   6.433   4.341  0.6734  0.4823  0.0527
    6MOL    C42 1952   5.319   6.534   4.432 -0.4331 -0.3090 -0.1162
    6MOL    C43 1953   5.457   6.559   4.449  0.0816  0.1556  0.4112
    6MOL    C44 1954   5.555   6.487   4.383 -0.2997  0.4369  0.5589
    6MOL    C45 1955   5.697   6.516   4.403 -0.3576  0.0059 -0.3098
    6MOL    C46 1956   5.515   6.381   4.295 -0.2065 -0.2073  0.8999
    6MOL    C47 1957   5.384   6.351   4.278  0.6255 -0.1065  0.0767
    6MOL    C48 1958   5.098   6.277   4.410 -0.2920  0.1141  0.6619
    6MOL    H49 1959   5.091   6.493   4.370  0.4012 -1.0193  2.3371
    6MOL    H50 1960   5.240   6.588   4.482  0.3452  2.0209 -1.3309
    6MOL    H51 1961   5.503   6.628   4.518  1.4002  0.1313 -0.4274
    6MOL    H52 1962   5.722   6.577   4.490  0.3544 -1.7829  0.7590
    6MOL    H53 1963   5.754   6.426   4.422 -1.6178 -0.6601  0.3775
    6MOL    H54 1964   5.750   6.565   4.321 -0.2176  0.2627 -0.0649
    6MOL    H55 1965   5.592   6.321   4.249 -1.6003  0.8480 -3.0368
    6MOL    H56 1966   5.349   6.275   4.210 -2.4696  0.3358  1.0593
    6MOL    H57 1967   5.129   6.297   4.513 -0.5804 -0.2067  0.8141
    6MOL    H58 1968   5.159   6.195   4.374  0.4354  1.1446 -0.4800
    6MOL    C59 1969   4.950   6.238   4.408 -0.1912  0.2192 -0.3878
    6MOL    C60 1970   4.848   6.346   4.452  0.1316 -0.1312  0.1085
    6MOL    C61 1971   4.877   6.446   4.542  0.1613  0.9955  0.5345
    6MOL    C62 1972   4.785   6.550   4.568  0.2276  0.0878  0.6095
    6MOL    C63 1973   4.655   6.556   4.515 -0.0123 -0.1295  0.1839
    6MOL    C64 1974   4.562   6.661   4.559  0.6305  0.0582  0.5500
    6MOL    C65 1975   4.626   6.449   4.419  0.7727 -0.3409 -0.1715
    6MOL    C66 1976   4.722   6.347   4.391  0.3144 -0.0383  0.0041
    6MOL    C67 1977   4.924   6.116   4.491 -0.2388  0.0187 -0.0021
    6MOL    H68 1978   4.924   6.211   4.306  1.4111 -2.7716 -0.0621
    6MOL    H69 1979   4.973   6.437   4.590  0.5346 -0.8061 -0.4951
    6MOL    H70 1980   4.806   6.618   4.649  3.2368  1.5169 -1.2685
    6MOL    H71 1981   4.463   6.626   4.587  0.1115  2.5723  1.9619
    6MOL    H72 1982   4.592   6.734   4.634  1.2989  0.5560 -0.1904
    6MOL    H73 1983   4.534   6.718   4.470  1.5693  1.9164  1.4314
    6MOL    H74 1984   4.533   6.440   4.363  1.1311  2.8604 -1.4185
    6MOL    H75 1985   4.692   6.268   4.325 -1.6971  1.3831 -0.8481
    6MOL    H76 1986   4.816   6.100   4.481  0.0026 -1.6822  0.0326
    6MOL    H77 1987   4.936   6.154   4.593 -0.7958  1.9036 -0.6227
    6MOL    C78 1988   5.007   5.978   4.477  0.2831 -0.1862  0.1218
    6MOL    C79 1989   5.014   5.934   4.337 -0.0889  0.1729 -0.2567
    6MOL    C80 1990   5.138   5.902   4.277  0.1928 -0.1409  0.1336
    6MOL    C81 1991   5.138   5.871   4.134  0.6572 -0.2568  0.7324
    6MOL    C82 1992   5.019   5.889   4.056  0.2474  0.2957  0.3309
    6MOL    C83 1993   5.020   5.860   3.907  0.2351  0.3964 -0.5144
    6MOL    C84 1994   4.893   5.902   4.129  0.2616 -0.0847  0.1842
    6MOL    C85 1995   4.898   5.929   4.266  0.0506  0.1872 -0.2640
    6MOL    C86 1996   4.964   5.860   4.573  0.0003  0.3561  0.0068
    6MOL    H87 1997   5.108   6.009   4.502 -0.5775  2.3006  0.6199
    6MOL    H88 1998   5.229   5.897   4.335  1.0869 -1.3734 -1.3210
    6MOL    H89 1999   5.224   5.836   4.078 -0.0571 -0.5936 -0.1762
    6MOL    H90 2000   5.114   5.892   3.863 -0.6028 -0.4245 -3.0244
    6MOL    H91 2001   4.989   5.756   3.896  1.3856 -0.0461  0.3978
    6MOL    H92 2002   4.939   5.918   3.862 -0.0763  1.3225  1.1973
    6MOL    H93 2003   4.802   5.909   4.071  1.2519 -0.0151 -1.3701
    6MOL    H94 2004   4.798   5.941   4.306 -0.2194  0.6946 -1.0744
    6MOL    H95 2005   4.876   5.811   4.530  0.6320 -0.6982 -0.0942
    6MOL    H96 2006   4.923   5.898   4.667 -1.1477  0.7664 -0.6417
    6MOL    C97 2007   5.072   5.757   4.615  0.7540 -0.0296 -0.5527
    6MOL    C98 2008   4.999   5.636   4.671  0.0752  0.5243 -0.2290
    6MOL    C99 2009   4.926   5.646   4.788  0.2924  0.0491 -0.4221
    6MOL   C100 2010   4.862   5.533   4.849 -0.0963 -0.4783 -0.0607
    6MOL   C101 2011   4.884   5.412   4.786 -0.6157  0.4371 -0.2891
    6MOL   C102 2012   4.834   5.289   4.843 -0.3376  0.2009  0.6042
    6MOL   C103 2013   4.958   5.397   4.666 -0.3887 -0.4050  0.2853
    6MOL   C104 2014   5.008   5.510   4.605 -0.2288 -0.6023  0.3837
    6MOL   C105 2015   5.164   5.822   4.727 -0.4544 -0.1630 -1.3253
    6MOL   H106 2016   5.138   5.730   4.533  0.7533 -0.2014 -0.4972
    6MOL   H107 2017   4.922   5.734   4.850 -1.0682  0.6950 -1.3930
    6MOL   H108 2018   4.817   5.540   4.947  3.5465  1.4372  1.5867
    6MOL   H109 2019   4.912   5.213   4.845 -0.7587 -0.3294 -1.5439
    6MOL   H110 2020   4.800   5.311   4.944  2.6825  0.3203  1.6574
    6MOL   H111 2021   4.752   5.251   4.783  0.1357 -0.5165  0.4057
    6MOL   H112 2022   4.987   5.304   4.619  3.6677  0.2566  1.3165
    6MOL   H113 2023   5.073   5.494   4.520 -1.2869  0.4028 -0.6369
    6MOL   H114 2024   5.114   5.831   4.823  0.2439 -2.0078 -0.7548
    6MOL   H115 2025   5.183   5.923   4.691 -1.1039  0.1893 -0.6797
    6MOL   C116 2026   5.297   5.749   4.746  0.3463 -0.2595 -0.7112
    6MOL   C117 2027   5.398   5.772   4.629  0.2250 -0.6110 -0.1629
    6MOL   C118 2028   5.456   5.896   4.609  0.0459 -0.7753  0.1850
    6MOL   C119 2029   5.543   5.917   4.498 -0.8300 -0.4850 -1.1706
    6MOL   C120 2030   5.569   5.809   4.410 -0.2392 -0.4787 -0.7993
    6MOL   C121 2031   5.653   5.831   4.285 -0.2136  0.0705 -0.4009
    6MOL   C122 2032   5.508   5.683   4.427 -0.4650 -0.7588  0.0871
    6MOL   C123 2033   5.413   5.668   4.533 -0.4579 -0.0030 -0.5722
    6MOL   C124 2034   5.302   5.611   4.815  0.3189  0.5017  0.2234
    6MOL   H125 2035   5.333   5.817   4.823 -1.8366  1.6929 -1.3550
    6MOL   H126 2036   5.422   5.975   4.674  0.8034  0.5023 -0.9366
    6MOL   H127 2037   5.585   6.016   4.489  0.2993 -0.8917 -0.5636
    6MOL   H128 2038   5.604   5.801   4.192 -0.3911  2.2014 -1.0321
    6MOL   H129 2039   5.679   5.935   4.266  0.7828 -0.1866 -0.4699
    6MOL   H130 2040   5.749   5.780   4.296 -0.0983  0.2020 -0.7784
    6MOL   H131 2041   5.513   5.605   4.352  0.4876 -0.6513  0.0299
    6MOL   H132 2042   5.349   5.581   4.531 -0.0039 -0.3829  0.7573
    6MOL   H133 2043   5.250   5.546   4.744  1.3358 -1.0175  0.8305
    6MOL   H134 2044   5.240   5.610   4.904 -0.6390 -0.9985 -0.4414
    6MOL   C135 2045   5.431   5.542   4.848  0.0725 -0.3235  0.1001
    6MOL   C136 2046   5.412   5.386   4.853 -0.3328 -0.2423 -0.8315
    6MOL   C137 2047   5.292   5.317   4.877  0.2811 -0.4643 -0.4574
    6MOL   C138 2048   5.284   5.178   4.904  0.0552  0.5831 -0.2299
    6MOL   C139 2049   5.399   5.096   4.890  0.2632  0.5490 -0.1239
    6MOL   C140 2050   5.377   4.946   4.899  0.3633  0.3324 -0.1208
    6MOL   C141 2051   5.515   5.160   4.854 -0.0972  0.0781  0.0050
    6MOL   C142 2052   5.522   5.298   4.832  0.1424  0.2013 -0.4769
    6MOL   C143 2053   5.492   5.601   4.976 -0.0223 -0.4223  0.5972
    6MOL   H144 2054   5.498   5.557   4.763  1.2763 -3.4821  0.4149
    6MOL   H145 2055   5.196   5.363   4.889  0.2892 -0.5650  0.0073
    6MOL   H146 2056   5.190   5.133   4.931 -0.6455  1.7562 -0.7090
    6MOL   H147 2057   5.269   4.931   4.894 -0.1556  3.0995  1.7632
    6MOL   H148 2058   5.424   4.896   4.814  3.3905  0.8926  1.1488
    6MOL   H149 2059   5.420   4.908   4.992  0.5645 -0.0817 -0.3815
    6MOL   H150 2060   5.607   5.107   4.834 -0.7537 -0.8214 -0.7285
    6MOL   H151 2061   5.622   5.335   4.815  0.0488  0.5353 -0.2804
    6MOL   H152 2062   5.540   5.515   5.023 -1.6352 -1.9683 -0.5370
    6MOL   H153 2063   5.421   5.639   5.049 -0.4146 -0.5706  0.2905
    6MOL   C154 2064   5.596   5.721   4.950  0.4068  0.0773  0.0704
    6MOL   C155 2065   5.731   5.681   4.880 -0.0923  0.1681  0.1723
    6MOL   C156 2066   5.754   5.700   4.743  0.5323  0.2451 -0.1579
    6MOL   C157 2067   5.873   5.654   4.681 -0.0700  0.2329  0.3280
    6MOL   C158 2068   5.972   5.594   4.755 -0.4360  0.1354  0.1323
    6MOL   C159 2069   6.099   5.563   4.672  0.1929  0.2152  0.1336
    6MOL   C160 2070   5.952   5.569   4.896 -0.6690 -0.3604  0.0156
    6MOL   C161 2071   5.833   5.612   4.951  0.7744  0.2370 -0.0843
    6MOL   C162 2072   5.625   5.799   5.080  0.1625 -0.2967  0.1883
    6MOL   H163 2073   5.560   5.798   4.882 -0.9831 -1.0429 -0.4931
    6MOL   H164 2074   5.686   5.757   4.682 -0.0306 -0.9263 -0.6609
    6MOL   H165 2075   5.885   5.672   4.575  0.5843  1.3033  0.5683
    6MOL   H166 2076   6.071   5.471   4.621 -0.1328 -0.8693  2.2624
    6MOL   H167 2077   6.128   5.637   4.597 -0.1781  0.5052  0.2795
    6MOL   H168 2078   6.181   5.537   4.738  0.5389  0.3195 -0.2473
    6MOL   H169 2079   6.024   5.512   4.952  0.6505  0.6964 -0.5910
    6MOL   H170 2080   5.837   5.605   5.058  1.5036 -1.3526 -0.2042
    6MOL   H171 2081   5.726   5.838   5.090  0.1855  0.1406 -1.6253
    6MOL   H172 2082   5.609   5.725   5.158 -1.3778  0.1643  0.3400
    6MOL   C173 2083   5.514   5.912   5.114  0.2073 -0.4495  0.0069
    6MOL   C174 2084   5.506   6.027   5.015 -0.1880  0.0166 -0.5175
    6MOL   C175 2085   5.619   6.103   4.991  0.4439  0.3942  0.0732
    6MOL   C176 2086   5.625   6.200   4.891 -0.2046  0.7503 -0.1997
    6MOL   C177 2087   5.505   6.238   4.824 -0.1720 -0.7019  0.4612
    6MOL   C178 2088   5.511   6.343   4.719 -0.7325  0.5858  0.0860
    6MOL   C179 2089   5.381   6.166   4.854 -0.1850 -0.5756  0.5471
    6MOL   C180 2090   5.388   6.055   4.941  0.3805  0.7082 -0.1990
    6MOL   C181 2091   5.545   5.964   5.254 -0.4029 -0.4041 -0.5009
    6MOL   H182 2092   5.419   5.860   5.112  0.1950 -0.3957 -1.1862
    6MOL   H183 2093   5.706   6.084   5.051  0.3659 -0.3366 -0.0379
    6MOL   H184 2094   5.721   6.245   4.870  0.1380 -0.0991 -0.4767
    6MOL   H185 2095   5.544   6.310   4.620 -0.7180  0.8096  0.0149
    6MOL   H186 2096   5.412   6.384   4.698 -0.7815  0.4289  0.0120
    6MOL   H187 2097   5.569   6.427   4.757  1.0233  0.6014 -2.4903
    6MOL   H188 2098   5.288   6.187   4.805  0.9986  1.1389 -1.0137
    6MOL   H189 2099   5.296   6.001   4.954 -0.1357  1.5759 -0.1648
    6MOL   H190 2100   5.478   6.050   5.260 -0.5728 -0.5202 -0.7042
    6MOL   H191 2101   5.649   5.996   5.255 -0.8015  0.9382 -0.5177
    6MOL   C192 2102   5.508   5.880   5.378 -0.2135 -0.1975  0.4178
    6MOL   C193 2103   5.363   5.824   5.363 -0.3527 -0.0111  0.4984
    6MOL   C194 2104   5.355   5.690   5.335  0.7133  0.2546  0.2745
    6MOL   C195 2105   5.231   5.631   5.290 -0.7169  0.2956  0.0482
    6MOL   C196 2106   5.117   5.712   5.294 -0.5412  0.3417  0.2306
    6MOL   C197 2107   4.985   5.651   5.269 -0.4003 -0.1271  0.3742
    6MOL   C198 2108   5.125   5.847   5.330 -0.1295 -0.0302  0.2164
    6MOL   C199 2109   5.251   5.903   5.363 -0.2495  0.2590  0.5349
    6MOL   C200 2110   5.524   5.953   5.519  0.6868  0.6075  0.3832
    6MOL   H201 2111   5.576   5.796   5.374  0.4481  0.3606 -0.3346
    6MOL   H202 2112   5.443   5.628   5.331 -1.3748 -2.7890  0.2563
    6MOL   H203 2113   5.236   5.531   5.250 -1.6102  1.1009 -2.1557
    6MOL   H204 2114   4.996   5.547   5.237 -1.6260  0.1450 -0.9997
    6MOL   H205 2115   4.927   5.654   5.361  0.0723 -0.8498  0.6978
    6MOL   H206 2116   4.929   5.712   5.198 -1.5711 -0.4652  0.9880
    6MOL   H207 2117   5.036   5.907   5.339  0.9157  1.3325  1.8945
    6MOL   H208 2118   5.257   6.007   5.391  1.8009 -0.0117  1.2136
    6MOL   H209 2119   5.471   5.909   5.602 -0.8252 -1.1109 -1.4379
    6MOL   H210 2120   5.464   6.041   5.494  0.1700  0.3765  0.8221
    6MOL   C211 2121   5.672   5.968   5.560  0.0850 -0.2214  0.2038
    6MOL   C212 2122   5.719   5.830   5.598  0.2072  0.4376  0.6151
    6MOL   C213 2123   5.666   5.746   5.703  0.2226  0.0833 -0.0610
    6MOL   C214 2124   5.724   5.615   5.719  0.3536  0.3241 -0.5157
    6MOL   C215 2125   5.839   5.567   5.650  0.1961  0.3421 -0.1517
    6MOL   C216 2126   5.888   5.432   5.694 -0.3122  0.2025 -0.1925
    6MOL   C217 2127   5.895   5.650   5.550 -0.0023  0.9979 -0.2772
    6MOL   C218 2128   5.833   5.776   5.529 -1.0283 -0.5440  0.6700
    6MOL   C219 2129   5.697   6.062   5.672  0.7620  0.3138  0.0320
    6MOL   H220 2130   5.731   6.011   5.478 -2.1320 -0.3705 -1.5289
    6MOL   H221 2131   5.577   5.777   5.756 -0.2033 -0.1916 -0.6062
    6MOL   H222 2132   5.673   5.548   5.786  1.7028 -3.1715 -2.7967
    6MOL   H223 2133   5.920   5.424   5.798  0.4421 -0.8329 -0.4938
    6MOL   H224 2134   5.816   5.353   5.674  2.9406 -2.6105 -1.2834
    6MOL   H225 2135   5.974   5.407   5.632  0.6810  3.2681 -0.1401
    6MOL   H226 2136   5.984   5.621   5.496 -0.5451  1.4020 -1.3944
    6MOL   H227 2137   5.885   5.832   5.452 -0.4764 -0.8527  0.8132
    6MOL   H228 2138   5.801   6.062   5.702  0.9768  1.9860 -0.6130
    6MOL   H229 2139   5.639   6.026   5.757  1.2908 -0.9304 -0.1299
    6MOL   C230 2140   5.666   6.215   5.645 -0.1376 -0.1767 -0.4415
    6MOL   C231 2141   5.760   6.281   5.546 -0.1337 -0.7494 -0.9560
    6MOL   C232 2142   5.690   6.332   5.433  0.9076  0.3853  0.2178
    6MOL   C233 2143   5.759   6.373   5.322 -0.0263 -0.0261  0.6339
    6MOL   C234 2144   5.901   6.379   5.326  0.1926 -0.4328  0.1803
    6MOL   C235 2145   5.975   6.440   5.218 -0.6206 -0.0314  0.5361
    6MOL   C236 2146   5.966   6.333   5.442 -0.4491  0.4266  0.8104
    6MOL   C237 2147   5.897   6.279   5.555 -0.2970  0.5609  0.0158
    6MOL   C238 2148   5.663   6.301   5.767 -0.3585 -0.1384  0.7295
    6MOL   H239 2149   5.564   6.216   5.605 -0.6530 -0.6653  0.8159
    6MOL   H240 2150   5.583   6.326   5.421  1.1095  0.2905 -1.7706
    6MOL   H241 2151   5.702   6.387   5.232 -0.3345 -0.2467  0.7909
    6MOL   H242 2152   5.950   6.389   5.125 -3.8694  1.0254  0.7589
    6MOL   H243 2153   5.950   6.545   5.201  0.1622  0.3673  1.7678
    6MOL   H244 2154   6.082   6.425   5.232 -0.3230 -0.4771 -1.9724
    6MOL   H245 2155   6.074   6.330   5.433 -0.5558  0.5644 -0.7306
    6MOL   H246 2156   5.950   6.241   5.641 -1.6920  0.3426  0.7898
    6MOL   H247 2157   5.643   6.405   5.741 -1.9625 -0.5298  0.3385
    6MOL   H248 2158   5.768   6.288   5.793  0.7805 -0.4473 -3.7015
    6MOL   C249 2159   5.570   6.262   5.879  0.4649 -0.5265  0.0233
    6MOL   C250 2160   5.430   6.228   5.825 -0.1410  0.2563 -0.0925
    6MOL   C251 2161   5.387   6.095   5.837 -0.2849 -0.2094 -0.4030
    6MOL   C252 2162   5.266   6.056   5.782  0.3210  0.0800  0.2470
    6MOL   C253 2163   5.188   6.150   5.712  0.2238  0.1694  0.0240
    6MOL   C254 2164   5.055   6.097   5.657  0.1246 -0.5077  0.5257
    6MOL   C255 2165   5.230   6.284   5.707  0.1289 -0.3065  0.1482
    6MOL   C256 2166   5.350   6.324   5.768  0.3860 -0.0642 -0.6034
    6MOL   C257 2167   5.568   6.379   5.984  0.3559 -0.1691  0.0026
    6MOL   H258 2168   5.612   6.170   5.922  1.6478  0.7762  1.7184
    6MOL   H259 2169   5.442   6.019   5.890 -1.1542 -1.0995 -0.7555
    6MOL   H260 2170   5.235   5.953   5.788  1.5316 -0.2985  0.0941
    6MOL   H261 2171   5.004   6.173   5.599  0.1351 -0.9647 -0.0857
    6MOL   H262 2172   5.072   6.018   5.584  0.5218 -0.7054  0.8306
    6MOL   H263 2173   4.998   6.055   5.740 -1.0985  1.6866  0.8344
    6MOL   H264 2174   5.165   6.354   5.657  0.4864 -1.1678 -1.5573
    6MOL   H265 2175   5.382   6.427   5.758 -3.2479  1.4960  2.8791
    6MOL   H266 2176   5.530   6.471   5.941  1.0324  0.1511  0.0674
    6MOL   H267 2177   5.671   6.409   6.005  1.2829 -2.5735 -0.9015
    6MOL   C268 2178   5.489   6.343   6.110 -0.9569  0.0888 -0.3370
    6MOL   C269 2179   5.392   6.459   6.151  0.5327  0.3823 -0.4391
    6MOL   C270 2180   5.434   6.589   6.190 -0.4800 -0.3471  0.0077
    6MOL   C271 2181   5.342   6.685   6.237 -0.2771  0.8561  0.6302
    6MOL   C272 2182   5.204   6.650   6.245  0.4583 -0.5354 -0.8593
    6MOL   C273 2183   5.097   6.755   6.284  0.9609 -0.5471 -0.5667
    6MOL   C274 2184   5.166   6.522   6.205  0.1972  0.7148  0.0888
    6MOL   C275 2185   5.252   6.430   6.161  0.5327  0.3811  0.0649
    6MOL   C276 2186   5.576   6.320   6.239 -0.0488  0.4391  1.0426
    6MOL   H277 2187   5.439   6.247   6.097 -2.6289  1.0459 -1.1309
    6MOL   H278 2188   5.539   6.618   6.190 -0.4158 -0.5760  0.3711
    6MOL   H279 2189   5.381   6.785   6.253  1.6853  0.0435  1.1224
    6MOL   H280 2190   5.065   6.728   6.384 -0.0283 -1.5832 -1.1435
    6MOL   H281 2191   5.140   6.855   6.281  1.3491 -0.7093 -0.3819
    6MOL   H282 2192   5.012   6.752   6.216 -0.6973 -1.0870  1.4888
    6MOL   H283 2193   5.060   6.504   6.194  0.5389 -0.6662 -1.0351
    6MOL   H284 2194   5.205   6.333   6.150 -0.2834  0.9355 -1.4460
    6MOL   H285 2195   5.515   6.298   6.326 -0.2520 -0.4745  0.6794
    6MOL   H286 2196   5.610   6.418   6.271  0.1547  0.7898 -0.2166
    6MOL   C287 2197   5.691   6.224   6.223  0.2591  0.2989  0.3775
    6MOL   C288 2198   5.647   6.076   6.190  0.2382  0.1318  0.6799
    6MOL   C289 2199   5.521   6.024   6.229  0.5107  0.2972  0.2075
    6MOL   C290 2200   5.477   5.895   6.191 -0.5885  0.1272 -0.1939
    6MOL   C291 2201   5.566   5.805   6.131 -0.4105  0.4827  0.2271
    6MOL   C292 2202   5.515   5.666   6.102  0.0773 -0.0925 -0.2726
    6MOL   C293 2203   5.695   5.849   6.100 -0.0480  0.5088 -0.2414
    6MOL   C294 2204   5.734   5.981   6.124 -0.2972  0.0112 -0.3784
    6MOL   C295 2205   5.775   6.226   6.352  0.2785  0.7958 -0.4000
    6MOL   H296 2206   5.760   6.244   6.141  1.0801 -1.2074  0.6724
    6MOL   H297 2207   5.446   6.087   6.275 -0.1383  2.1219 -3.1974
    6MOL   H298 2208   5.376   5.867   6.215 -0.1425 -1.9364 -0.6663
    6MOL   H299 2209   5.487   5.639   6.000 -0.1509 -0.3514 -0.1447
    6MOL   H300 2210   5.593   5.600   6.139  0.6789  1.5784  1.5179
    6MOL   H301 2211   5.429   5.651   6.168  0.2246 -0.6312 -0.2067
    6MOL   H302 2212   5.765   5.777   6.060  0.2407  0.9870 -0.6257
    6MOL   H303 2213   5.833   6.008   6.091  0.4177 -0.1945  1.5758
    6MOL   H304 2214   5.833   6.134   6.345 -2.3044 -0.7176 -2.6990
    6MOL   H305 2215   5.709   6.228   6.439  1.5986 -0.0711  0.6304
    6MOL   C306 2216   5.872   6.345   6.358  0.9868 -0.4170 -0.0893
    6MOL   C307 2217   5.989   6.340   6.263 -0.0320 -0.2782  0.6997
    6MOL   C308 2218   6.078   6.229   6.259  0.1929  0.0051  0.1896
    6MOL   C309 2219   6.188   6.237   6.170 -0.3939  0.0261 -0.1832
    6MOL   C310 2220   6.202   6.346   6.080  0.0183 -0.2701  0.5369
    6MOL   C311 2221   6.326   6.356   5.997 -0.4457  0.6005 -0.0710
    6MOL   C312 2222   6.103   6.445   6.077  0.0393 -0.6831  0.7832
    6MOL   C313 2223   5.992   6.439   6.160 -0.1552 -0.8143 -0.6313
    6MOL   C314 2224   5.931   6.363   6.499  0.8015  0.4836 -0.3079
    6MOL   H315 2225   5.806   6.429   6.336  1.1098 -0.4336 -0.5181
    6MOL   H316 2226   6.081   6.152   6.335 -2.1698  1.2572  1.6149
    6MOL   H317 2227   6.258   6.156   6.181 -1.3166 -0.7352  0.1310
    6MOL   H318 2228   6.287   6.382   5.899  1.9071  0.4472 -1.0931
    6MOL   H319 2229   6.393   6.437   6.024  0.7560 -0.1585 -0.7111
    6MOL   H320 2230   6.379   6.261   5.995  0.0018  0.8501 -0.1721
    6MOL   H321 2231   6.113   6.534   6.015 -1.6419 -0.0832  1.3438
    6MOL   H322 2232   5.909   6.507   6.154 -0.0045 -0.3600  2.1609
    6MOL   H323 2233   6.014   6.433   6.503  1.5102 -0.3163 -0.9124
    6MOL   H324 2234   5.966   6.267   6.537 -0.3269 -0.3566 -1.3556
    6MOL   C325 2235   5.819   6.421   6.593  0.1279 -0.0593 -0.6421
    6MOL   C326 2236   5.794   6.569   6.560  0.0850  0.0047  0.1362
    6MOL   C327 2237   5.675   6.611   6.507 -0.0485  0.5619  0.4005
    6MOL   C328 2238   5.642   6.744   6.493 -0.9765  0.4293  0.0808
    6MOL   C329 2239   5.730   6.845   6.533  0.5534 -0.2340 -0.2452
    6MOL   C330 2240   5.690   6.988   6.518  0.3937  0.0066 -0.1947
    6MOL   C331 2241   5.854   6.801   6.583 -0.1963  0.1419 -0.5288
    6MOL   C332 2242   5.893   6.665   6.598  0.6812 -0.8860 -0.4173
    6MOL   C333 2243   5.839   6.389   6.744  0.1789 -0.1489 -0.4698
    6MOL   H334 2244   5.724   6.376   6.565  0.6171 -1.5327 -0.0080
    6MOL   H335 2245   5.601   6.541   6.472  1.1974 -0.1736 -0.8162
    6MOL   H336 2246   5.547   6.777   6.453 -0.9571  2.0767  1.3181
    6MOL   H337 2247   5.703   7.021   6.415 -2.6922 -0.3868 -0.7481
    6MOL   H338 2248   5.585   7.010   6.537  0.8562  0.7572  1.5693
    6MOL   H339 2249   5.743   7.061   6.578 -1.5654  0.7050  0.7229
    6MOL   H340 2250   5.930   6.870   6.613 -0.9929  0.5628  0.5655
    6MOL   H341 2251   5.992   6.659   6.640  0.0394 -0.1886  1.2626
    6MOL   H342 2252   5.784   6.460   6.806  0.9603 -0.4972  0.6440
    6MOL   H343 2253   5.938   6.422   6.775 -1.1122  2.9072  0.5542
    6MOL   C344 2254   5.811   6.247   6.795  0.0514 -0.2474 -0.2724
    6MOL   C345 2255   5.676   6.207   6.744  0.6888 -0.7381 -0.1870
    6MOL   C346 2256   5.662   6.096   6.656 -0.3514  0.2657 -0.1926
    6MOL   C347 2257   5.537   6.059   6.600  0.2771 -0.2210 -0.1293
    6MOL   C348 2258   5.422   6.123   6.647 -0.0986  0.4462  0.4119
    6MOL   C349 2259   5.283   6.081   6.595 -0.7629  0.4913 -0.2691
    6MOL   C350 2260   5.433   6.234   6.734  0.2886  0.3232  0.1895
    6MOL   C351 2261   5.560   6.276   6.774 -0.4241  0.4460 -0.4330
    6MOL   C352 2262   5.818   6.232   6.947 -0.3420  0.5118  0.8706
    6MOL   H353 2263   5.888   6.181   6.753  1.0353 -0.2293  1.4351
    6MOL   H354 2264   5.753   6.047   6.624 -1.4636 -0.8377 -1.7471
    6MOL   H355 2265   5.526   5.978   6.530  1.0906 -2.0680  1.8026
    6MOL   H356 2266   5.285   5.976   6.565  0.6945  0.1860  0.8101
    6MOL   H357 2267   5.211   6.089   6.676  2.6992 -0.0282  3.0095
    6MOL   H358 2268   5.256   6.134   6.504  2.5156  1.1230 -0.9540
    6MOL   H359 2269   5.344   6.290   6.757  0.3254 -0.3309  1.9622
    6MOL   H360 2270   5.557   6.355   6.848 -1.5577 -0.3036  0.3451
    6MOL   H361 2271   5.789   6.129   6.969 -0.0877  0.8873  3.1023
    6MOL   H362 2272   5.742   6.301   6.985 -1.3736 -0.6305  0.9108
    6MOL   C363 2273   5.955   6.276   7.010 -0.2217  0.4407 -0.1805
    6MOL   C364 2274   6.082   6.219   6.945  0.1665  0.2906 -1.4156
    6MOL   C365 2275   6.088   6.084   6.912  0.3847 -0.4235 -0.3639
    6MOL   C366 2276   6.211   6.026   6.868  0.2971 -0.0910  0.8270
    6MOL   C367 2277   6.321   6.107   6.842  0.8720 -0.7512 -1.0571
    6MOL   C368 2278   6.438   6.053   6.764 -0.6763  0.0143 -0.4205
    6MOL   C369 2279   6.308   6.243   6.868 -0.2720 -0.5417 -0.3073
    6MOL   C370 2280   6.195   6.302   6.921  0.0592 -0.9065 -0.0628
    6MOL   C371 2281   5.946   6.254   7.157 -0.3412  0.0053 -0.4124
    6MOL   H372 2282   5.967   6.384   7.002  1.5543  0.1401 -2.1232
    6MOL   H373 2283   6.013   6.006   6.925  0.8695 -0.7030  0.8464
    6MOL   H374 2284   6.222   5.921   6.846 -1.6006 -0.0064 -0.6633
    6MOL   H375 2285   6.422   5.952   6.727 -1.3286  0.3883 -1.1790
    6MOL   H376 2286   6.440   6.105   6.668 -1.0387  1.1226  0.1618
    6MOL   H377 2287   6.541   6.065   6.798 -1.0068  2.7224 -0.2582
    6MOL   H378 2288   6.395   6.305   6.852 -0.1825 -1.5026 -4.0408
    6MOL   H379 2289   6.202   6.407   6.944 -0.1114 -0.4883 -1.8549
    6MOL   H380 2290   5.949   6.148   7.185 -0.0812  0.0746 -0.1805
    6MOL   H381 2291   5.848   6.284   7.194 -0.7341 -0.8040 -0.7727
    6MOL   H382 2292   6.028   6.301   7.211 -0.8635 -0.0940  0.4861
    7MOL     C1 2293   7.410   1.490   3.477 -0.1101  0.6267  0.8075
    7MOL     C2 2294   7.388   1.458   3.326 -0.2274 -0.1446 -0.4291
    7MOL     C3 2295   7.267   1.427   3.276  0.3074  0.2508  0.6800
    7MOL     C4 2296   7.249   1.419   3.137  0.5444 -0.8486  0.1174
    7MOL     C5 2297   7.358   1.407   3.047 -0.8191  0.2403 -0.0219
    7MOL     C6 2298   7.334   1.407   2.893 -0.5882  0.0701  1.0541
    7MOL     C7 2299   7.494   1.426   3.104  0.1673  0.4289  0.2594
    7MOL     C8 2300   7.498   1.453   3.244  0.1187  0.7247  0.4649
    7MOL     C9 2301   7.276   1.520   3.551 -0.1370  0.4407  0.5253
    7MOL    H10 2302   7.443   1.395   3.519  0.0899 -0.0194 -0.7683
    7MOL    H11 2303   7.179   1.427   3.338  0.8263 -0.0240  1.4217
    7MOL    H12 2304   7.146   1.409   3.106  0.7105 -0.9308 -0.4178
    7MOL    H13 2305   7.275   1.319   2.871  0.4177 -0.4539  0.4364
    7MOL    H14 2306   7.283   1.498   2.860 -1.8866 -0.3701  1.8124
    7MOL    H15 2307   7.428   1.419   2.840 -1.3188  0.6435 -0.1211
    7MOL    H16 2308   7.580   1.436   3.040  0.1140 -1.1806 -0.0716
    7MOL    H17 2309   7.595   1.480   3.283  1.7857 -2.1243 -1.4623
    7MOL    H18 2310   7.210   1.434   3.545 -0.9846  1.0387  1.1273
    7MOL    H19 2311   7.220   1.597   3.498 -2.4319 -1.0917  0.6725
    7MOL    H20 2312   7.486   1.568   3.490  0.0114  0.5603  0.5030
    7MOL    C21 2313   7.286   1.546   3.709  0.0055 -0.1124  0.1434
    7MOL    C22 2314   7.371   1.451   3.798  0.6569  0.6718  0.2841
    7MOL    C23 2315   7.363   1.313   3.780 -0.2671 -0.5231 -0.0565
    7MOL    C24 2316   7.444   1.220   3.855  0.7942 -0.5857  0.3835
    7MOL    C25 2317   7.513   1.270   3.968 -0.2345  0.4410  1.0269
    7MOL    C26 2318   7.565   1.171   4.070 -0.0998  0.0659 -0.6672
    7MOL    C27 2319   7.515   1.411   3.995 -0.6868  1.1560  0.1966
    7MOL    C28 2320   7.452   1.496   3.903 -0.8790  1.0054 -0.4175
    7MOL    C29 2321   7.159   1.572   3.791 -0.7128 -0.3628  0.6882
    7MOL    H30 2322   7.351   1.633   3.724 -3.9821  2.7177  1.9397
    7MOL    H31 2323   7.290   1.273   3.710  2.1498 -1.5609 -2.0321
    7MOL    H32 2324   7.446   1.114   3.834 -1.8312 -0.7375  0.7368
    7MOL    H33 2325   7.557   1.211   4.171  2.5863 -0.8618 -0.0513
    7MOL    H34 2326   7.518   1.074   4.057 -0.9722  0.7868 -3.3744
    7MOL    H35 2327   7.670   1.161   4.043  0.3391  0.9894  0.6866
    7MOL    H36 2328   7.564   1.453   4.082  0.6670 -1.9497  1.0134
    7MOL    H37 2329   7.453   1.601   3.929 -4.0258  1.3776 -1.6483
    7MOL    H38 2330   7.183   1.565   3.897  0.1891  0.9661  0.5921
    7MOL    H39 2331   7.090   1.488   3.783 -1.8851  0.4733  1.7985
    7MOL    C40 2332   7.100   1.708   3.757  0.1027 -0.5617  0.3056
    7MOL    C41 2333   7.188   1.814   3.828  0.1476  0.8082  0.1753
    7MOL    C42 2334   7.264   1.891   3.735 -0.2362 -1.2071  0.8188
    7MOL    C43 2335   7.361   1.978   3.792  0.2769  0.1866 -0.2964
    7MOL    C44 2336   7.383   1.991   3.930 -0.1608  0.6423  0.2150
    7MOL    C45 2337   7.486   2.083   3.989 -0.1925  0.3467  0.1850
    7MOL    C46 2338   7.302   1.916   4.017 -0.0136  0.5003 -0.5759
    7MOL    C47 2339   7.208   1.818   3.967  0.3559 -0.1914  0.9997
    7MOL    C48 2340   6.962   1.714   3.815  0.2508 -0.2014 -0.0901
    7MOL    H49 2341   7.088   1.730   3.651  1.5146  1.0733  0.4708
    7MOL    H50 2342   7.252   1.879   3.629 -1.4567 -0.3263  0.8485
    7MOL    H51 2343   7.417   2.034   3.718 -1.6593  1.1506 -1.0476
    7MOL    H52 2344   7.537   2.041   4.076 -1.1457  0.7279  0.9373
    7MOL    H53 2345   7.552   2.101   3.904  0.8758 -1.1093  0.6763
    7MOL    H54 2346   7.444   2.180   4.012  0.0457  0.1468  1.5254
    7MOL    H55 2347   7.316   1.910   4.124  1.1881  1.9067 -0.6285
    7MOL    H56 2348   7.158   1.756   4.040 -1.7639  0.7404  0.3870
    7MOL    H57 2349   6.922   1.814   3.795 -2.0917 -1.8743 -4.5379
    7MOL    H58 2350   6.945   1.713   3.923 -1.1477 -0.2125 -0.2969
    7MOL    C59 2351   6.856   1.612   3.765  0.4168  0.3444  0.9657
    7MOL    C60 2352   6.850   1.613   3.609  0.5410 -0.0284 -0.1035
    7MOL    C61 2353   6.827   1.737   3.540  0.0606 -0.4625 -0.1389
    7MOL    C62 2354   6.835   1.742   3.398 -0.2655  0.1591  0.0223
    7MOL    C63 2355   6.866   1.622   3.327  0.7414  0.0236 -0.4236
    7MOL    C64 2356   6.886   1.622   3.175 -0.6767 -0.4591  0.0478
    7MOL    C65 2357   6.874   1.497   3.397 -0.5675  0.0260 -0.4078
    7MOL    C66 2358   6.869   1.496   3.539 -0.4615  0.0906  0.1251
    7MOL    C67 2359   6.713   1.643   3.815  0.1499 -0.2661 -0.0355
    7MOL    H68 2360   6.877   1.513   3.804  1.8098  0.2140 -0.0991
    7MOL    H69 2361   6.817   1.827   3.599  3.4751 -0.4669  0.5375
    7MOL    H70 2362   6.837   1.840   3.353  2.0240  0.4872  0.7590
    7MOL    H71 2363   6.829   1.536   3.138 -0.6142 -0.6342  0.3545
    7MOL    H72 2364   6.834   1.706   3.129 -1.7470 -1.7177 -1.0645
    7MOL    H73 2365   6.988   1.608   3.141 -0.4567  0.1604  0.4425
    7MOL    H74 2366   6.884   1.402   3.347 -1.2235 -0.2890  0.0441
    7MOL    H75 2367   6.873   1.402   3.592  1.2443  0.3848  0.5592
    7MOL    H76 2368   6.683   1.748   3.806  3.9526  0.8762 -0.4763
    7MOL    H77 2369   6.718   1.626   3.923 -1.3754 -2.6324 -0.3090
    7MOL    C78 2370   6.601   1.544   3.760 -0.4026  0.9232 -0.4945
    7MOL    C79 2371   6.458   1.589   3.781 -0.2828  0.0294 -0.6633
    7MOL    C80 2372   6.359   1.581   3.685  0.2460 -0.3078 -0.7192
    7MOL    C81 2373   6.229   1.633   3.709  0.4608 -0.5226  0.9241
    7MOL    C82 2374   6.200   1.691   3.834 -0.2693 -0.4313 -0.7127
    7MOL    C83 2375   6.055   1.720   3.864 -0.6932  0.1193  1.5253
    7MOL    C84 2376   6.298   1.690   3.932  0.3115  0.1118 -0.4473
    7MOL    C85 2377   6.424   1.645   3.906  0.0075  0.0614  0.4274
    7MOL    C86 2378   6.623   1.394   3.800  0.2694  0.1945 -0.2049
    7MOL    H87 2379   6.604   1.552   3.651  3.0649 -0.0453 -0.4987
    7MOL    H88 2380   6.373   1.513   3.602  1.1976 -2.4633  1.1524
    7MOL    H89 2381   6.156   1.619   3.630 -0.4586  1.5719  1.3754
    7MOL    H90 2382   6.020   1.646   3.935 -1.7639 -1.1285 -0.2660
    7MOL    H91 2383   6.037   1.822   3.899 -2.7999 -0.4652  2.1741
    7MOL    H92 2384   6.011   1.721   3.765  1.9299 -0.9845  0.2808
    7MOL    H93 2385   6.263   1.721   4.029  0.5183  0.3715 -0.4555
    7MOL    H94 2386   6.506   1.658   3.975 -0.1643  3.5260  0.0461
    7MOL    H95 2387   6.589   1.385   3.903  2.6654 -1.3807  0.4917
    7MOL    H96 2388   6.727   1.362   3.799  0.2404  0.0214  1.2051
    7MOL    C97 2389   6.542   1.283   3.730  0.3142 -0.1626  0.2371
    7MOL    C98 2390   6.533   1.159   3.815 -0.2749 -0.1011 -0.7231
    7MOL    C99 2391   6.406   1.119   3.858  0.7248  0.6046  0.8114
    7MOL   C100 2392   6.396   0.996   3.919 -0.0859 -0.5023 -0.7050
    7MOL   C101 2393   6.510   0.911   3.952 -0.1131 -0.2843 -0.2701
    7MOL   C102 2394   6.496   0.773   4.012 -0.0467  0.2581  0.6824
    7MOL   C103 2395   6.635   0.965   3.921  0.1088  0.6584 -0.1078
    7MOL   C104 2396   6.647   1.083   3.845 -0.6683  0.1739  0.3151
    7MOL   C105 2397   6.595   1.255   3.588 -0.2900  0.2888  0.3274
    7MOL   H106 2398   6.439   1.320   3.728  1.1275  2.1309 -2.4467
    7MOL   H107 2399   6.319   1.181   3.840  1.1995  1.5093  1.5704
    7MOL   H108 2400   6.294   0.968   3.937 -0.0081  0.3166  1.0395
    7MOL   H109 2401   6.435   0.773   4.103 -1.2083  2.8522 -0.0364
    7MOL   H110 2402   6.440   0.716   3.939 -2.9612  0.0878  2.9293
    7MOL   H111 2403   6.596   0.732   4.024  0.6815  1.5510 -0.8367
    7MOL   H112 2404   6.720   0.900   3.937 -1.5833 -2.2301 -2.4034
    7MOL   H113 2405   6.746   1.117   3.819 -1.5569  2.8592  0.2972
    7MOL   H114 2406   6.689   1.205   3.611 -1.0294 -0.2417  2.1942
    7MOL   H115 2407   6.632   1.345   3.538  0.4433  0.7375  1.6448
    7MOL   C116 2408   6.499   1.178   3.491  0.3671  0.1267 -0.5390
    7MOL   C117 2409   6.365   1.261   3.471  0.3207 -0.3452 -0.0459
    7MOL   C118 2410   6.238   1.238   3.533 -0.5590 -0.0833 -0.3898
    7MOL   C119 2411   6.129   1.319   3.503 -0.1355 -0.4930 -0.3051
    7MOL   C120 2412   6.151   1.422   3.411  0.0944  0.8054  0.4379
    7MOL   C121 2413   6.034   1.510   3.378  0.0875  0.7990  0.1281
    7MOL   C122 2414   6.272   1.454   3.348 -0.8235  0.0902  0.0009
    7MOL   C123 2415   6.378   1.366   3.374  0.1210 -0.7015  0.3939
    7MOL   C124 2416   6.476   1.024   3.525 -0.0802 -0.0972  0.7595
    7MOL   H125 2417   6.544   1.181   3.391  0.1719  2.5439 -0.5852
    7MOL   H126 2418   6.228   1.157   3.604 -1.4879 -0.5739 -1.0659
    7MOL   H127 2419   6.041   1.302   3.563  0.1689  0.5612  0.4591
    7MOL   H128 2420   6.012   1.577   3.462  0.0139  1.3858 -0.3533
    7MOL   H129 2421   6.051   1.575   3.292 -1.9565 -0.8869 -1.5847
    7MOL   H130 2422   5.947   1.446   3.371 -1.5155  3.1320 -2.3144
    7MOL   H131 2423   6.290   1.534   3.277  1.3535 -0.9701 -0.7103
    7MOL   H132 2424   6.466   1.399   3.320  0.1086 -0.1715  0.6881
    7MOL   H133 2425   6.408   0.988   3.448 -0.5766  1.3749  0.4774
    7MOL   H134 2426   6.425   1.015   3.621 -0.0829 -0.4136  0.7285
    7MOL   C135 2427   6.605   0.942   3.514  0.0282  0.1729  0.1065
    7MOL   C136 2428   6.691   0.973   3.392  0.5154 -0.2355 -0.0598
    7MOL   C137 2429   6.647   0.923   3.273 -0.4600 -0.6333 -0.1228
    7MOL   C138 2430   6.724   0.942   3.149  0.3207  0.0626 -0.9037
    7MOL   C139 2431   6.845   1.012   3.154 -0.2866 -0.0146  0.0664
    7MOL   C140 2432   6.932   1.016   3.030 -0.1657  0.2106 -0.2440
    7MOL   C141 2433   6.892   1.062   3.288 -0.0405  0.6298  0.2989
    7MOL   C142 2434   6.813   1.042   3.401  0.5079 -0.2508 -0.3634
    7MOL   C143 2435   6.581   0.786   3.533  0.6406  0.3646 -0.0538
    7MOL   H144 2436   6.661   0.962   3.605  1.0443  1.1611 -0.7190
    7MOL   H145 2437   6.560   0.861   3.263  0.6608 -2.1670 -0.5472
    7MOL   H146 2438   6.680   0.896   3.062  2.9928 -0.8581 -1.8183
    7MOL   H147 2439   7.033   1.051   3.051 -1.0257  0.9503  2.9176
    7MOL   H148 2440   6.945   0.912   3.002  2.1680  0.2465  0.6058
    7MOL   H149 2441   6.883   1.075   2.953  1.2021  1.1916 -0.3800
    7MOL   H150 2442   6.991   1.104   3.298 -0.3037  0.9748  1.4459
    7MOL   H151 2443   6.851   1.080   3.494 -0.8092 -0.6849  0.3641
    7MOL   H152 2444   6.533   0.745   3.444 -0.0214 -3.0053  1.7445
    7MOL   H153 2445   6.501   0.760   3.603 -0.0101 -1.8920 -1.5573
    7MOL   C154 2446   6.710   0.699   3.560  0.0420 -0.8027  1.0322
    7MOL   C155 2447   6.679   0.550   3.558  0.3724 -0.0646 -0.4176
    7MOL   C156 2448   6.736   0.470   3.461 -0.0216 -0.4070 -0.0253
    7MOL   C157 2449   6.694   0.335   3.448  0.0572 -0.3234  0.1879
    7MOL   C158 2450   6.604   0.278   3.540 -0.7858  0.0167 -0.3592
    7MOL   C159 2451   6.550   0.139   3.516  0.1015 -0.5161  0.2490
    7MOL   C160 2452   6.545   0.362   3.640  0.5694 -0.3630 -0.0399
    7MOL   C161 2453   6.589   0.499   3.653 -0.0224 -0.0374  0.2234
    7MOL   C162 2454   6.785   0.747   3.686 -0.0513 -0.0209  0.0808
    7MOL   H163 2455   6.778   0.712   3.476 -0.8337 -1.2659  0.2529
    7MOL   H164 2456   6.791   0.520   3.383  2.0306  1.1598  2.3652
    7MOL   H165 2457   6.732   0.279   3.364  2.0579 -0.1458  0.9617
    7MOL   H166 2458   6.441   0.147   3.511  0.0081 -1.0417  1.2447
    7MOL   H167 2459   6.569   0.107   3.414 -1.0485 -0.3133 -0.0351
    7MOL   H168 2460   6.579   0.070   3.595 -1.3613  0.6259  1.8274
    7MOL   H169 2461   6.474   0.312   3.704  1.1558 -0.5180  0.4991
    7MOL   H170 2462   6.541   0.559   3.729 -0.2767  1.8391 -1.3770
    7MOL   H171 2463   6.712   0.775   3.762  1.9270 -0.6508  2.2754
    7MOL   H172 2464   6.836   0.840   3.662  0.4102 -0.3461 -0.2201
    7MOL   C173 2465   6.884   0.651   3.760 -0.5990  0.5188  0.4937
    7MOL   C174 2466   6.946   0.713   3.890 -0.5537 -0.2970  0.3856
    7MOL   C175 2467   6.971   0.630   3.999 -0.0481  1.2558  0.4979
    7MOL   C176 2468   7.028   0.668   4.122 -0.5320  0.1461 -0.1666
    7MOL   C177 2469   7.065   0.804   4.132  0.1683  0.0958  0.7027
    7MOL   C178 2470   7.150   0.845   4.253 -0.6686 -0.3269  0.0209
    7MOL   C179 2471   7.048   0.893   4.023  0.6036 -0.2939 -0.3359
    7MOL   C180 2472   6.987   0.848   3.901  0.3239  0.1978  0.4249
    7MOL   C181 2473   6.997   0.610   3.667  0.5243  0.1499 -0.3634
    7MOL   H182 2474   6.825   0.563   3.786  0.1351 -0.5559 -1.2951
    7MOL   H183 2475   6.935   0.529   3.989  0.3201  1.3847 -2.7196
    7MOL   H184 2476   7.060   0.602   4.200 -1.7676  0.7598  0.8697
    7MOL   H185 2477   7.100   0.832   4.348  0.2801 -0.9555  0.4484
    7MOL   H186 2478   7.238   0.781   4.257 -1.5127 -1.4200  1.4379
    7MOL   H187 2479   7.171   0.952   4.246 -0.6571 -0.2355  1.3066
    7MOL   H188 2480   7.082   0.995   4.021  1.3965 -0.5649 -1.7411
    7MOL   H189 2481   6.972   0.921   3.822  3.3963  0.3024 -0.1048
    7MOL   H190 2482   7.053   0.701   3.648  2.9808 -0.6149  2.7910
    7MOL   H191 2483   6.965   0.570   3.571 -2.8865  0.4376  0.5925
    7MOL   C192 2484   7.103   0.508   3.731  0.2522  0.8159 -0.4674
    7MOL   C193 2485   7.237   0.528   3.666 -0.3455  0.5507  0.0079
    7MOL   C194 2486   7.336   0.603   3.740  0.0722  0.2127 -0.3790
    7MOL   C195 2487   7.454   0.631   3.677  0.1269 -0.0580  0.3009
    7MOL   C196 2488   7.486   0.576   3.551  0.6371  0.8731 -0.3048
    7MOL   C197 2489   7.627   0.609   3.501 -0.6614 -0.8560  0.3941
    7MOL   C198 2490   7.390   0.505   3.478 -0.3049  0.0141 -0.9019
    7MOL   C199 2491   7.263   0.484   3.535 -0.3130 -0.3457  0.0052
    7MOL   C200 2492   7.045   0.359   3.716 -0.2928  0.0750 -0.1338
    7MOL   H201 2493   7.121   0.523   3.837 -2.2837  2.1361 -0.1793
    7MOL   H202 2494   7.325   0.640   3.841 -0.7730  0.7365 -0.6538
    7MOL   H203 2495   7.527   0.676   3.743  1.0047 -1.2700  0.1593
    7MOL   H204 2496   7.705   0.612   3.577  0.0538  0.6983 -0.3809
    7MOL   H205 2497   7.651   0.539   3.420 -0.5134  1.7952 -1.9268
    7MOL   H206 2498   7.635   0.707   3.453  1.1057 -1.8337 -1.4172
    7MOL   H207 2499   7.403   0.461   3.381 -1.1467  0.5875 -1.2866
    7MOL   H208 2500   7.189   0.433   3.475  0.0894 -2.7411  1.4515
    7MOL   H209 2501   7.028   0.345   3.609  0.6444 -0.2187 -0.2535
    7MOL   H210 2502   6.946   0.373   3.759  0.3127  1.1579  0.9362
    7MOL   C211 2503   7.132   0.250   3.789 -0.4157 -0.0060  0.0861
    7MOL   C212 2504   7.262   0.213   3.717  0.4829 -0.0063  0.6955
    7MOL   C213 2505   7.375   0.234   3.792 -0.4059  0.0145 -0.1890
    7MOL   C214 2506   7.504   0.218   3.740  0.3879 -0.2453 -0.3718
    7MOL   C215 2507   7.519   0.177   3.604 -0.7238  0.2923  0.6805
    7MOL   C216 2508   7.661   0.180   3.543 -0.2618 -0.1842 -1.1399
    7MOL   C217 2509   7.399   0.149   3.527 -0.3273  0.2900 -0.1594
    7MOL   C218 2510   7.273   0.169   3.585 -0.0158 -0.6759  0.0478
    7MOL   C219 2511   7.037   0.121   3.805  0.4592 -0.6676  0.0443
    7MOL   H220 2512   7.145   0.285   3.891 -0.5026 -0.0184  0.1014
    7MOL   H221 2513   7.364   0.270   3.894 -2.6814 -1.5061  0.1418
    7MOL   H222 2514   7.587   0.241   3.805  2.8412  1.1793 -3.8775
    7MOL   H223 2515   7.741   0.211   3.609 -0.9816 -3.4044  1.3204
    7MOL   H224 2516   7.687   0.078   3.517  2.5669  0.6939 -1.8963
    7MOL   H225 2517   7.675   0.249   3.459  0.0017  3.0905  1.4703
    7MOL   H226 2518   7.408   0.119   3.424 -0.4663 -0.4880  0.0545
    7MOL   H227 2519   7.183   0.177   3.526 -0.7806 -1.0898  1.1511
    7MOL   H228 2520   7.101   0.035   3.828 -0.2433 -1.6987 -1.7426
    7MOL   H229 2521   6.996   0.094   3.708 -0.7489 -2.4871  1.0502
    7MOL   C230 2522   6.940   0.120   3.925 -0.9827 -0.3216 -0.1280
    7MOL   C231 2523   6.996   0.173   4.063 -0.2955  0.5061  0.2752
    7MOL   C232 2524   7.118   0.112   4.105 -0.0554 -0.0462  0.2926
    7MOL   C233 2525   7.171   0.142   4.228  0.2525  0.0702 -0.1985
    7MOL   C234 2526   7.110   0.235   4.317 -0.1508 -0.0516  1.2607
    7MOL   C235 2527   7.173   0.274   4.447  0.2842 -0.3725  0.6691
    7MOL   C236 2528   6.995   0.305   4.269 -0.2681  0.4074  0.6848
    7MOL   C237 2529   6.939   0.278   4.141 -0.0000 -0.3290 -0.6043
    7MOL   C238 2530   6.851   8.080   3.946  0.0793 -0.6805  0.3405
    7MOL   H239 2531   6.874   0.204   3.904 -2.6339 -1.3380  0.8681
    7MOL   H240 2532   7.171   0.035   4.052  0.2272  0.2480  0.1423
    7MOL   H241 2533   7.264   0.095   4.258 -0.8622 -1.8825  0.2566
    7MOL   H242 2534   7.267   0.328   4.443  0.2301 -0.3494 -0.5086
    7MOL   H243 2535   7.112   0.345   4.502  0.3955  1.0632 -1.0347
    7MOL   H244 2536   7.174   0.183   4.508  1.6925 -0.6546  0.2548
    7MOL   H245 2537   6.947   0.387   4.320 -1.4603  0.6369 -0.7573
    7MOL   H246 2538   6.857   0.332   4.096 -0.3833 -1.6246 -1.5045
    7MOL   H247 2539   6.780   8.073   3.864 -0.9688 -0.4994  1.2240
    7MOL   H248 2540   6.786   0.014   4.032  0.9428 -2.1501  1.2696
    7MOL   C249 2541   6.920   7.940   3.958 -0.3858  0.5034 -0.4622
    7MOL   C250 2542   6.948   7.872   3.821  0.5378  0.0029 -0.5241
    7MOL   C251 2543   7.080   7.857   3.777 -0.0833  0.3072 -0.4293
    7MOL   C252 2544   7.110   7.810   3.648  0.0892 -0.1800  0.1911
    7MOL   C253 2545   7.009   7.781   3.551 -0.6038  0.2356 -0.2525
    7MOL   C254 2546   7.048   7.734   3.404 -0.0645  0.2235 -0.6867
    7MOL   C255 2547   6.880   7.792   3.600  0.5405 -0.4650  0.8193
    7MOL   C256 2548   6.842   7.830   3.729  0.1732  0.2450 -0.5643
    7MOL   C257 2549   6.816   7.855   4.036 -0.7988  0.2867  0.3127
    7MOL   H258 2550   7.009   7.943   4.020 -0.8543  0.1984  0.2300
    7MOL   H259 2551   7.167   7.872   3.838 -0.6976 -1.8328  1.0076
    7MOL   H260 2552   7.212   7.780   3.627 -0.0844 -0.0737 -0.8008
    7MOL   H261 2553   7.078   7.631   3.424  0.4754  0.8023  1.5887
    7MOL   H262 2554   6.964   7.720   3.337 -0.4267 -3.0019  0.3415
    7MOL   H263 2555   7.118   7.805   3.360 -0.4190 -0.0813 -1.7429
    7MOL   H264 2556   6.793   7.764   3.542 -0.3839 -0.6337  2.2666
    7MOL   H265 2557   6.739   7.816   3.761  0.0286 -1.2714 -1.6503
    7MOL   H266 2558   6.848   7.762   3.989 -0.2328  1.0751 -0.8647
    7MOL   H267 2559   6.711   7.870   4.011 -0.7002  0.5393  0.0457
    7MOL   C268 2560   6.842   7.839   4.188 -0.3011 -0.2687  0.2450
    7MOL   C269 2561   6.773   7.707   4.238 -0.7297  0.4654  0.1295
    7MOL   C270 2562   6.631   7.712   4.269 -0.3292 -0.6904  0.6735
    7MOL   C271 2563   6.572   7.611   4.347 -0.0287  0.4383  0.2133
    7MOL   C272 2564   6.641   7.502   4.393  0.6838 -0.7019 -0.2782
    7MOL   C273 2565   6.577   7.394   4.478 -0.3578 -0.2158  0.2935
    7MOL   C274 2566   6.772   7.490   4.353  0.3670 -0.0148  0.4557
    7MOL   C275 2567   6.842   7.586   4.274  0.0518  0.3128  0.6353
    7MOL   C276 2568   6.813   7.964   4.275 -0.1327  0.2792  0.9046
    7MOL   H277 2569   6.950   7.830   4.199 -0.0823  0.7190 -0.9322
    7MOL   H278 2570   6.576   7.805   4.263  0.9924 -0.0441 -2.6552
    7MOL   H279 2571   6.470   7.632   4.375 -0.7493 -2.4206 -0.0483
    7MOL   H280 2572   6.534   7.316   4.415 -4.4313  2.7257 -0.8060
    7MOL   H281 2573   6.647   7.342   4.543  0.4349 -0.2483 -0.5764
    7MOL   H282 2574   6.504   7.446   4.540  0.5623  1.4170  0.0401
    7MOL   H283 2575   6.832   7.405   4.384  1.3949 -0.5679 -2.7485
    7MOL   H284 2576   6.945   7.569   4.246 -0.6082 -2.8033 -0.0758
    7MOL   H285 2577   6.707   7.984   4.258 -0.1977 -0.5872  0.2243
    7MOL   H286 2578   6.863   8.054   4.239 -1.3719 -0.0338 -1.6891
    7MOL   C287 2579   6.839   7.948   4.423 -0.3560 -0.7454  0.6866
    7MOL   C288 2580   6.752   8.054   4.499  0.2559  0.4682 -0.1844
    7MOL   C289 2581   6.801   0.100   4.514 -0.6963  0.0838 -0.3746
    7MOL   C290 2582   6.728   0.194   4.583 -0.2039  0.2890 -0.1116
    7MOL   C291 2583   6.601   0.157   4.640  0.4542 -0.9458 -0.7283
    7MOL   C292 2584   6.527   0.259   4.724 -0.0014 -0.3228  0.7890
    7MOL   C293 2585   6.551   0.025   4.618  0.0035 -0.5506  0.3425
    7MOL   C294 2586   6.629   8.012   4.553 -0.0257 -0.4349 -0.3649
    7MOL   C295 2587   6.994   7.963   4.450  0.0323 -0.4306 -0.0948
    7MOL   H296 2588   6.796   7.852   4.451  0.1693 -0.9712  0.7211
    7MOL   H297 2589   6.894   0.136   4.471 -0.3207  0.9481  1.1445
    7MOL   H298 2590   6.765   0.294   4.597  0.8966  0.1619 -2.0197
    7MOL   H299 2591   6.545   0.365   4.706 -1.5684  0.2968  2.6106
    7MOL   H300 2592   6.419   0.246   4.729 -0.3719  1.6654 -1.6155
    7MOL   H301 2593   6.563   0.233   4.824 -1.2397 -1.8380  0.8601
    7MOL   H302 2594   6.461   0.000   4.673 -0.2283 -0.5493 -0.0378
    7MOL   H303 2595   6.609   7.907   4.537  3.0537 -1.0071 -0.7740
    7MOL   H304 2596   7.032   8.054   4.406  2.9614 -0.6419  1.8130
    7MOL   H305 2597   7.064   7.892   4.404 -0.2543 -0.4560 -0.4883
    7MOL   C306 2598   7.042   7.942   4.597  0.6201 -0.1860  0.6982
    7MOL   C307 2599   7.173   8.009   4.618 -0.0920 -0.4692  0.5258
    7MOL   C308 2600   7.288   7.969   4.550 -0.4283 -0.8540  0.3491
    7MOL   C309 2601   7.413   8.027   4.580  0.3209  0.2317  0.9234
    7MOL   C310 2602   7.415   0.066   4.663 -0.0824  0.7689 -0.7365
    7MOL   C311 2603   7.551   0.135   4.702 -0.0499  0.2235 -0.7666
    7MOL   C312 2604   7.297   0.112   4.721  0.1762 -0.6356  0.1787
    7MOL   C313 2605   7.178   0.035   4.707 -0.0811  0.0428  0.1833
    7MOL   C314 2606   7.046   7.794   4.647 -0.3639 -0.9441 -0.5393
    7MOL   H315 2607   6.966   7.991   4.658  0.6653 -0.8336  1.2750
    7MOL   H316 2608   7.292   7.902   4.466 -0.3457  0.1724 -0.4738
    7MOL   H317 2609   7.504   8.002   4.526 -1.2977 -1.2846 -1.1913
    7MOL   H318 2610   7.608   0.147   4.609 -1.0244 -0.0229 -1.4067
    7MOL   H319 2611   7.540   0.238   4.736  0.0946 -0.5237  1.6142
    7MOL   H320 2612   7.611   0.065   4.760 -0.4801  1.3314  1.0542
    7MOL   H321 2613   7.306   0.200   4.783  2.6211  0.6048 -1.8245
    7MOL   H322 2614   7.088   0.068   4.757  1.1880  1.1463  1.8015
    7MOL   H323 2615   7.150   7.761   4.637 -0.3007 -1.0194  0.3663
    7MOL   H324 2616   6.990   7.730   4.579  0.1431 -1.7986 -0.1629
    7MOL   C325 2617   7.017   7.769   4.798  0.0398  0.1265  0.2983
    7MOL   C326 2618   7.042   7.619   4.833 -0.2258  0.4203 -0.3376
    7MOL   C327 2619   7.159   7.583   4.891  0.3663 -0.2726 -0.5038
    7MOL   C328 2620   7.190   7.453   4.922  0.4853 -0.0393  0.2558
    7MOL   C329 2621   7.108   7.346   4.873 -0.5286  0.4934  0.3158
    7MOL   C330 2622   7.155   7.203   4.896  0.1811  0.0770 -0.0351
    7MOL   C331 2623   6.995   7.379   4.796  0.1524  0.2084 -0.3883
    7MOL   C332 2624   6.957   7.515   4.783  0.1264 -0.0517  0.0414
    7MOL   C333 2625   6.869   7.805   4.829  0.6863 -0.4429 -0.1157
    7MOL   H334 2626   7.085   7.818   4.867  0.2680  0.3834 -0.1047
    7MOL   H335 2627   7.233   7.660   4.909 -1.2623  1.0756  0.5009
    7MOL   H336 2628   7.283   7.430   4.972  0.9131  0.3495 -0.3645
    7MOL   H337 2629   7.214   7.193   4.987  1.5130  0.3482 -0.8658
    7MOL   H338 2630   7.079   7.125   4.893 -0.3243  0.5391  0.6543
    7MOL   H339 2631   7.215   7.176   4.809 -0.9797  3.0050 -1.7952
    7MOL   H340 2632   6.936   7.304   4.747 -1.2506  0.6056  0.6465
    7MOL   H341 2633   6.869   7.545   4.728  1.4130  0.7990 -1.5935
    7MOL   H342 2634   6.810   7.713   4.836  0.6726 -0.4847 -0.7079
    7MOL   H343 2635   6.809   7.839   4.744  0.4438  0.5807  0.4638
    7MOL   C344 2636   6.846   7.895   4.947 -0.0284  0.4401 -0.0362
    7MOL   C345 2637   6.702   7.889   4.996  0.1002 -0.0991 -0.0287
    7MOL   C346 2638   6.588   7.925   4.923  0.2148 -0.7419  0.0799
    7MOL   C347 2639   6.456   7.929   4.979 -0.1630  0.6947  1.2688
    7MOL   C348 2640   6.436   7.882   5.112  0.4207 -0.2337  0.2906
    7MOL   C349 2641   6.298   7.894   5.179  0.2159  0.0339 -0.6931
    7MOL   C350 2642   6.549   7.845   5.181  0.2991 -0.0202  0.0622
    7MOL   C351 2643   6.677   7.836   5.126  0.9397 -0.3732  1.0229
    7MOL   C352 2644   6.903   8.037   4.937 -0.0454  0.1106  0.5696
    7MOL   H353 2645   6.898   7.851   5.032 -0.5455  1.2582  0.7008
    7MOL   H354 2646   6.601   7.950   4.819  2.2291 -1.0701  0.2360
    7MOL   H355 2647   6.372   7.956   4.916  1.3186 -0.1637 -1.1360
    7MOL   H356 2648   6.253   7.796   5.191 -0.7590  0.6832  1.1722
    7MOL   H357 2649   6.303   7.938   5.279 -0.8683 -0.0103 -0.6140
    7MOL   H358 2650   6.226   7.952   5.122  0.5084  0.2950 -0.8017
    7MOL   H359 2651   6.532   7.814   5.282  1.0128  1.5496  0.6905
    7MOL   H360 2652   6.757   7.794   5.185  1.0838 -1.3927  0.1281
    7MOL   H361 2653   6.855   8.075   4.846 -1.0394 -1.2750  0.4960
    7MOL   H362 2654   7.011   8.035   4.922  0.0657 -2.4504  1.4720
    7MOL   C363 2655   6.876   0.064   5.051 -0.0751 -0.4593 -0.2156
    7MOL   C364 2656   6.924   0.199   5.006 -0.3506  0.6265 -0.0134
    7MOL   C365 2657   7.012   0.274   5.080  0.4710 -0.0013 -0.1406
    7MOL   C366 2658   7.049   0.407   5.048 -0.2066 -0.2181  0.4635
    7MOL   C367 2659   6.996   0.464   4.933 -0.2395 -0.6196 -0.0962
    7MOL   C368 2660   7.035   0.607   4.895 -0.3651  0.6141  0.1386
    7MOL   C369 2661   6.901   0.397   4.855  0.6235 -0.2802  0.0423
    7MOL   C370 2662   6.868   0.261   4.890  0.3813  0.1708 -0.1694
    7MOL   C371 2663   6.932   0.009   5.187  0.3619 -0.1150 -0.3725
    7MOL   H372 2664   6.768   0.066   5.063 -0.3673  0.1847 -2.7523
    7MOL   H373 2665   7.050   0.243   5.177 -0.5642  1.4078  0.7494
    7MOL   H374 2666   7.124   0.462   5.103 -0.2602 -0.8231  1.1365
    7MOL   H375 2667   6.999   0.686   4.962 -0.9575  0.1988  0.3124
    7MOL   H376 2668   7.144   0.604   4.894 -0.3961 -0.9423  0.1303
    7MOL   H377 2669   7.009   0.628   4.791 -2.4860  1.3306  0.7858
    7MOL   H378 2670   6.854   0.443   4.769 -1.1652 -1.5373  0.3042
    7MOL   H379 2671   6.796   0.219   4.822 -0.2021 -1.1400  1.2306
    7MOL   H380 2672   7.038   8.066   5.188  0.3216 -0.5322 -2.6848
    7MOL   H381 2673   6.890   7.992   5.213  1.2563 -0.1340  1.0042
    7MOL   H382 2674   6.904   0.075   5.269 -1.5154  0.1952 -1.2107
    8MOL     C1 2675   3.982   1.583   6.673 -0.0189  0.4207 -0.0126
    8MOL     C2 2676   3.845   1.588   6.610  0.6586 -0.3319 -0.2861
    8MOL     C3 2677   3.819   1.608   6.469 -0.2617 -0.1431 -0.2114
    8MOL     C4 2678   3.693   1.643   6.421 -0.0567  1.1367  0.1231
    8MOL     C5 2679   3.583   1.638   6.507 -0.4103  0.6030 -0.0498
    8MOL     C6 2680   3.450   1.664   6.453 -0.1941  0.0384  0.3179
    8MOL     C7 2681   3.599   1.601   6.643 -0.1771  0.4003  0.1048
    8MOL     C8 2682   3.728   1.576   6.692 -0.3388 -0.2564  0.6956
    8MOL     C9 2683   4.071   1.703   6.645 -0.7445 -0.2747 -0.0857
    8MOL    H10 2684   3.969   1.575   6.781 -0.8019  0.5155 -0.0985
    8MOL    H11 2685   3.903   1.606   6.401 -0.0357  2.1638 -0.0403
    8MOL    H12 2686   3.679   1.655   6.314  0.7360 -1.5083 -0.3138
    8MOL    H13 2687   3.417   1.760   6.494  2.1670  1.2912 -0.5517
    8MOL    H14 2688   3.452   1.686   6.346  2.9352  0.9368  0.4856
    8MOL    H15 2689   3.385   1.580   6.474 -0.2671 -0.6628 -2.4606
    8MOL    H16 2690   3.510   1.588   6.702  0.1454  0.0238  0.5117
    8MOL    H17 2691   3.731   1.555   6.797  2.6432 -2.4296  0.2368
    8MOL    H18 2692   4.040   1.776   6.720  1.4693  0.6229 -0.0109
    8MOL    H19 2693   4.044   1.752   6.551 -0.0082  0.5767  0.1442
    8MOL    H20 2694   4.023   1.493   6.626 -0.0231 -0.5580  1.8011
    8MOL    C21 2695   4.221   1.667   6.648  0.1737  0.9561  0.0948
    8MOL    C22 2696   4.270   1.611   6.782  0.6685 -0.1460 -0.0082
    8MOL    C23 2697   4.218   1.668   6.901  0.3293 -0.0224  0.2394
    8MOL    C24 2698   4.282   1.644   7.023 -0.9299 -0.2593 -0.9200
    8MOL    C25 2699   4.388   1.551   7.030 -0.1398 -0.0464  0.2604
    8MOL    C26 2700   4.451   1.519   7.166  0.5060  1.6897 -0.1780
    8MOL    C27 2701   4.427   1.479   6.910  0.2126 -0.0866 -0.2238
    8MOL    C28 2702   4.368   1.511   6.785 -0.4650  0.2742 -0.6312
    8MOL    C29 2703   4.297   1.793   6.601  0.3128  0.3039  0.2428
    8MOL    H30 2704   4.235   1.586   6.576  1.9925  0.5820  0.8450
    8MOL    H31 2705   4.143   1.745   6.891  0.2128 -0.2001 -0.2691
    8MOL    H32 2706   4.246   1.678   7.119 -0.7076  2.8680 -1.9077
    8MOL    H33 2707   4.372   1.479   7.230  1.2169 -1.6175 -1.2475
    8MOL    H34 2708   4.517   1.433   7.151  0.0460  1.1467  0.8364
    8MOL    H35 2709   4.503   1.605   7.207 -0.6827  2.5736 -0.5239
    8MOL    H36 2710   4.501   1.401   6.912 -1.3063 -1.5685 -0.3455
    8MOL    H37 2711   4.413   1.466   6.697 -0.9947 -1.6773  0.0791
    8MOL    H38 2712   4.390   1.793   6.657 -0.2164  2.2281  1.1653
    8MOL    H39 2713   4.248   1.883   6.639  1.4990  1.9147 -1.9145
    8MOL    C40 2714   4.318   1.810   6.452 -0.4931  0.0333 -0.1934
    8MOL    C41 2715   4.385   1.693   6.387  0.5871  0.4007 -0.2286
    8MOL    C42 2716   4.309   1.629   6.290 -0.7094  0.9593  0.2445
    8MOL    C43 2717   4.366   1.520   6.217 -0.4174 -0.1153 -0.4580
    8MOL    C44 2718   4.501   1.481   6.237 -0.2060  0.2020 -0.7201
    8MOL    C45 2719   4.549   1.366   6.158 -0.0430 -0.8510 -0.3207
    8MOL    C46 2720   4.578   1.545   6.334 -0.6584  0.0719 -0.1526
    8MOL    C47 2721   4.515   1.650   6.416 -0.9456  0.3417  0.7007
    8MOL    C48 2722   4.398   1.941   6.436 -0.2591 -0.0993  0.2888
    8MOL    H49 2723   4.221   1.826   6.405 -0.3102 -1.5243 -1.1323
    8MOL    H50 2724   4.211   1.668   6.267 -1.6244 -2.0818 -1.3159
    8MOL    H51 2725   4.316   1.480   6.130  1.8894  1.1230 -2.3954
    8MOL    H52 2726   4.590   1.407   6.066 -2.7222  0.3436 -1.0413
    8MOL    H53 2727   4.622   1.301   6.206  0.4353  1.5793  2.4283
    8MOL    H54 2728   4.466   1.304   6.125 -1.9713  0.6100  1.6516
    8MOL    H55 2729   4.670   1.495   6.358 -1.0371 -0.3837  0.3682
    8MOL    H56 2730   4.580   1.707   6.482 -0.7794  1.0452 -0.0508
    8MOL    H57 2731   4.484   1.926   6.502 -0.0172 -1.1202 -0.2479
    8MOL    H58 2732   4.338   2.021   6.478  0.1666 -0.1271  0.9633
    8MOL    C59 2733   4.457   1.974   6.296 -0.1591 -0.7251 -0.4946
    8MOL    C60 2734   4.566   2.086   6.294 -0.6580  0.0451  1.2394
    8MOL    C61 2735   4.552   2.224   6.325 -0.5241 -0.4064 -0.0429
    8MOL    C62 2736   4.667   2.311   6.315 -0.7702  0.3743  0.1043
    8MOL    C63 2737   4.792   2.260   6.295 -0.0300 -0.0093  0.3655
    8MOL    C64 2738   4.907   2.357   6.278  0.3259  0.4324 -0.4138
    8MOL    C65 2739   4.807   2.119   6.273  0.0378 -0.8201  0.0591
    8MOL    C66 2740   4.696   2.034   6.266  0.0899  0.2034 -0.4481
    8MOL    C67 2741   4.340   2.009   6.207  0.0996  0.4768 -0.5398
    8MOL    H68 2742   4.489   1.886   6.240  0.1464 -0.2924 -1.0063
    8MOL    H69 2743   4.449   2.256   6.333 -0.3558  0.7640 -2.1304
    8MOL    H70 2744   4.652   2.418   6.322  0.0674  0.4015  1.6350
    8MOL    H71 2745   4.998   2.302   6.255  0.0961  0.9589 -2.7156
    8MOL    H72 2746   4.888   2.427   6.197 -2.0454  2.1546  1.5475
    8MOL    H73 2747   4.926   2.423   6.362 -1.9528  1.9281 -1.0206
    8MOL    H74 2748   4.904   2.076   6.254  0.8018  0.4273  1.0305
    8MOL    H75 2749   4.716   1.933   6.234 -1.9740 -1.3723  2.9918
    8MOL    H76 2750   4.304   2.106   6.242 -0.6504  0.8182 -2.1633
    8MOL    H77 2751   4.259   1.938   6.222 -0.6289  1.2687 -0.6198
    8MOL    C78 2752   4.365   2.019   6.056  0.2525 -0.2637 -0.1975
    8MOL    C79 2753   4.289   2.135   5.995  0.0557  0.4097 -0.4211
    8MOL    C80 2754   4.335   2.227   5.905  0.1461 -0.1039 -0.9925
    8MOL    C81 2755   4.255   2.330   5.848  0.3390 -0.0256 -0.2959
    8MOL    C82 2756   4.120   2.339   5.877 -0.0204 -0.3445 -0.6283
    8MOL    C83 2757   4.044   2.449   5.812  0.6761 -0.3047 -0.1602
    8MOL    C84 2758   4.067   2.250   5.970 -0.6856  0.3034 -0.3945
    8MOL    C85 2759   4.148   2.143   6.030  0.2581  0.7756  0.1404
    8MOL    C86 2760   4.345   1.879   5.983 -0.0857  0.0433  0.4463
    8MOL    H87 2761   4.470   2.036   6.032 -0.1093  1.0266 -0.9300
    8MOL    H88 2762   4.437   2.220   5.870  0.3794  1.0143 -0.5427
    8MOL    H89 2763   4.302   2.396   5.777  1.4797 -1.2909 -0.7498
    8MOL    H90 2764   4.086   2.462   5.713  2.4186 -3.9043  0.0161
    8MOL    H91 2765   3.943   2.407   5.811  0.4490  0.1785  1.1201
    8MOL    H92 2766   4.044   2.541   5.870 -0.1554 -0.4389  0.0625
    8MOL    H93 2767   3.963   2.255   6.000 -0.2345  0.3680  1.2096
    8MOL    H94 2768   4.096   2.066   6.086  1.1222 -1.2767 -1.7675
    8MOL    H95 2769   4.240   1.850   5.998 -0.9512  2.2024 -1.1633
    8MOL    H96 2770   4.406   1.810   6.041  1.4533 -0.2638 -1.5070
    8MOL    C97 2771   4.389   1.860   5.835  0.1496 -0.2086  0.3038
    8MOL    C98 2772   4.304   1.752   5.770 -0.7519 -0.1019 -0.4775
    8MOL    C99 2773   4.239   1.779   5.648  0.1778  0.4110 -0.2669
    8MOL   C100 2774   4.157   1.676   5.592 -0.9091 -0.0614  0.3142
    8MOL   C101 2775   4.129   1.557   5.669 -0.0524  0.5031  0.1572
    8MOL   C102 2776   4.056   1.439   5.606  0.0011  0.3465 -0.3386
    8MOL   C103 2777   4.184   1.539   5.801  0.0714 -0.6355 -0.6768
    8MOL   C104 2778   4.275   1.639   5.847  0.0713  0.3876  0.0464
    8MOL   C105 2779   4.531   1.813   5.815 -0.3649 -0.2091 -0.5681
    8MOL   H106 2780   4.375   1.955   5.782  2.3779  0.0010  0.0154
    8MOL   H107 2781   4.262   1.869   5.592 -1.3715  0.3195 -1.0616
    8MOL   H108 2782   4.118   1.687   5.492 -2.0715  1.7150  0.9452
    8MOL   H109 2783   4.062   1.346   5.662  0.0504  0.0154 -0.8879
    8MOL   H110 2784   3.950   1.462   5.596  0.4034  2.3767 -0.0898
    8MOL   H111 2785   4.108   1.418   5.512 -1.6193 -0.6676 -1.0369
    8MOL   H112 2786   4.160   1.453   5.861  1.6961 -1.6601 -1.4908
    8MOL   H113 2787   4.334   1.627   5.936 -0.3358 -0.0252  0.2630
    8MOL   H114 2788   4.549   1.792   5.710  2.7389  0.0494 -0.1318
    8MOL   H115 2789   4.547   1.721   5.870 -2.1503 -0.4194 -0.3468
    8MOL   C116 2790   4.649   1.899   5.866  0.5398  0.0413  0.3042
    8MOL   C117 2791   4.649   2.040   5.816  0.0677 -0.7628 -0.0994
    8MOL   C118 2792   4.619   2.059   5.679  0.2249 -0.9061 -0.0209
    8MOL   C119 2793   4.626   2.186   5.625 -0.2385 -0.7837 -0.8220
    8MOL   C120 2794   4.667   2.293   5.706  0.4878  0.0858 -0.9002
    8MOL   C121 2795   4.682   2.426   5.652 -0.2609 -0.0926  0.3686
    8MOL   C122 2796   4.700   2.273   5.841  0.0374 -0.7195 -0.5862
    8MOL   C123 2797   4.684   2.145   5.897  0.7752 -0.9493 -0.0270
    8MOL   C124 2798   4.785   1.838   5.845 -0.3200  0.1539 -0.4137
    8MOL   H125 2799   4.646   1.897   5.975  1.5814 -0.4879  0.3302
    8MOL   H126 2800   4.580   1.987   5.609 -0.4171 -1.0544  0.4811
    8MOL   H127 2801   4.602   2.195   5.520  1.6699  1.3479 -1.1032
    8MOL   H128 2802   4.786   2.456   5.664 -0.3356 -0.6786  2.7971
    8MOL   H129 2803   4.651   2.432   5.548  2.2751  0.5723 -0.3916
    8MOL   H130 2804   4.626   2.506   5.700 -0.5895 -0.2993  0.3274
    8MOL   H131 2805   4.732   2.352   5.907  1.7600 -0.7388 -1.3677
    8MOL   H132 2806   4.702   2.140   6.004  1.3189  1.9697  0.0645
    8MOL   H133 2807   4.858   1.913   5.874  0.1318 -0.1567 -0.7432
    8MOL   H134 2808   4.789   1.810   5.740 -0.3677 -0.4897 -0.2483
    8MOL   C135 2809   4.805   1.707   5.924  0.0251  0.5715  0.2667
    8MOL   C136 2810   4.886   1.724   6.052 -0.3576 -0.3499  0.0845
    8MOL   C137 2811   4.857   1.649   6.167  0.0780  0.3373 -0.5359
    8MOL   C138 2812   4.939   1.658   6.277 -0.2165  0.2380  0.4720
    8MOL   C139 2813   5.063   1.726   6.278  0.1827  0.1352  0.5189
    8MOL   C140 2814   5.153   1.726   6.403 -0.1227  0.5845 -0.7828
    8MOL   C141 2815   5.100   1.800   6.167  0.8900  0.4202 -0.1390
    8MOL   C142 2816   5.013   1.798   6.054  0.2585 -0.5886  0.0992
    8MOL   C143 2817   4.865   1.595   5.834  0.3539 -0.5534 -0.3224
    8MOL   H144 2818   4.710   1.686   5.973 -0.9592  1.6278 -1.1373
    8MOL   H145 2819   4.776   1.577   6.170 -0.8793  1.4684  2.0604
    8MOL   H146 2820   4.917   1.591   6.358 -1.2254 -0.4943 -0.3949
    8MOL   H147 2821   5.259   1.715   6.383 -0.4945 -0.3947 -2.2990
    8MOL   H148 2822   5.130   1.810   6.469  0.4668  0.1993 -0.0753
    8MOL   H149 2823   5.116   1.644   6.464  0.3562  0.7809 -0.2216
    8MOL   H150 2824   5.188   1.862   6.157 -0.2804  1.7560 -2.5942
    8MOL   H151 2825   5.052   1.856   5.972  0.5960 -1.8814 -0.6687
    8MOL   H152 2826   4.895   1.517   5.904 -0.6432  2.2589  3.3935
    8MOL   H153 2827   4.942   1.649   5.779 -0.2516 -0.8004 -1.4262
    8MOL   C154 2828   4.780   1.531   5.725  0.6275  0.2980 -0.0592
    8MOL   C155 2829   4.690   1.411   5.778  0.1298  0.4619  0.7889
    8MOL   C156 2830   4.746   1.305   5.856 -0.0524  0.2932 -1.0116
    8MOL   C157 2831   4.667   1.195   5.893  0.2189 -0.1132 -0.1856
    8MOL   C158 2832   4.529   1.197   5.871  0.2989 -0.7173 -0.2781
    8MOL   C159 2833   4.451   1.079   5.925 -0.5884 -0.1113 -0.2101
    8MOL   C160 2834   4.473   1.312   5.808  0.4139  0.5448  0.1491
    8MOL   C161 2835   4.553   1.421   5.759 -0.1244  0.5084 -0.0796
    8MOL   C162 2836   4.859   1.476   5.605 -0.7410  0.5013  0.4061
    8MOL   H163 2837   4.702   1.601   5.693 -0.5512 -1.1851 -0.5290
    8MOL   H164 2838   4.852   1.298   5.874 -0.3458  0.3475  0.8522
    8MOL   H165 2839   4.714   1.113   5.944  1.1637 -1.0012 -2.4033
    8MOL   H166 2840   4.424   1.094   6.030  0.4708 -0.6023  0.1391
    8MOL   H167 2841   4.368   1.062   5.856  0.2955  1.7683 -1.7847
    8MOL   H168 2842   4.522   0.996   5.926  1.6684  1.8085  1.4992
    8MOL   H169 2843   4.366   1.326   5.802  0.4314  1.3097  1.3843
    8MOL   H170 2844   4.505   1.502   5.706  1.4511 -0.6605 -3.4602
    8MOL   H171 2845   4.830   1.375   5.577 -1.3080  0.3234  1.5929
    8MOL   H172 2846   4.961   1.471   5.643 -0.0223 -1.7534 -1.7118
    8MOL   C173 2847   4.843   1.565   5.479 -0.1734  0.2993  0.6118
    8MOL   C174 2848   4.739   1.510   5.382 -0.5073 -0.4950  0.6630
    8MOL   C175 2849   4.764   1.395   5.303 -0.4917  0.4321  0.0577
    8MOL   C176 2850   4.663   1.332   5.230 -0.4655 -0.0741  0.4230
    8MOL   C177 2851   4.542   1.393   5.213  0.3443 -0.4711 -0.2633
    8MOL   C178 2852   4.442   1.332   5.124  0.0262 -0.0561  0.1367
    8MOL   C179 2853   4.519   1.515   5.283 -0.8183  0.0140  0.9795
    8MOL   C180 2854   4.614   1.569   5.368  0.5932  0.5855 -0.5081
    8MOL   C181 2855   4.978   1.579   5.412  0.1730 -0.0636  0.1725
    8MOL   H182 2856   4.812   1.669   5.495 -0.7224  0.4121 -1.1575
    8MOL   H183 2857   4.849   1.328   5.308 -0.3832  0.6195  0.9268
    8MOL   H184 2858   4.690   1.247   5.169  1.2645  2.1688 -2.0728
    8MOL   H185 2859   4.488   1.258   5.059 -1.6816 -0.9537 -0.0654
    8MOL   H186 2860   4.354   1.292   5.175 -0.4273 -0.7460 -1.1735
    8MOL   H187 2861   4.388   1.406   5.065 -1.7791 -0.4375  1.2655
    8MOL   H188 2862   4.429   1.573   5.280 -0.9966 -0.3021 -0.2644
    8MOL   H189 2863   4.581   1.649   5.433 -0.2332 -0.9000  0.9156
    8MOL   H190 2864   4.965   1.606   5.307  0.5520 -1.7568 -0.3292
    8MOL   H191 2865   5.018   1.478   5.410  1.0846  0.3038 -0.1854
    8MOL   C192 2866   5.070   1.683   5.478 -0.2288  0.1568 -0.1181
    8MOL   C193 2867   5.023   1.826   5.442  0.4935 -0.5895  0.0040
    8MOL   C194 2868   4.965   1.918   5.532 -0.9063 -0.5486  0.4213
    8MOL   C195 2869   4.917   2.043   5.491 -0.2413 -0.4361 -0.2820
    8MOL   C196 2870   4.929   2.086   5.358 -0.6655  0.0856 -0.4358
    8MOL   C197 2871   4.883   2.221   5.323 -0.4907  0.4484 -0.2106
    8MOL   C198 2872   4.999   2.007   5.266  0.7549  0.1832  0.2805
    8MOL   C199 2873   5.053   1.881   5.308  0.2211 -0.3991 -0.7989
    8MOL   C200 2874   5.222   1.668   5.439  0.6658 -0.3574  0.8710
    8MOL   H201 2875   5.072   1.675   5.587  1.6232 -0.3549 -0.1810
    8MOL   H202 2876   4.952   1.881   5.632 -0.2874  0.9673  1.0759
    8MOL   H203 2877   4.865   2.103   5.563  0.3513  0.4389 -0.5703
    8MOL   H204 2878   4.900   2.292   5.404 -0.0578 -2.2072  2.0671
    8MOL   H205 2879   4.944   2.256   5.240  0.1460  2.2092  0.9754
    8MOL   H206 2880   4.779   2.215   5.290 -1.0191 -1.5388  1.7700
    8MOL   H207 2881   5.010   2.036   5.162  0.1012  1.4799  0.5604
    8MOL   H208 2882   5.106   1.830   5.229 -0.2975 -0.3202 -1.2041
    8MOL   H209 2883   5.267   1.765   5.463 -1.0034  0.5698  0.3560
    8MOL   H210 2884   5.228   1.664   5.330 -1.1959  1.0459  0.6737
    8MOL   C211 2885   5.301   1.549   5.494 -0.0803 -0.1298 -0.1640
    8MOL   C212 2886   5.266   1.526   5.644 -0.3669  0.1418  0.3094
    8MOL   C213 2887   5.237   1.400   5.696 -0.4592 -0.4900 -0.1157
    8MOL   C214 2888   5.228   1.381   5.833 -0.1426 -0.1091  0.4137
    8MOL   C215 2889   5.242   1.491   5.921 -0.8520  0.2212  0.1399
    8MOL   C216 2890   5.222   1.453   6.070  0.5109  0.0660 -0.4442
    8MOL   C217 2891   5.270   1.624   5.877  0.5024 -0.6333  0.2833
    8MOL   C218 2892   5.280   1.636   5.734 -0.1614  0.0409  0.4264
    8MOL   C219 2893   5.447   1.551   5.465 -0.0867  0.0724  0.0398
    8MOL   H220 2894   5.264   1.462   5.440  0.1583  0.5635 -1.4616
    8MOL   H221 2895   5.234   1.313   5.632  1.3857  0.4167 -1.4566
    8MOL   H222 2896   5.211   1.284   5.877  0.0436  0.1733  1.1233
    8MOL   H223 2897   5.116   1.442   6.096  0.8757 -2.0938  0.2659
    8MOL   H224 2898   5.275   1.361   6.095 -2.4168 -2.5676 -3.3274
    8MOL   H225 2899   5.250   1.524   6.147  0.3544 -2.5810  2.1673
    8MOL   H226 2900   5.282   1.717   5.929 -1.1710  0.8372 -1.8600
    8MOL   H227 2901   5.316   1.724   5.683 -1.0473  0.9193  1.2952
    8MOL   H228 2902   5.504   1.468   5.506 -0.0422  0.2800  0.3994
    8MOL   H229 2903   5.492   1.641   5.508  2.2431 -0.3786 -1.3727
    8MOL   C230 2904   5.475   1.528   5.315 -0.0891 -0.3622  0.1687
    8MOL   C231 2905   5.465   1.376   5.276  0.1069 -0.2873  0.4160
    8MOL   C232 2906   5.347   1.323   5.216 -0.1272  0.0078  0.5448
    8MOL   C233 2907   5.354   1.184   5.181 -0.1353 -0.4130  0.2284
    8MOL   C234 2908   5.467   1.104   5.197  0.4215 -0.3740  0.2640
    8MOL   C235 2909   5.471   0.969   5.140 -0.2276  0.2728 -0.1772
    8MOL   C236 2910   5.571   1.153   5.278  0.6435 -0.5714 -0.9892
    8MOL   C237 2911   5.572   1.286   5.311  0.0138  0.0297 -0.0039
    8MOL   C238 2912   5.600   1.598   5.256  0.4614 -0.3029 -0.2698
    8MOL   H239 2913   5.395   1.559   5.247  1.3111 -0.6690 -1.6486
    8MOL   H240 2914   5.263   1.387   5.194  0.4077  0.5711  0.1232
    8MOL   H241 2915   5.275   1.145   5.118  0.0533 -0.7157  0.1766
    8MOL   H242 2916   5.408   0.900   5.196 -0.6479  2.0596  1.6164
    8MOL   H243 2917   5.416   0.978   5.046 -1.6664  1.3968  0.7577
    8MOL   H244 2918   5.574   0.933   5.127  0.3240  2.6247 -2.5853
    8MOL   H245 2919   5.657   1.092   5.303  2.1061  1.1894 -1.6670
    8MOL   H246 2920   5.653   1.325   5.371  2.6134 -1.9611 -2.1089
    8MOL   H247 2921   5.613   1.569   5.152  0.2523 -1.3063 -0.0192
    8MOL   H248 2922   5.690   1.568   5.310  0.9174  3.0000  0.9054
    8MOL   C249 2923   5.599   1.748   5.259  0.4035 -0.6129  0.0488
    8MOL   C250 2924   5.506   1.804   5.150 -0.1966  0.9797 -0.9519
    8MOL   C251 2925   5.530   1.780   5.014  0.0274 -0.0708  0.2348
    8MOL   C252 2926   5.447   1.845   4.924  0.6183  0.0202  0.0946
    8MOL   C253 2927   5.339   1.928   4.961  0.1335  0.1724  0.3407
    8MOL   C254 2928   5.248   2.005   4.864  0.0609 -0.2036 -0.0248
    8MOL   C255 2929   5.309   1.942   5.092  0.2140 -0.0731 -0.4735
    8MOL   C256 2930   5.395   1.883   5.184  0.7761 -0.2981 -0.4327
    8MOL   C257 2931   5.741   1.820   5.246 -0.2250  0.5955 -0.1963
    8MOL   H258 2932   5.560   1.769   5.359  2.4259 -1.6497  1.1067
    8MOL   H259 2933   5.610   1.717   4.978  0.7865  1.8691 -1.5782
    8MOL   H260 2934   5.464   1.831   4.819  0.3099  2.1201 -0.2619
    8MOL   H261 2935   5.167   1.936   4.841  0.5003 -0.9429  0.6202
    8MOL   H262 2936   5.211   2.091   4.920  1.7899  0.8667 -0.4890
    8MOL   H263 2937   5.300   2.041   4.776  2.2437 -0.5934  1.0839
    8MOL   H264 2938   5.230   2.010   5.120 -0.0787  0.0141 -1.4709
    8MOL   H265 2939   5.367   1.892   5.288 -0.8893  0.8014 -0.9484
    8MOL   H266 2940   5.778   1.820   5.143 -0.7874  0.8371 -0.3978
    8MOL   H267 2941   5.814   1.764   5.305  0.2625  1.7944  0.3577
    8MOL   C268 2942   5.735   1.964   5.290  0.2298  0.2589 -0.0069
    8MOL   C269 2943   5.749   2.076   5.182  0.5444  0.4453  0.2101
    8MOL   C270 2944   5.876   2.106   5.123 -0.2838  0.7832  0.2081
    8MOL   C271 2945   5.884   2.215   5.035 -0.0988 -0.8689 -0.8417
    8MOL   C272 2946   5.776   2.299   5.002  0.0879 -0.8291  0.2728
    8MOL   C273 2947   5.792   2.426   4.906 -0.0975 -0.6523  0.5499
    8MOL   C274 2948   5.650   2.267   5.065  0.0890  0.5827  0.2662
    8MOL   C275 2949   5.636   2.152   5.149 -0.2500 -0.9075  0.2944
    8MOL   C276 2950   5.825   1.990   5.415 -0.0881  0.4015  0.2104
    8MOL   H277 2951   5.633   1.978   5.326  0.7918  0.9724  1.3546
    8MOL   H278 2952   5.952   2.034   5.148 -0.4109  0.3072 -0.7714
    8MOL   H279 2953   5.975   2.251   4.989 -1.8206  0.8508 -3.0164
    8MOL   H280 2954   5.776   2.517   4.963 -1.0238 -1.1920  1.1568
    8MOL   H281 2955   5.897   2.431   4.875  0.2544  2.1224  2.0503
    8MOL   H282 2956   5.724   2.416   4.822  1.9538 -1.8356 -1.0357
    8MOL   H283 2957   5.560   2.320   5.040  0.2102  1.1660  1.0288
    8MOL   H284 2958   5.543   2.128   5.199 -1.5887  1.7575 -0.8160
    8MOL   H285 2959   5.844   2.096   5.403 -1.5415  0.5601 -0.8971
    8MOL   H286 2960   5.926   1.956   5.391 -0.1400  1.5439 -1.7800
    8MOL   C287 2961   5.765   1.972   5.552 -0.4565  1.0782 -0.2391
    8MOL   C288 2962   5.627   2.034   5.560 -0.1047 -0.3878 -0.3381
    8MOL   C289 2963   5.520   1.952   5.588  0.7642  0.2837 -0.4254
    8MOL   C290 2964   5.395   2.010   5.592  0.8691 -0.1486 -0.1220
    8MOL   C291 2965   5.370   2.151   5.572 -0.0896 -0.4014  0.1994
    8MOL   C292 2966   5.236   2.215   5.606 -0.1261  0.0160  0.4153
    8MOL   C293 2967   5.481   2.237   5.544 -0.7121  0.1909 -0.5485
    8MOL   C294 2968   5.608   2.168   5.529 -0.2908  0.6827 -0.0533
    8MOL   C295 2969   5.857   2.032   5.664 -0.2306 -0.6289  0.1779
    8MOL   H296 2970   5.758   1.865   5.573  0.6799  0.6881 -1.7638
    8MOL   H297 2971   5.528   1.846   5.608  2.0409  0.0780 -1.9240
    8MOL   H298 2972   5.314   1.945   5.622  1.3506 -1.2682 -1.1589
    8MOL   H299 2973   5.239   2.284   5.691  1.3736 -0.1132  0.4775
    8MOL   H300 2974   5.203   2.277   5.523 -2.1174  1.6919  2.3612
    8MOL   H301 2975   5.152   2.155   5.642 -0.9090  1.3277  0.8285
    8MOL   H302 2976   5.466   2.341   5.519 -1.9701 -0.3538 -2.1324
    8MOL   H303 2977   5.684   2.235   5.490 -1.8319  2.2180 -0.4866
    8MOL   H304 2978   5.876   2.138   5.644 -1.8929 -0.0061  1.7815
    8MOL   H305 2979   5.959   1.994   5.673  0.3674  1.2202  1.8212
    8MOL   C306 2980   5.804   2.017   5.805 -0.2055  0.6350  0.3044
    8MOL   C307 2981   5.906   2.071   5.899  0.0055  0.6291  0.4204
    8MOL   C308 2982   6.026   1.999   5.924  0.3295  0.7800 -0.5697
    8MOL   C309 2983   6.126   2.044   6.012  0.5983 -0.1938 -0.8595
    8MOL   C310 2984   6.096   2.163   6.092  0.2491  0.3116  0.2948
    8MOL   C311 2985   6.200   2.225   6.186 -0.0162 -0.2948  0.9179
    8MOL   C312 2986   5.974   2.236   6.066 -1.0947  0.4259  0.1872
    8MOL   C313 2987   5.884   2.187   5.968  0.1618  0.1151  1.2419
    8MOL   C314 2988   5.767   1.867   5.841 -0.2831 -0.3026  0.2728
    8MOL   H315 2989   5.710   2.072   5.817 -1.7789 -1.5585 -1.6308
    8MOL   H316 2990   6.045   1.911   5.864  0.4213 -0.0933  0.7220
    8MOL   H317 2991   6.222   1.994   6.012  0.9303  0.4430 -0.1062
    8MOL   H318 2992   6.275   2.282   6.131  0.8971  1.0857  3.4801
    8MOL   H319 2993   6.149   2.273   6.270  0.8095  1.2039  0.5832
    8MOL   H320 2994   6.267   2.147   6.220  0.6646 -1.1435 -2.1997
    8MOL   H321 2995   5.959   2.329   6.119 -0.2813  0.5706  0.1693
    8MOL   H322 2996   5.794   2.247   5.956  1.9562  2.9574  1.3965
    8MOL   H323 2997   5.856   1.805   5.830  0.0221  0.2055 -0.1668
    8MOL   H324 2998   5.683   1.830   5.782  0.1843  1.0659 -1.3098
    8MOL   C325 2999   5.727   1.829   5.985 -0.1555 -0.3566  0.4530
    8MOL   C326 3000   5.739   1.677   6.007 -0.0451  0.0374  0.2370
    8MOL   C327 3001   5.857   1.630   6.072  0.1448  0.5738 -0.0898
    8MOL   C328 3002   5.876   1.493   6.089 -0.0209 -0.1927  0.3770
    8MOL   C329 3003   5.781   1.407   6.030  0.2679  0.3158 -0.1078
    8MOL   C330 3004   5.807   1.258   6.020  0.1575 -0.2135 -0.1483
    8MOL   C331 3005   5.661   1.452   5.977 -0.1499  0.9858  0.1545
    8MOL   C332 3006   5.638   1.587   5.966  0.1879  0.0073  0.2189
    8MOL   C333 3007   5.598   1.891   6.032  0.5756  0.3682 -0.2125
    8MOL   H334 3008   5.811   1.867   6.044 -0.0357 -0.5296  0.3922
    8MOL   H335 3009   5.926   1.706   6.105 -0.7332  0.9010  1.0208
    8MOL   H336 3010   5.964   1.442   6.126  0.2799 -0.1222 -0.2286
    8MOL   H337 3011   5.871   1.229   6.103  0.6418  1.4560  0.0707
    8MOL   H338 3012   5.708   1.212   6.017  1.0826 -2.2687 -0.4429
    8MOL   H339 3013   5.852   1.234   5.923  1.1062 -0.8113  0.4278
    8MOL   H340 3014   5.587   1.388   5.933 -0.5939  0.3811  1.7282
    8MOL   H341 3015   5.546   1.623   5.923 -0.5176 -0.1594  1.5675
    8MOL   H342 3016   5.538   1.820   6.088  0.5321  0.2011 -0.4733
    8MOL   H343 3017   5.525   1.902   5.951  0.2076 -0.2916  0.0283
    8MOL   C344 3018   5.593   2.022   6.113  0.4602 -0.3130  0.3726
    8MOL   C345 3019   5.660   2.013   6.250  0.0851 -0.3177  0.3039
    8MOL   C346 3020   5.743   2.116   6.297  0.4438 -0.5931  0.1594
    8MOL   C347 3021   5.802   2.107   6.424 -0.3188 -0.7361  0.3252
    8MOL   C348 3022   5.797   1.987   6.497 -0.3769  0.4279  0.0995
    8MOL   C349 3023   5.855   1.971   6.630 -0.4881  0.1500  0.6901
    8MOL   C350 3024   5.713   1.886   6.451 -0.2938  0.4909  0.5669
    8MOL   C351 3025   5.634   1.899   6.332 -0.1122  0.0522  0.6217
    8MOL   C352 3026   5.452   2.065   6.139 -0.1404  0.3057  0.3854
    8MOL   H353 3027   5.639   2.101   6.053 -2.1842  0.7474 -0.2943
    8MOL   H354 3028   5.775   2.194   6.230  2.3134 -2.6822 -1.4687
    8MOL   H355 3029   5.864   2.190   6.456 -0.3763 -0.4432 -0.3086
    8MOL   H356 3030   5.849   2.072   6.669 -1.8933  0.1801  0.4158
    8MOL   H357 3031   5.799   1.896   6.687  1.6778 -0.8048  1.6289
    8MOL   H358 3032   5.960   1.945   6.623 -0.4842  0.1057  0.9209
    8MOL   H359 3033   5.682   1.806   6.517  0.0762  1.0478  1.4198
    8MOL   H360 3034   5.571   1.820   6.293 -0.2769  0.2041  0.5781
    8MOL   H361 3035   5.453   2.117   6.235  1.1855 -1.3873  1.3186
    8MOL   H362 3036   5.392   1.975   6.152  0.5101 -0.1697  0.1465
    8MOL   C363 3037   5.388   2.165   6.033  0.3953  0.2522  0.3836
    8MOL   C364 3038   5.458   2.304   6.014  0.1559 -0.3288  0.1874
    8MOL   C365 3039   5.487   2.389   6.125 -0.0722 -0.0563  0.5779
    8MOL   C366 3040   5.570   2.505   6.111 -0.8516 -0.6455 -0.0429
    8MOL   C367 3041   5.609   2.543   5.981 -0.5068 -0.3518  0.5195
    8MOL   C368 3042   5.685   2.670   5.952  0.4593 -0.4895 -0.2693
    8MOL   C369 3043   5.568   2.465   5.866  0.4851 -0.2630  0.7331
    8MOL   C370 3044   5.497   2.347   5.887 -0.3848  0.0392 -0.2948
    8MOL   C371 3045   5.240   2.189   6.076  0.2829 -0.6004 -0.1821
    8MOL   H372 3046   5.393   2.127   5.932 -0.0303  2.9623 -0.7081
    8MOL   H373 3047   5.459   2.345   6.219 -0.8314 -0.4355  0.1829
    8MOL   H374 3048   5.593   2.581   6.184  0.9856  1.4600 -2.7400
    8MOL   H375 3049   5.618   2.735   5.895  0.9731  1.1854  1.0046
    8MOL   H376 3050   5.726   2.717   6.042 -0.5357 -0.3544  0.1235
    8MOL   H377 3051   5.772   2.648   5.890  0.6756 -1.8483  0.5076
    8MOL   H378 3052   5.591   2.497   5.766  0.0203 -3.1215 -0.3344
    8MOL   H379 3053   5.467   2.281   5.807  0.3131 -2.6483  1.6037
    8MOL   H380 3054   5.174   2.264   6.034  0.4187  0.8798  2.1240
    8MOL   H381 3055   5.249   2.198   6.185  3.9269  1.3342 -0.5530
    8MOL   H382 3056   5.176   2.102   6.062 -0.9125  0.2871 -0.3175
    9MOL     C1 3057   7.777   0.013   7.472 -0.7897 -0.1907 -0.1945
    9MOL     C2 3058   7.678   0.129   7.465 -0.0357  0.9874  0.2292
    9MOL     C3 3059   7.560   0.119   7.534  0.7639 -1.0428  0.2434
    9MOL     C4 3060   7.470   0.231   7.537 -0.2621  0.2180 -0.6789
    9MOL     C5 3061   7.499   0.353   7.469 -0.1656 -0.0109 -0.0308
    9MOL     C6 3062   7.403   0.463   7.467 -0.5776 -0.1928 -0.5153
    9MOL     C7 3063   7.616   0.356   7.397  0.0520 -0.7199 -0.0170
    9MOL     C8 3064   7.706   0.249   7.394  0.1159  0.0384  0.3736
    9MOL     C9 3065   7.917   0.052   7.525 -0.2244  0.2757 -0.1059
    9MOL    H10 3066   7.730   8.013   7.529 -1.9470  0.2463 -0.5266
    9MOL    H11 3067   7.532   0.028   7.584 -0.7171 -0.0126  1.3137
    9MOL    H12 3068   7.382   0.215   7.597 -0.0990 -1.4523 -0.8789
    9MOL    H13 3069   7.329   0.457   7.546  0.1353  2.4189  0.4236
    9MOL    H14 3070   7.447   0.563   7.463 -1.5480  0.4042  2.2247
    9MOL    H15 3071   7.354   0.442   7.372  1.4065  1.4307 -1.9525
    9MOL    H16 3072   7.638   0.444   7.338 -1.1063  0.0735  0.7131
    9MOL    H17 3073   7.799   0.269   7.343 -0.2880 -0.3240 -0.4960
    9MOL    H18 3074   7.909   0.096   7.624  2.6370  0.9878 -0.1642
    9MOL    H19 3075   7.965   0.130   7.467  0.0746  2.3158  2.8404
    9MOL    H20 3076   7.791   8.047   7.374  1.4551  0.1932 -0.0888
    9MOL    C21 3077   8.012   8.009   7.543  0.1914 -0.4456 -0.0495
    9MOL    C22 3078   7.940   7.891   7.623 -0.1520 -0.2798  0.6164
    9MOL    C23 3079   7.889   7.917   7.749 -0.4596  0.2508  0.3894
    9MOL    C24 3080   7.819   7.814   7.821 -0.3508  0.1342  0.2127
    9MOL    C25 3081   7.817   7.678   7.771 -0.1936 -0.6472 -0.2429
    9MOL    C26 3082   7.742   7.565   7.838 -0.4197  0.3670 -0.1310
    9MOL    C27 3083   7.869   7.657   7.646 -0.5613  0.0220 -0.4000
    9MOL    C28 3084   7.933   7.762   7.572  0.0591  0.0658  0.7482
    9MOL    C29 3085   0.061   8.057   7.613 -0.5167 -0.9922  0.0675
    9MOL    H30 3086   8.029   7.974   7.441 -0.5300 -1.7693  0.2765
    9MOL    H31 3087   7.892   8.016   7.792  1.8552 -0.4942  2.0523
    9MOL    H32 3088   7.770   7.848   7.911  2.7683  2.1891  1.2057
    9MOL    H33 3089   7.753   7.548   7.945 -0.8615  0.9138  0.0031
    9MOL    H34 3090   7.635   7.568   7.820 -0.1896 -1.7834 -2.0600
    9MOL    H35 3091   7.766   7.473   7.785 -0.8522 -0.8051  1.6704
    9MOL    H36 3092   7.856   7.559   7.602 -1.5084  0.1685 -0.4766
    9MOL    H37 3093   7.976   7.749   7.474 -1.1892  2.7157 -0.2068
    9MOL    H38 3094   0.120   7.967   7.628  0.3611 -0.4966 -0.3740
    9MOL    H39 3095   0.041   0.016   7.713  1.3311  0.1435  0.0177
    9MOL    C40 3096   0.152   0.082   7.547  0.3351  0.0685  0.3144
    9MOL    C41 3097   0.184   0.038   7.404  0.2963 -0.8822 -0.1569
    9MOL    C42 3098   0.221   7.985   7.365 -0.2016 -0.1278 -0.2501
    9MOL    C43 3099   0.257   7.957   7.233 -0.0399  0.1611  0.1635
    9MOL    C44 3100   0.268   8.054   7.137  0.9265 -0.1375  0.2437
    9MOL    C45 3101   0.295   8.019   6.992 -0.0209 -0.4076  0.4841
    9MOL    C46 3102   0.235   0.105   7.174 -0.5931  0.3762 -0.0426
    9MOL    C47 3103   0.185   0.139   7.304 -0.0091 -0.2084  0.1327
    9MOL    C48 3104   0.283   0.107   7.635  0.4473 -0.1236 -0.4528
    9MOL    H49 3105   0.097   0.173   7.524 -1.5574 -1.0275  0.3369
    9MOL    H50 3106   0.218   7.900   7.431  2.6530 -0.3456 -0.3625
    9MOL    H51 3107   0.271   7.852   7.212 -1.2498  0.2034 -0.8762
    9MOL    H52 3108   0.363   0.013   6.950 -0.8368 -0.7916 -1.5483
    9MOL    H53 3109   0.335   7.918   6.982 -2.3957 -1.3288 -0.0513
    9MOL    H54 3110   0.200   8.009   6.940  0.3019  0.0003 -0.1847
    9MOL    H55 3111   0.226   0.180   7.096 -3.5456 -1.5814 -1.6678
    9MOL    H56 3112   0.171   0.245   7.320  1.1701  0.1538 -1.1141
    9MOL    H57 3113   0.354   0.162   7.573  1.0499 -0.1487  0.2126
    9MOL    H58 3114   0.327   0.017   7.677  0.8899  0.4931  0.4073
    9MOL    C59 3115   0.258   0.201   7.755 -0.5266 -1.0041  0.6102
    9MOL    C60 3116   0.238   0.347   7.710 -0.2663 -0.0083  0.5494
    9MOL    C61 3117   0.111   0.407   7.703  0.4086 -0.4834  0.7403
    9MOL    C62 3118   0.098   0.544   7.668  0.1207 -0.6706 -0.4276
    9MOL    C63 3119   0.211   0.615   7.635 -0.1848  0.0935  0.2128
    9MOL    C64 3120   0.194   0.759   7.587 -0.1595  0.2799 -0.5823
    9MOL    C65 3121   0.340   0.556   7.646 -0.5290 -0.6016  0.5913
    9MOL    C66 3122   0.351   0.425   7.682 -0.3002 -0.2293  0.4112
    9MOL    C67 3123   0.358   0.188   7.873  0.1738  0.0752 -0.4065
    9MOL    H68 3124   0.162   0.179   7.802 -0.9451 -0.1873  0.1582
    9MOL    H69 3125   0.022   0.354   7.732 -0.3250  0.3772  0.1026
    9MOL    H70 3126   0.006   0.600   7.679  0.5264 -0.3642  1.7618
    9MOL    H71 3127   0.096   0.782   7.628  0.4142  2.3576 -0.3310
    9MOL    H72 3128   0.251   0.836   7.640 -0.1788 -0.5610  0.6990
    9MOL    H73 3129   0.192   0.765   7.478 -0.0458 -0.0337 -0.6016
    9MOL    H74 3130   0.428   0.616   7.631 -2.0774  1.9475  1.4066
    9MOL    H75 3131   0.455   0.396   7.688 -0.2948 -0.0645  1.2007
    9MOL    H76 3132   0.355   0.280   7.932 -2.4403  0.6632 -1.3991
    9MOL    H77 3133   0.457   0.193   7.829  1.0366  2.1357  1.6389
    9MOL    C78 3134   0.352   0.055   7.960 -0.1360  0.2305  0.0122
    9MOL    C79 3135   0.213   0.038   8.021 -0.0783 -0.9803  0.2031
    9MOL    C80 3136   0.159   0.144   0.020  0.4951 -0.1948  0.5679
    9MOL    C81 3137   0.025   0.139   0.062  0.4354 -0.2206 -0.2148
    9MOL    C82 3138   8.027   0.026   0.033  0.7052  0.2808  0.2060
    9MOL    C83 3139   7.876   0.017   0.067 -0.5254  0.4492 -0.0984
    9MOL    C84 3140   8.075   8.000   8.040 -0.7463 -0.8293  0.3187
    9MOL    C85 3141   0.129   8.009   7.991 -0.3883  0.0982 -1.6190
    9MOL    C86 3142   0.457   0.064   8.073  0.2999 -0.0470 -0.4770
    9MOL    H87 3143   0.378   8.047   7.901  1.0224 -0.1500  1.0648
    9MOL    H88 3144   0.219   0.233   0.030  0.8955 -0.4193  0.1567
    9MOL    H89 3145   8.059   0.220   0.117 -1.5000 -0.6872 -1.1139
    9MOL    H90 3146   7.823   8.039   8.071 -2.5566  0.2448  1.4108
    9MOL    H91 3147   7.864   8.052   0.166 -0.3189  1.0010  0.1777
    9MOL    H92 3148   7.821   0.110   0.080  0.6712  1.0177  1.0365
    9MOL    H93 3149   8.009   7.918   8.014  0.4394 -2.0588  1.1452
    9MOL    H94 3150   0.168   7.936   7.922  1.6245  0.8903 -1.3520
    9MOL    H95 3151   0.446   0.150   0.060 -2.3351  1.2809 -2.4997
    9MOL    H96 3152   0.545   0.091   8.014 -0.7514 -0.1106 -2.1102
    9MOL    C97 3153   0.485   8.020   0.074 -0.7743  0.1160 -0.9021
    9MOL    C98 3154   0.386   8.009   0.190  0.0869  0.1769  0.1028
    9MOL    C99 3155   0.299   7.891   0.189 -0.0806 -0.4059  0.3023
    9MOL   C100 3156   0.185   7.895   0.273  0.2640  0.1764 -0.2766
    9MOL   C101 3157   0.173   7.987   0.377 -0.2300 -0.4972  0.4281
    9MOL   C102 3158   0.053   7.975   0.464  0.1245 -0.5300  0.4518
    9MOL   C103 3159   0.263   0.016   0.383  0.1492  0.5883  0.2222
    9MOL   C104 3160   0.360   0.036   0.281 -0.0077 -0.0603  0.2882
    9MOL   C105 3161   0.632   8.011   0.112  0.5693 -0.6788 -0.1156
    9MOL   H106 3162   0.461   7.931   0.015 -2.0150 -0.6777  0.7705
    9MOL   H107 3163   0.305   7.827   0.102 -3.2582  0.1309 -0.3616
    9MOL   H108 3164   0.105   7.823   0.268 -0.7184  1.2589 -0.2221
    9MOL   H109 3165   0.075   7.896   0.536 -0.8667 -2.3831 -1.2265
    9MOL   H110 3166   0.044   8.075   0.507 -1.3203 -1.1696  1.6828
    9MOL   H111 3167   8.049   7.946   0.401 -0.2515  0.6671  0.3843
    9MOL   H112 3168   0.254   0.084   0.466 -0.8337  0.4554  0.2323
    9MOL   H113 3169   0.419   0.126   0.271  1.0976 -0.7307  0.7490
    9MOL   H114 3170   0.646   0.024   0.168 -2.2003 -1.7111  2.4673
    9MOL   H115 3171   0.692   8.017   0.022  1.8612 -3.8348  0.4486
    9MOL   C116 3172   0.671   7.897   0.207 -0.9956 -0.4916 -0.4247
    9MOL   C117 3173   0.826   7.906   0.203  0.2480  0.5077 -0.1663
    9MOL   C118 3174   0.897   7.876   0.083 -0.6003  0.4799 -0.3708
    9MOL   C119 3175   1.038   7.877   0.091  0.0222  0.4295  0.5305
    9MOL   C120 3176   1.109   7.902   0.214 -0.3058  0.9969 -0.1633
    9MOL   C121 3177   1.259   7.891   0.217 -0.4702 -0.4257 -0.2574
    9MOL   C122 3178   1.038   7.924   0.330  0.1542  0.0478 -0.2349
    9MOL   C123 3179   0.898   7.931   0.324 -0.6218 -0.5602 -0.1269
    9MOL   C124 3180   0.614   7.759   0.169 -1.0291 -0.0372  0.0635
    9MOL   H125 3181   0.638   7.916   0.309  0.5129  1.0340 -0.1956
    9MOL   H126 3182   0.847   7.858   8.069 -1.0364 -2.6257  0.4114
    9MOL   H127 3183   1.096   7.855   0.003  0.4623 -1.4962  1.2671
    9MOL   H128 3184   1.296   7.865   0.316  0.2870 -1.0350 -0.6878
    9MOL   H129 3185   1.306   7.817   0.151 -1.8342  0.2891 -2.0799
    9MOL   H130 3186   1.302   7.986   0.187  4.0795 -2.2253  0.0657
    9MOL   H131 3187   1.096   7.939   0.420  1.2167 -0.7606 -0.7715
    9MOL   H132 3188   0.851   7.945   0.421  3.1452  0.1656  1.6823
    9MOL   H133 3189   0.590   7.762   0.063 -1.2818  1.3146  0.1423
    9MOL   H134 3190   0.513   7.760   0.211 -1.1724  2.0781 -0.2863
    9MOL   C135 3191   0.691   7.632   0.214  0.9178  0.4982  0.3479
    9MOL   C136 3192   0.631   7.507   0.152 -0.3558  0.2875 -0.2956
    9MOL   C137 3193   0.506   7.461   0.186 -0.0816  0.3140 -1.1523
    9MOL   C138 3194   0.449   7.349   0.114  0.8878 -0.2073  0.2186
    9MOL   C139 3195   0.527   7.277   0.024 -0.9704  0.1302  0.3563
    9MOL   C140 3196   0.470   7.153   8.032  0.2790 -0.0007 -0.1348
    9MOL   C141 3197   0.662   7.324   8.073 -0.0646  0.6727  0.4457
    9MOL   C142 3198   0.704   7.443   0.056  0.8154 -0.3241  0.0196
    9MOL   C143 3199   0.707   7.621   0.371 -0.0021  1.0158  0.6128
    9MOL   H144 3200   0.787   7.649   0.166 -0.5152  0.7019 -2.5825
    9MOL   H145 3201   0.450   7.519   0.258  0.7390  1.2824 -1.2922
    9MOL   H146 3202   0.351   7.320   0.150  1.4419 -2.1510  0.1900
    9MOL   H147 3203   0.554   7.083   8.024 -2.4662 -3.4216 -0.5218
    9MOL   H148 3204   0.398   7.105   0.019 -0.8168  2.9589  0.8704
    9MOL   H149 3205   0.418   7.189   7.944 -1.6024  0.4372  1.1272
    9MOL   H150 3206   0.729   7.275   8.004 -0.1051  1.1444  0.0690
    9MOL   H151 3207   0.804   7.481   0.038  0.0602  1.3816 -0.6428
    9MOL   H152 3208   0.616   7.593   0.425 -0.0525  0.2263  0.1269
    9MOL   H153 3209   0.732   7.720   0.410 -2.0306  1.4134  0.9360
    9MOL   C154 3210   0.822   7.520   0.405  0.1444 -0.8266 -0.4934
    9MOL   C155 3211   0.824   7.507   0.553 -0.1384  0.7239 -0.0143
    9MOL   C156 3212   0.867   7.613   0.633 -0.0879  0.0400  0.3501
    9MOL   C157 3213   0.881   7.599   0.773  0.0350  0.0570 -0.7492
    9MOL   C158 3214   0.836   7.483   0.839 -0.7224  0.2474 -0.2731
    9MOL   C159 3215   0.834   7.463   0.989 -0.0499  0.1524  0.3820
    9MOL   C160 3216   0.781   7.381   0.765 -0.0528  0.6235 -0.1677
    9MOL   C161 3217   0.784   7.382   0.621 -0.1742 -1.0062  0.0436
    9MOL   C162 3218   0.954   7.556   0.353 -0.4648 -0.0891  1.0132
    9MOL   H163 3219   0.797   7.424   0.361 -4.7399 -0.3846  0.9111
    9MOL   H164 3220   0.886   7.709   0.587  1.6511 -1.7033 -2.7734
    9MOL   H165 3221   0.919   7.681   0.833 -0.1461  0.1339 -0.7396
    9MOL   H166 3222   0.856   7.361   1.019  1.7413  0.5271  0.4198
    9MOL   H167 3223   0.903   7.529   1.041 -0.5987  0.1073  1.1708
    9MOL   H168 3224   0.735   7.486   1.030  0.3148 -0.2090  1.4919
    9MOL   H169 3225   0.744   7.294   0.817 -0.1201  0.3632 -0.6433
    9MOL   H170 3226   0.745   7.297   0.567 -0.6010 -0.1563 -0.9972
    9MOL   H171 3227   0.995   7.640   0.409  0.3761  0.7246 -0.7610
    9MOL   H172 3228   0.954   7.598   0.252 -1.5757 -1.2450  0.5264
    9MOL   C173 3229   1.064   7.443   0.349  0.2540 -0.3361 -0.0341
    9MOL   C174 3230   1.198   7.504   0.335  0.1284 -0.4035 -0.3008
    9MOL   C175 3231   1.279   7.522   0.457 -0.6534  0.5054  0.2871
    9MOL   C176 3232   1.406   7.578   0.438 -0.9389 -0.1969 -0.3492
    9MOL   C177 3233   1.465   7.599   0.316 -0.8604  0.6143 -0.5962
    9MOL   C178 3234   1.606   7.651   0.296 -0.8349 -0.4146  0.9757
    9MOL   C179 3235   1.392   7.576   0.198  0.5589  0.2835 -0.1193
    9MOL   C180 3236   1.258   7.534   0.216 -0.5617  0.0795 -0.1150
    9MOL   C181 3237   1.041   7.346   0.230 -0.2148  0.4033  0.1029
    9MOL   H182 3238   1.056   7.396   0.447 -1.9873  1.8675  0.8983
    9MOL   H183 3239   1.257   7.502   0.561  2.4901 -2.4909  0.4532
    9MOL   H184 3240   1.452   7.606   0.532 -1.9458 -0.4021  0.2196
    9MOL   H185 3241   1.641   7.647   0.193 -0.4730 -1.5123  1.1289
    9MOL   H186 3242   1.597   7.755   0.327  0.6048  0.1644 -0.4745
    9MOL   H187 3243   1.685   7.601   0.353 -2.2218  0.1259  3.4645
    9MOL   H188 3244   1.437   7.588   0.100 -0.5227 -1.9437 -0.9393
    9MOL   H189 3245   1.192   7.524   0.131 -2.5904  0.1905  1.4261
    9MOL   H190 3246   1.011   7.411   0.148 -3.2557  0.2726  1.0295
    9MOL   H191 3247   0.950   7.293   0.260 -0.7022  0.4534 -1.2432
    9MOL   C192 3248   1.156   7.248   0.188 -0.2367  0.7024  0.4216
    9MOL   C193 3249   1.157   7.228   0.034 -0.4388 -0.4110  0.5398
    9MOL   C194 3250   1.285   7.244   8.053  0.0964  0.1040 -0.1170
    9MOL   C195 3251   1.305   7.234   7.919  0.3159  0.1790  0.3788
    9MOL   C196 3252   1.193   7.199   7.839 -0.0377  0.2437  0.1990
    9MOL   C197 3253   1.216   7.179   7.694 -0.2993  1.0938  0.2430
    9MOL   C198 3254   1.066   7.175   7.897  0.0034  0.1628 -0.0749
    9MOL   C199 3255   1.043   7.188   8.039  0.1417 -0.3522  0.3267
    9MOL   C200 3256   1.141   7.107   0.248  0.1562  0.5662 -0.4355
    9MOL   H201 3257   1.251   7.289   0.222 -1.6481  4.0529  0.4272
    9MOL   H202 3258   1.367   7.280   0.034 -0.6387  0.9382  0.3773
    9MOL   H203 3259   1.402   7.254   7.876  1.1722 -1.1083  1.6998
    9MOL   H204 3260   1.291   7.239   7.642  0.9374  0.5371  1.3592
    9MOL   H205 3261   1.243   7.074   7.683  2.2216  1.9234 -2.1996
    9MOL   H206 3262   1.120   7.183   7.643 -0.7248 -0.1213  0.9258
    9MOL   H207 3263   0.983   7.145   7.834  0.0460 -0.1418  0.0112
    9MOL   H208 3264   0.948   7.160   0.003 -0.0817  0.3357  0.2843
    9MOL   H209 3265   1.209   7.034   0.205  0.1482  0.4433 -0.2387
    9MOL   H210 3266   1.045   7.066   0.216 -1.8557  2.4430  2.8833
    9MOL   C211 3267   1.142   7.090   0.412  0.2244 -0.5602  0.2351
    9MOL   C212 3268   1.265   7.140   0.478  0.2238  0.4230  0.1821
    9MOL   C213 3269   1.256   7.197   0.605  0.1375  0.3447  0.7155
    9MOL   C214 3270   1.369   7.258   0.667  0.5903 -0.2904 -0.4146
    9MOL   C215 3271   1.494   7.248   0.601  0.0194  0.6999 -0.2353
    9MOL   C216 3272   1.626   7.281   0.678 -0.0446 -0.5008 -0.2587
    9MOL   C217 3273   1.505   7.187   0.478  0.6868  0.1285  0.4906
    9MOL   C218 3274   1.387   7.129   0.414 -0.1384 -0.4013  0.6456
    9MOL   C219 3275   1.113   6.937   0.449 -0.4493  0.0596 -0.2388
    9MOL   H220 3276   1.064   7.158   0.446  1.7722  1.0115  0.7777
    9MOL   H221 3277   1.164   7.207   0.660  0.8160  1.6341  1.6310
    9MOL   H222 3278   1.362   7.290   0.770 -0.4415  0.8868 -0.8441
    9MOL   H223 3279   1.719   7.251   0.630  0.7195 -0.5260  1.2119
    9MOL   H224 3280   1.617   7.389   0.686 -0.8405 -0.5542 -0.3804
    9MOL   H225 3281   1.616   7.243   0.779 -0.3951  2.5473  0.9035
    9MOL   H226 3282   1.598   7.182   0.422  1.7532  1.5583  2.0676
    9MOL   H227 3283   1.396   7.076   0.320  0.9526  0.7236  0.0970
    9MOL   H228 3284   1.206   6.899   0.492 -1.3530 -1.5193  0.3641
    9MOL   H229 3285   1.105   6.873   0.362  1.4074  2.1101 -1.9517
    9MOL   C230 3286   0.997   6.898   0.545 -0.0240  0.0752 -0.0904
    9MOL   C231 3287   0.855   6.915   0.474  0.0330 -0.3005  0.1270
    9MOL   C232 3288   0.788   6.806   0.417  0.0706  0.2364  0.8424
    9MOL   C233 3289   0.662   6.810   0.353 -0.2486 -0.6166 -0.7742
    9MOL   C234 3290   0.600   6.941   0.338  0.4759 -0.0814  0.2401
    9MOL   C235 3291   0.467   6.958   0.266  0.6083 -0.3264 -0.0385
    9MOL   C236 3292   0.664   7.048   0.401  0.2484  0.1313  0.0200
    9MOL   C237 3293   0.787   7.040   0.465  0.3285  0.3281  0.6005
    9MOL   C238 3294   1.006   6.949   0.694 -0.2568 -0.2170 -0.1260
    9MOL   H239 3295   1.004   6.790   0.546  2.4647  0.1602 -3.1930
    9MOL   H240 3296   0.841   6.712   0.417  2.3616  1.4904  0.2127
    9MOL   H241 3297   0.614   6.724   0.309 -1.5616 -0.5399  0.4547
    9MOL   H242 3298   0.379   6.902   0.300  0.7541  0.4425  1.6601
    9MOL   H243 3299   0.435   7.062   0.261 -0.4988 -0.5862  1.0934
    9MOL   H244 3300   0.477   6.912   0.168 -2.9415 -1.1202 -0.1086
    9MOL   H245 3301   0.622   7.147   0.389  1.3687  0.7108  0.8186
    9MOL   H246 3302   0.835   7.125   0.512  1.2611  0.8517 -1.2598
    9MOL   H247 3303   0.915   6.910   0.738  0.3243 -1.2614  0.1694
    9MOL   H248 3304   0.983   7.055   0.690  1.0553  0.1341  1.0889
    9MOL   C249 3305   1.140   6.922   0.772 -0.1954 -1.0815 -0.3655
    9MOL   C250 3306   1.180   6.772   0.765 -0.5511 -0.6398 -0.0111
    9MOL   C251 3307   1.098   6.672   0.819 -0.4179  0.0114  0.0708
    9MOL   C252 3308   1.139   6.538   0.812  0.0430 -0.5743  0.3659
    9MOL   C253 3309   1.254   6.501   0.742  0.7468  0.1532 -0.6012
    9MOL   C254 3310   1.304   6.356   0.738  0.0045 -0.1202 -0.3567
    9MOL   C255 3311   1.325   6.601   0.677  0.2879 -0.3893 -0.1265
    9MOL   C256 3312   1.298   6.737   0.692 -0.5724  0.3415 -0.0459
    9MOL   C257 3313   1.111   6.966   0.919  0.5498  0.2514  0.0552
    9MOL   H258 3314   1.223   6.985   0.740  0.2156 -0.4962  1.7782
    9MOL   H259 3315   1.011   6.696   0.878  0.8798  1.1011  1.5761
    9MOL   H260 3316   1.085   6.456   0.857 -0.6656 -2.3210 -3.4324
    9MOL   H261 3317   1.330   6.337   0.842 -1.2205 -0.0882 -0.0395
    9MOL   H262 3318   1.216   6.295   0.715  2.1393 -3.5341  0.1300
    9MOL   H263 3319   1.383   6.328   0.669 -0.0346  1.3566 -1.0204
    9MOL   H264 3320   1.413   6.565   0.626  0.6684  1.0877 -0.5429
    9MOL   H265 3321   1.363   6.813   0.652 -1.1030  1.0901  0.5051
    9MOL   H266 3322   1.018   6.912   0.940  0.2793 -0.3905 -2.6646
    9MOL   H267 3323   1.092   7.073   0.922  0.4151  0.1997  1.3931
    9MOL   C268 3324   1.212   6.925   1.034 -0.0017  0.2600 -0.8326
    9MOL   C269 3325   1.161   6.924   1.178  0.1297 -0.3214  0.6794
    9MOL   C270 3326   1.200   6.822   1.264 -0.7247 -0.2318  0.1567
    9MOL   C271 3327   1.153   6.812   1.396 -0.1644  0.3394 -0.7943
    9MOL   C272 3328   1.055   6.903   1.439  0.1192  0.1495 -0.2904
    9MOL   C273 3329   0.999   6.903   1.587  0.0560  0.5008  0.0599
    9MOL   C274 3330   1.020   7.013   1.355 -0.1052  0.4349 -0.0525
    9MOL   C275 3331   1.077   7.028   1.224  0.8161  0.0465 -0.4473
    9MOL   C276 3332   1.332   7.018   1.014 -0.2363 -0.1511 -0.0268
    9MOL   H277 3333   1.261   6.829   1.015  0.6243  0.3517  0.2647
    9MOL   H278 3334   1.272   6.749   1.231 -2.4333 -1.4112 -1.0280
    9MOL   H279 3335   1.181   6.740   1.472 -3.0589  0.8246  0.8040
    9MOL   H280 3336   0.902   6.946   1.610 -1.1710 -1.9417 -0.3824
    9MOL   H281 3337   0.988   6.802   1.627  0.7998  0.2667 -0.3234
    9MOL   H282 3338   1.075   6.960   1.641  0.4614 -0.1581  0.1898
    9MOL   H283 3339   0.950   7.084   1.396 -0.1423 -0.4162  1.3771
    9MOL   H284 3340   1.068   7.111   1.156 -0.6783 -0.9927 -1.5519
    9MOL   H285 3341   1.301   7.116   1.050 -0.1463 -0.3867  0.6952
    9MOL   H286 3342   1.354   7.038   0.909  1.4829  1.9059  0.6859
    9MOL   C287 3343   1.457   6.979   1.095 -0.4259  0.2067  0.3175
    9MOL   C288 3344   1.547   7.101   1.102 -0.6371 -0.1916 -0.1708
    9MOL   C289 3345   1.524   7.210   1.190 -0.2189 -0.0677  0.5592
    9MOL   C290 3346   1.611   7.322   1.198 -0.1760 -0.2925  0.1710
    9MOL   C291 3347   1.724   7.332   1.115  1.2775 -0.6079 -0.2060
    9MOL   C292 3348   1.823   7.446   1.132 -0.1202 -0.1117 -0.0487
    9MOL   C293 3349   1.733   7.241   1.011 -0.1241  0.5295  0.0080
    9MOL   C294 3350   1.649   7.126   1.006 -0.1413 -0.2827  0.0234
    9MOL   C295 3351   1.519   6.853   1.045 -0.5564 -0.1113  0.2448
    9MOL   H296 3352   1.423   6.970   1.198 -0.2278  0.3653  0.3963
    9MOL   H297 3353   1.438   7.202   1.255  0.8212  1.0026  2.0697
    9MOL   H298 3354   1.588   7.402   1.267 -2.3195 -0.6304 -0.1247
    9MOL   H299 3355   1.878   7.422   1.223 -0.6677  1.2806  0.6534
    9MOL   H300 3356   1.898   7.435   1.053 -0.6537  0.6494 -0.6648
    9MOL   H301 3357   1.801   7.552   1.131  0.9265  0.1280  0.7144
    9MOL   H302 3358   1.814   7.243   0.939  0.9530 -1.1219  1.1279
    9MOL   H303 3359   1.658   7.048   0.931 -1.8702 -1.4426  0.9847
    9MOL   H304 3360   1.555   6.863   0.943  0.3638 -0.7086  0.5041
    9MOL   H305 3361   1.456   6.766   1.030  1.1442 -1.7367  2.1495
    9MOL   C306 3362   1.636   6.815   1.140  0.2218  0.4037  0.1084
    9MOL   C307 3363   1.769   6.775   1.072  0.4930  0.2431  0.0405
    9MOL   C308 3364   1.871   6.878   1.057  0.6742  0.6136 -0.4105
    9MOL   C309 3365   1.996   6.838   1.005  1.0216  0.1515 -0.2717
    9MOL   C310 3366   2.024   6.706   0.971  0.5283 -0.1274 -0.0363
    9MOL   C311 3367   2.158   6.670   0.906 -0.3543  0.1913 -0.0937
    9MOL   C312 3368   1.912   6.612   0.964  0.0043 -0.7495 -0.1011
    9MOL   C313 3369   1.786   6.649   1.020 -0.0457 -0.2622  0.1778
    9MOL   C314 3370   1.593   6.715   1.253 -0.3650 -0.5574 -0.2085
    9MOL   H315 3371   1.664   6.905   1.195 -2.1787  0.6938  0.9137
    9MOL   H316 3372   1.870   6.978   1.100  1.7723  0.1435  0.7623
    9MOL   H317 3373   2.081   6.905   1.009  1.1280  0.0628 -1.1286
    9MOL   H318 3374   2.221   6.758   0.890 -0.2270 -0.1952 -1.8653
    9MOL   H319 3375   2.213   6.589   0.953  0.3471  0.8965  0.3289
    9MOL   H320 3376   2.146   6.636   0.803 -1.6613  1.9424 -0.5486
    9MOL   H321 3377   1.930   6.516   0.919  0.9065 -0.1686 -0.9865
    9MOL   H322 3378   1.708   6.575   1.025 -0.1715 -0.1474 -0.0581
    9MOL   H323 3379   1.553   6.624   1.209  0.4464 -1.5549  1.0663
    9MOL   H324 3380   1.501   6.750   1.300 -0.3218 -0.6986 -0.0194
    9MOL   C325 3381   1.692   6.706   1.370 -0.1522  0.4974  0.1561
    9MOL   C326 3382   1.725   6.568   1.430  0.1952  0.2044 -0.6284
    9MOL   C327 3383   1.849   6.561   1.503 -0.0617 -0.0874 -0.1760
    9MOL   C328 3384   1.886   6.453   1.583  0.1226  0.8587  0.0114
    9MOL   C329 3385   1.798   6.343   1.591 -0.5098  0.1234  0.3572
    9MOL   C330 3386   1.834   6.220   1.673  0.4104  0.5316  0.1778
    9MOL   C331 3387   1.669   6.353   1.528 -0.0606 -0.1067  0.2699
    9MOL   C332 3388   1.634   6.469   1.448 -0.5100  0.6541 -0.0569
    9MOL   C333 3389   1.643   6.791   1.499 -0.5030 -0.1522  0.0172
    9MOL   H334 3390   1.791   6.732   1.334 -0.0584 -0.9097 -0.6400
    9MOL   H335 3391   1.919   6.643   1.497 -0.3260  0.0355 -1.6276
    9MOL   H336 3392   1.981   6.449   1.634  0.1713  0.9045 -0.0753
    9MOL   H337 3393   1.850   6.245   1.778 -0.0127  3.1801 -0.3648
    9MOL   H338 3394   1.750   6.151   1.680 -0.7573  2.0014  0.8696
    9MOL   H339 3395   1.921   6.160   1.646 -0.5930 -1.0690  0.4453
    9MOL   H340 3396   1.595   6.274   1.526 -2.6901  2.2330  1.2669
    9MOL   H341 3397   1.544   6.466   1.387 -0.5135 -2.2664  0.0221
    9MOL   H342 3398   1.694   6.769   1.593 -2.9995  0.5651  1.5971
    9MOL   H343 3399   1.542   6.755   1.519 -0.5507 -1.6732 -2.8179
    9MOL   C344 3400   1.645   6.943   1.495  0.3377  0.6946 -0.1407
    9MOL   C345 3401   1.789   6.982   1.483 -0.6090 -0.3675  0.0131
    9MOL   C346 3402   1.835   7.045   1.361  1.0484 -0.0014 -0.8275
    9MOL   C347 3403   1.966   7.087   1.352 -0.5153 -0.1831  0.1724
    9MOL   C348 3404   2.057   7.053   1.454  0.5356 -0.0244  1.0241
    9MOL   C349 3405   2.197   7.105   1.441  0.4440  0.4619  0.6908
    9MOL   C350 3406   2.017   6.986   1.571 -0.2298 -0.2839 -0.2914
    9MOL   C351 3407   1.883   6.956   1.588  0.0953  0.2931 -0.4735
    9MOL   C352 3408   1.576   7.020   1.609 -0.3860 -0.4240  0.6289
    9MOL   H353 3409   1.605   6.972   1.397  0.9196  2.2272  0.0640
    9MOL   H354 3410   1.761   7.070   1.287 -0.9328 -0.3027  0.9870
    9MOL   H355 3411   1.989   7.150   1.268  1.7678  1.1897  1.7536
    9MOL   H356 3412   2.259   7.048   1.510 -0.5508 -0.1553  1.0933
    9MOL   H357 3413   2.235   7.118   1.340  0.9890  0.8646  0.9483
    9MOL   H358 3414   2.200   7.210   1.471 -0.5769  0.2450  1.5968
    9MOL   H359 3415   2.086   6.968   1.653  1.0432  0.7647 -1.1052
    9MOL   H360 3416   1.843   6.912   1.677 -0.1713 -1.5610 -1.4872
    9MOL   H361 3417   1.585   7.121   1.570  0.7745  0.4239  3.0002
    9MOL   H362 3418   1.627   7.023   1.706  1.1659 -1.1237 -0.1454
    9MOL   C363 3419   1.424   7.000   1.629 -0.3088 -0.3327 -0.2803
    9MOL   C364 3420   1.361   7.143   1.619  0.2067  0.2056 -0.1828
    9MOL   C365 3421   1.300   7.182   1.503  0.6441 -0.1531 -0.0115
    9MOL   C366 3422   1.267   7.319   1.494  0.5017  0.0364 -0.6307
    9MOL   C367 3423   1.292   7.416   1.590  0.2532  0.1433 -0.2316
    9MOL   C368 3424   1.263   7.566   1.574 -0.1188 -0.2880  0.0403
    9MOL   C369 3425   1.335   7.366   1.715 -0.7577 -0.0471  0.1631
    9MOL   C370 3426   1.372   7.230   1.727 -0.0688  0.0596  0.1045
    9MOL   C371 3427   1.377   6.939   1.771 -0.0988 -0.8044  0.1779
    9MOL   H372 3428   1.383   6.930   1.556  1.1015 -1.7125  0.2168
    9MOL   H373 3429   1.284   7.115   1.421 -1.0647  0.3665 -0.1234
    9MOL   H374 3430   1.236   7.353   1.397  1.6448  0.5297 -0.8366
    9MOL   H375 3431   1.300   7.612   1.482 -0.8997  2.8530  1.2302
    9MOL   H376 3432   1.155   7.576   1.560 -0.3048 -1.7351  0.3894
    9MOL   H377 3433   1.301   7.623   1.658 -0.4921  2.5688 -1.6537
    9MOL   H378 3434   1.355   7.430   1.799  0.0376 -1.2420  0.9033
    9MOL   H379 3435   1.407   7.194   1.823 -0.6438 -0.5409  0.0960
    9MOL   H380 3436   1.385   6.830   1.779 -0.2198 -1.0592 -2.5207
    9MOL   H381 3437   1.271   6.961   1.784 -0.0679 -1.4415  1.6046
    9MOL   H382 3438   1.437   6.991   1.846 -0.6743 -1.8013  1.3478
   10MOL     C1 3439   1.603   2.594   7.867  0.1408  0.0923  0.0755
   10MOL     C2 3440   1.711   2.684   7.813 -0.0761  0.0148 -0.1062
   10MOL     C3 3441   1.850   2.650   7.803  0.0823  0.9828 -0.5225
   10MOL     C4 3442   1.951   2.738   7.757 -0.2691 -0.6395  0.5659
   10MOL     C5 3443   1.904   2.861   7.701 -0.0615 -0.4904  0.4541
   10MOL     C6 3444   2.005   2.941   7.631 -0.3421 -0.0183  0.1064
   10MOL     C7 3445   1.771   2.907   7.713  0.5271  0.0362  0.1795
   10MOL     C8 3446   1.675   2.818   7.766  1.1242 -0.2885 -0.5873
   10MOL     C9 3447   1.493   2.572   7.765 -0.0269 -0.3310  0.4555
   10MOL    H10 3448   1.644   2.499   7.902  1.5749 -0.4083 -2.7642
   10MOL    H11 3449   1.888   2.551   7.825  2.2443  1.8597 -0.1913
   10MOL    H12 3450   2.056   2.716   7.747 -0.5012 -0.8455 -1.7231
   10MOL    H13 3451   1.960   3.029   7.584 -2.4078 -0.0674  1.9053
   10MOL    H14 3452   2.083   2.974   7.699  0.2280 -1.2266  0.0551
   10MOL    H15 3453   2.054   2.879   7.555  2.3141  0.6338  1.2371
   10MOL    H16 3454   1.735   3.005   7.683  2.1333  0.4916 -0.3441
   10MOL    H17 3455   1.570   2.843   7.771  1.6070  2.1395 -1.5042
   10MOL    H18 3456   1.544   2.572   7.669 -1.6397 -0.2502 -0.4047
   10MOL    H19 3457   1.423   2.654   7.755 -0.3278 -0.8022 -1.4226
   10MOL    H20 3458   1.554   2.648   7.948 -0.6203  0.5491 -0.6790
   10MOL    C21 3459   1.401   2.458   7.774  0.7686 -0.0877 -0.6429
   10MOL    C22 3460   1.323   2.463   7.910  0.2079  0.2148 -0.5694
   10MOL    C23 3461   1.385   2.428   8.030 -0.1133 -0.1189 -0.6501
   10MOL    C24 3462   1.321   2.446   0.074 -0.0517 -0.7014  0.6190
   10MOL    C25 3463   1.188   2.490   0.082 -0.3109  0.3025 -0.1676
   10MOL    C26 3464   1.119   2.486   0.209 -0.3299  0.3927  0.2018
   10MOL    C27 3465   1.117   2.515   8.037  0.0392  0.7815  0.1558
   10MOL    C28 3466   1.188   2.505   7.915  0.7591  0.3462  0.5492
   10MOL    C29 3467   1.463   2.320   7.745  0.3980  0.1969  0.3019
   10MOL    H30 3468   1.332   2.476   7.691 -0.9620  0.5149  0.9041
   10MOL    H31 3469   1.489   2.396   8.028 -0.6169 -1.8012 -0.3026
   10MOL    H32 3470   1.378   2.428   0.164  2.7895 -1.7136 -1.3216
   10MOL    H33 3471   1.022   2.535   0.199 -0.1714  0.1937 -2.4851
   10MOL    H34 3472   1.112   2.384   0.246  1.8106  0.5708  1.1820
   10MOL    H35 3473   1.188   2.539   0.275 -0.7454  2.0217 -0.6517
   10MOL    H36 3474   1.009   2.525   8.035 -0.1487 -0.6144  1.9829
   10MOL    H37 3475   1.150   2.539   7.820 -0.2016 -0.5565  0.6032
   10MOL    H38 3476   1.411   2.241   7.799  0.0467 -2.5670 -3.8345
   10MOL    H39 3477   1.564   2.318   7.786  0.4232  0.4066  0.2499
   10MOL    C40 3478   1.477   2.283   7.595  0.7649 -0.2093 -1.2326
   10MOL    C41 3479   1.335   2.274   7.537 -0.2766 -0.7390  0.0260
   10MOL    C42 3480   1.296   2.354   7.424  0.2993  0.4000  0.0661
   10MOL    C43 3481   1.164   2.353   7.382  0.6418  0.3962 -0.2370
   10MOL    C44 3482   1.069   2.260   7.425  0.1922  0.1196 -0.1765
   10MOL    C45 3483   0.925   2.258   7.368 -0.4036 -0.0350 -0.5955
   10MOL    C46 3484   1.104   2.178   7.535  0.2766  0.1064 -0.0701
   10MOL    C47 3485   1.241   2.182   7.588  0.6255  0.4815 -0.8391
   10MOL    C48 3486   1.549   2.146   7.571 -0.0104 -0.6546 -0.7136
   10MOL    H49 3487   1.531   2.370   7.557 -2.2357  1.8156 -1.1165
   10MOL    H50 3488   1.360   2.433   7.386 -0.0336  0.9770  0.7004
   10MOL    H51 3489   1.140   2.416   7.297 -1.7369  1.4587  1.1810
   10MOL    H52 3490   0.861   2.202   7.437  0.0093 -0.3920 -0.5019
   10MOL    H53 3491   0.889   2.361   7.364 -0.6911 -0.1397 -0.7380
   10MOL    H54 3492   0.919   2.205   7.273  0.6782  3.1321 -2.4794
   10MOL    H55 3493   1.037   2.102   7.571 -0.1899  0.3893 -0.3488
   10MOL    H56 3494   1.261   2.126   7.678 -3.2230  1.2597  0.6011
   10MOL    H57 3495   1.526   2.114   7.470  2.2847  0.1795 -1.5110
   10MOL    H58 3496   1.504   2.076   7.642 -1.5046  0.8128 -0.1696
   10MOL    C59 3497   1.707   2.150   7.590  0.3416  0.2800 -0.0920
   10MOL    C60 3498   1.775   2.225   7.476 -0.7496  0.5836 -0.4971
   10MOL    C61 3499   1.761   2.175   7.344 -0.0611 -0.0061  0.2445
   10MOL    C62 3500   1.813   2.244   7.239  0.5644 -0.6705  0.5292
   10MOL    C63 3501   1.890   2.364   7.261  0.0458  0.0492 -0.1944
   10MOL    C64 3502   1.929   2.444   7.142  0.4588 -0.4053  0.3015
   10MOL    C65 3503   1.918   2.410   7.395 -0.6994  0.1672  0.4389
   10MOL    C66 3504   1.855   2.340   7.498  0.4445 -0.4313 -0.1540
   10MOL    C67 3505   1.765   2.010   7.610 -0.4552 -0.0832 -0.6297
   10MOL    H68 3506   1.728   2.200   7.685 -0.5485 -1.8522  1.2601
   10MOL    H69 3507   1.702   2.086   7.326  1.0788 -0.8996  0.8985
   10MOL    H70 3508   1.787   2.204   7.142 -2.6111 -2.7779  2.1965
   10MOL    H71 3509   1.923   2.384   7.051 -2.8197 -0.4976  0.5139
   10MOL    H72 3510   1.865   2.532   7.133 -0.8348 -1.4092 -0.4788
   10MOL    H73 3511   2.023   2.496   7.156  0.0572  0.5414 -0.4967
   10MOL    H74 3512   1.987   2.493   7.406  2.9306 -2.6914  0.5532
   10MOL    H75 3513   1.868   2.373   7.600  1.0858  0.7338 -0.6072
   10MOL    H76 3514   1.764   1.972   7.508  0.6312  0.3173 -0.8016
   10MOL    H77 3515   1.699   1.939   7.660 -0.2969 -0.7544 -1.3726
   10MOL    C78 3516   1.911   1.999   7.672 -0.3043 -0.2623  0.1984
   10MOL    C79 3517   2.020   1.943   7.580  0.1113  0.3528  0.9484
   10MOL    C80 3518   2.136   2.013   7.544 -0.3799  0.4797 -0.4113
   10MOL    C81 3519   2.236   1.958   7.459  0.5427  0.2177  0.7148
   10MOL    C82 3520   2.206   1.838   7.391  0.4406  0.3039 -0.2243
   10MOL    C83 3521   2.298   1.779   7.286 -0.2319  0.5304 -0.9741
   10MOL    C84 3522   2.088   1.768   7.425  0.3858 -0.4057  0.1912
   10MOL    C85 3523   2.004   1.814   7.523  0.6007  0.5627 -0.0040
   10MOL    C86 3524   1.910   1.910   7.802 -0.1184  0.0107 -0.6214
   10MOL    H87 3525   1.950   2.095   7.704  1.9304 -1.1784  0.2502
   10MOL    H88 3526   2.149   2.106   7.596 -3.0132  1.5781 -1.6574
   10MOL    H89 3527   2.322   2.020   7.441  0.2551  0.8152  1.3907
   10MOL    H90 3528   2.392   1.832   7.301  0.9297 -1.4128 -1.2942
   10MOL    H91 3529   2.313   1.674   7.310  1.8171  1.5490  2.5327
   10MOL    H92 3530   2.259   1.797   7.186  1.0118  0.1143 -1.5463
   10MOL    H93 3531   2.060   1.680   7.368  0.7706 -0.7867  0.5912
   10MOL    H94 3532   1.913   1.764   7.550  0.9303  0.0150  0.1027
   10MOL    H95 3533   2.008   1.878   7.837 -0.9054 -0.7570  0.9276
   10MOL    H96 3534   1.877   1.813   7.764 -3.1786  0.0930  1.6785
   10MOL    C97 3535   1.813   1.965   7.910 -0.1485  0.2948 -0.3594
   10MOL    C98 3536   1.876   2.092   7.963  0.4034  0.1445  0.7435
   10MOL    C99 3537   2.006   2.097   8.010  0.1209 -0.4253 -0.0716
   10MOL   C100 3538   2.050   2.208   8.080 -0.0807  0.6117 -0.7672
   10MOL   C101 3539   1.974   2.325   0.006 -0.5650 -1.2285  0.5503
   10MOL   C102 3540   2.031   2.451   0.069 -1.2086  0.1759 -0.5337
   10MOL   C103 3541   1.852   2.324   8.027  1.1451  0.1322 -0.7303
   10MOL   C104 3542   1.796   2.206   7.974  0.2695 -0.5286 -0.0956
   10MOL   C105 3543   1.786   1.863   8.022 -0.7160  0.3537 -0.9400
   10MOL   H106 3544   1.721   1.988   7.857 -0.8010  1.0635  1.0693
   10MOL   H107 3545   2.066   2.008   8.002 -0.5816 -1.2255  2.9433
   10MOL   H108 3546   2.144   2.204   0.052  0.0719 -1.9090 -1.2008
   10MOL   H109 3547   1.980   2.478   0.161 -0.2375  0.8931 -0.1960
   10MOL   H110 3548   2.130   2.423   0.106 -0.8016  1.4362 -0.6393
   10MOL   H111 3549   2.040   2.537   0.004 -0.2849  1.3953  1.1606
   10MOL   H112 3550   1.796   2.416   8.020 -0.7679 -0.8526  1.0933
   10MOL   H113 3551   1.694   2.207   7.939  0.1318  0.5772  0.3329
   10MOL   H114 3552   1.740   1.909   0.029  1.3903  0.7228  0.0091
   10MOL   H115 3553   1.880   1.826   8.062 -0.1371 -0.5082 -3.0117
   10MOL   C116 3554   1.707   1.735   7.989  0.1373  0.2303 -0.9663
   10MOL   C117 3555   1.582   1.762   7.907  0.4389  0.3410  0.7381
   10MOL   C118 3556   1.568   1.713   7.774  0.1955  0.0578 -0.4128
   10MOL   C119 3557   1.445   1.739   7.705  0.1387  0.1472 -0.4810
   10MOL   C120 3558   1.341   1.812   7.764 -0.6517 -0.0648  0.4766
   10MOL   C121 3559   1.209   1.816   7.684 -0.2298  0.5130 -0.3379
   10MOL   C122 3560   1.356   1.867   7.892 -0.2867 -0.1623  0.7025
   10MOL   C123 3561   1.479   1.842   7.959  0.6223 -0.6722  0.0571
   10MOL   C124 3562   1.674   1.648   0.029 -0.8786  0.7612  0.4634
   10MOL   H125 3563   1.765   1.672   7.921 -0.0300 -1.1326  0.1288
   10MOL   H126 3564   1.644   1.652   7.726 -0.4007 -1.3732  0.4337
   10MOL   H127 3565   1.431   1.703   7.604  0.9475  0.7506 -0.8148
   10MOL   H128 3566   1.224   1.798   7.578 -0.4195  1.3865 -0.5124
   10MOL   H129 3567   1.135   1.745   7.724 -1.2919  0.9031 -1.5871
   10MOL   H130 3568   1.157   1.912   7.693 -1.5891 -0.1975 -0.4226
   10MOL   H131 3569   1.276   1.919   7.942  1.3828  1.6469  1.5537
   10MOL   H132 3570   1.490   1.883   8.059  0.5292 -1.0907  0.2424
   10MOL   H133 3571   1.578   1.677   0.071 -1.1459  0.4117  0.1016
   10MOL   H134 3572   1.746   1.666   0.108  0.2189  0.9935 -0.5809
   10MOL   C135 3573   1.673   1.498   8.070 -0.1205  0.3481  0.2451
   10MOL   C136 3574   1.581   1.412   0.078 -0.7589 -0.5153  0.2876
   10MOL   C137 3575   1.568   1.424   0.220 -0.0931 -1.0590 -0.4003
   10MOL   C138 3576   1.484   1.341   0.295  0.6179  0.5344 -0.0944
   10MOL   C139 3577   1.404   1.248   0.229 -0.0020  0.1456 -0.0828
   10MOL   C140 3578   1.310   1.160   0.301 -0.7316  0.4619 -0.4269
   10MOL   C141 3579   1.412   1.235   0.087 -0.2097 -0.6578 -0.1489
   10MOL   C142 3580   1.496   1.318   0.017  0.3689  0.4942 -0.3708
   10MOL   C143 3581   1.812   1.425   8.075 -0.0086 -0.7209  0.5543
   10MOL   H144 3582   1.621   1.489   7.974 -0.4190 -1.0078  0.5129
   10MOL   H145 3583   1.614   1.501   0.280 -1.2848 -0.1612 -0.6204
   10MOL   H146 3584   1.478   1.353   0.402  0.7342 -1.3784  0.1526
   10MOL   H147 3585   1.298   1.191   0.405 -1.1589 -0.6217 -0.1402
   10MOL   H148 3586   1.214   1.174   0.252 -1.2191  1.1628  0.7016
   10MOL   H149 3587   1.337   1.054   0.304 -0.8713  0.4497  0.6489
   10MOL   H150 3588   1.374   1.150   0.031  2.0918 -1.0905 -1.1501
   10MOL   H151 3589   1.498   1.311   7.989 -1.1987 -1.2002 -0.3107
   10MOL   H152 3590   1.797   1.318   0.004 -4.5485 -0.1806  0.7419
   10MOL   H153 3591   1.866   1.454   0.086  3.2608 -0.0191 -1.5416
   10MOL   C154 3592   1.907   1.440   7.948  0.1390 -0.3052  0.0047
   10MOL   C155 3593   1.839   1.393   7.818  0.4279  0.1051  0.9494
   10MOL   C156 3594   1.775   1.270   7.807 -0.2619 -0.2794  0.7369
   10MOL   C157 3595   1.717   1.228   7.692 -0.0964  0.4032 -0.1687
   10MOL   C158 3596   1.733   1.300   7.571 -0.3184  1.1619 -1.0966
   10MOL   C159 3597   1.672   1.246   7.437 -0.3773  0.1040  0.1288
   10MOL   C160 3598   1.796   1.425   7.580  0.6186  0.0941 -0.0223
   10MOL   C161 3599   1.851   1.465   7.699  0.1199  0.0121  0.3863
   10MOL   C162 3600   2.047   1.375   7.951  0.2365 -0.0368 -0.3831
   10MOL   H163 3601   1.923   1.547   7.942  0.5200 -0.1867  2.4783
   10MOL   H164 3602   1.780   1.210   7.896  0.7081  1.8266  2.1358
   10MOL   H165 3603   1.663   1.134   7.685  0.6692 -0.1743  1.3661
   10MOL   H166 3604   1.662   1.138   7.441 -1.3198  0.0756 -2.3628
   10MOL   H167 3605   1.570   1.281   7.424 -1.1547 -1.7156  1.2225
   10MOL   H168 3606   1.729   1.275   7.348  2.5483 -3.4216  0.7267
   10MOL   H169 3607   1.797   1.501   7.504 -3.1144  1.2700  0.9916
   10MOL   H170 3608   1.896   1.563   7.694  2.2172 -0.8382  2.0965
   10MOL   H171 3609   2.090   1.375   7.851  1.8059  0.2713  0.2772
   10MOL   H172 3610   2.031   1.270   7.976  0.7364  0.2725  1.3188
   10MOL   C173 3611   2.150   1.434   8.044  0.2496 -0.4702 -0.8275
   10MOL   C174 3612   2.192   1.574   8.006 -0.3539  0.0903 -0.1781
   10MOL   C175 3613   2.214   1.679   0.022  0.5720  0.1622 -0.1366
   10MOL   C176 3614   2.246   1.807   8.066 -0.6976  0.1324  0.1281
   10MOL   C177 3615   2.271   1.849   7.929  1.2305 -0.1871 -0.3970
   10MOL   C178 3616   2.325   1.985   7.881  0.2802 -0.5011  0.1998
   10MOL   C179 3617   2.239   1.749   7.831 -0.7540 -1.1299 -0.1434
   10MOL   C180 3618   2.202   1.615   7.870  0.1099 -0.2718 -0.8676
   10MOL   C181 3619   2.284   1.356   8.075  0.5900 -0.3220 -0.7039
   10MOL   H182 3620   2.094   1.450   0.056  0.8879 -0.3912 -0.4471
   10MOL   H183 3621   2.189   1.662   0.125 -1.6402 -1.3530 -0.8852
   10MOL   H184 3622   2.262   1.881   0.062 -0.6416  0.8751 -0.6032
   10MOL   H185 3623   2.259   2.030   7.806 -1.6254  0.7878  2.5937
   10MOL   H186 3624   2.327   2.060   7.960  0.4923  1.3015 -1.4532
   10MOL   H187 3625   2.418   1.975   7.825  1.2438  1.7688  1.3388
   10MOL   H188 3626   2.252   1.772   7.726  1.0072 -0.1076  0.2747
   10MOL   H189 3627   2.185   1.544   7.791 -0.3299 -0.7246 -0.3745
   10MOL   H190 3628   2.367   1.418   0.031  0.3501 -0.4612  0.1066
   10MOL   H191 3629   2.324   1.322   7.979  0.1998 -0.9126 -0.6557
   10MOL   C192 3630   2.267   1.228   0.089  0.3986  0.7073  0.5257
   10MOL   C193 3631   2.209   1.265   0.227 -0.7050  0.0553 -0.3379
   10MOL   C194 3632   2.286   1.342   0.316  0.3866 -0.1140  0.2296
   10MOL   C195 3633   2.232   1.388   0.442  0.4451  0.4090 -0.0513
   10MOL   C196 3634   2.104   1.341   0.479 -0.2019  0.2385 -0.2588
   10MOL   C197 3635   2.044   1.373   0.611  0.0342 -0.2581  0.1586
   10MOL   C198 3636   2.035   1.257   0.396  0.2552  0.2991 -0.0555
   10MOL   C199 3637   2.082   1.226   0.260  0.4132  0.7425 -0.4010
   10MOL   C200 3638   2.405   1.162   0.093  0.2399 -0.3547  0.1773
   10MOL   H201 3639   2.204   1.152   0.044 -0.0250 -0.0670  2.3929
   10MOL   H202 3640   2.387   1.373   0.290  0.3709  1.0460  1.4937
   10MOL   H203 3641   2.297   1.450   0.501  2.5598 -0.9938 -0.8470
   10MOL   H204 3642   2.006   1.279   0.650  0.3036 -0.8557 -0.9964
   10MOL   H205 3643   2.114   1.429   0.673  0.7782 -1.0168  0.0171
   10MOL   H206 3644   1.952   1.432   0.602 -0.7122 -1.3291  0.6817
   10MOL   H207 3645   1.935   1.222   0.418  0.1144  0.1729 -0.8501
   10MOL   H208 3646   2.019   1.162   0.200 -0.3548  1.2040 -0.0790
   10MOL   H209 3647   2.398   1.086   0.170 -0.2932 -0.2768  0.2083
   10MOL   H210 3648   2.481   1.226   0.137  0.1959 -0.8944  1.0534
   10MOL   C211 3649   2.457   1.100   8.035  0.1498 -0.9212  0.3137
   10MOL   C212 3650   2.372   0.975   8.007  0.1092 -0.4459 -0.1072
   10MOL   C213 3651   2.273   0.977   7.907  0.0065 -0.0873 -0.2443
   10MOL   C214 3652   2.192   0.866   7.891 -0.1762  0.0885 -0.4060
   10MOL   C215 3653   2.199   0.751   7.971  0.0993  0.3435 -0.3210
   10MOL   C216 3654   2.115   0.628   7.954 -0.4421  0.1162 -0.0122
   10MOL   C217 3655   2.291   0.756   8.077 -0.2939  0.2658  0.8384
   10MOL   C218 3656   2.382   0.859   0.016  0.2941  0.0614  0.1868
   10MOL   C219 3657   2.607   1.057   8.041 -0.1039 -0.6771  0.1094
   10MOL   H220 3658   2.449   1.168   7.951  1.7651 -2.7467 -1.3565
   10MOL   H221 3659   2.259   1.063   7.844 -0.7544  0.8278  1.1391
   10MOL   H222 3660   2.118   0.874   7.813 -0.2526  0.8937 -0.2503
   10MOL   H223 3661   2.015   0.651   7.919  0.7086  2.2013 -2.1489
   10MOL   H224 3662   2.163   0.565   7.878 -0.0771  1.5468 -1.0046
   10MOL   H225 3663   2.108   0.570   8.045  0.5173 -1.2194 -0.7692
   10MOL   H226 3664   2.297   0.673   0.066 -0.1833 -0.8032 -0.4068
   10MOL   H227 3665   2.455   0.847   0.095 -0.9316  0.5983  1.4343
   10MOL   H228 3666   2.616   1.002   7.947  1.9878  2.0211 -1.3127
   10MOL   H229 3667   2.625   0.975   0.031 -2.0137  1.1324  2.8328
   10MOL   C230 3668   2.714   1.167   8.049  0.4799 -0.1270  0.5632
   10MOL   C231 3669   2.678   1.283   7.956 -0.6693  0.0874  0.5831
   10MOL   C232 3670   2.654   1.264   7.821 -0.3280  0.3187 -0.2300
   10MOL   C233 3671   2.588   1.365   7.744 -0.0501 -0.5329  0.2887
   10MOL   C234 3672   2.569   1.495   7.791 -0.1650 -0.5173  0.4956
   10MOL   C235 3673   2.520   1.603   7.699 -0.1270 -0.6722 -0.4759
   10MOL   C236 3674   2.619   1.521   7.919  0.3710  0.4012 -0.3836
   10MOL   C237 3675   2.671   1.417   8.001 -0.0208 -0.3076  1.0014
   10MOL   C238 3676   2.851   1.110   8.008  0.2588  0.9130  0.0747
   10MOL   H239 3677   2.721   1.209   0.069  1.9988 -0.8044  0.7477
   10MOL   H240 3678   2.672   1.169   7.773 -1.0494  1.0788 -2.0426
   10MOL   H241 3679   2.571   1.351   7.639  0.8680  0.8847 -0.0614
   10MOL   H242 3680   2.498   1.692   7.759  3.8521 -0.0613  0.1909
   10MOL   H243 3681   2.600   1.647   7.640 -0.0418  1.2207  0.9930
   10MOL   H244 3682   2.436   1.571   7.637 -0.2753 -0.6501 -0.2901
   10MOL   H245 3683   2.614   1.624   7.949 -0.4658  0.3717 -0.4035
   10MOL   H246 3684   2.701   1.438   0.023  0.9688 -0.2952  0.7125
   10MOL   H247 3685   2.879   1.119   7.902  2.5042 -1.4121  0.4024
   10MOL   H248 3686   2.835   1.003   8.023  2.1050  0.2929 -2.0550
   10MOL   C249 3687   2.974   1.148   0.016 -0.1719 -0.1299 -0.0091
   10MOL   C250 3688   3.090   1.192   8.000  0.6534  0.7073 -0.4890
   10MOL   C251 3689   3.133   1.099   7.902 -0.2503 -0.2268 -0.2985
   10MOL   C252 3690   3.243   1.128   7.818  0.1937 -0.0574 -0.6079
   10MOL   C253 3691   3.302   1.258   7.833  0.3781  0.1133  0.5247
   10MOL   C254 3692   3.413   1.299   7.740 -0.0871  0.0496 -0.2859
   10MOL   C255 3693   3.265   1.346   7.936 -0.1471  0.3422 -0.2638
   10MOL   C256 3694   3.155   1.317   8.017 -0.2281 -0.2549 -0.6767
   10MOL   C257 3695   3.028   1.041   0.116  0.0401 -0.3046 -0.0393
   10MOL   H258 3696   2.944   1.236   0.074  0.3941  0.8037 -1.1187
   10MOL   H259 3697   3.091   1.001   7.886  1.0718 -0.5968 -1.6483
   10MOL   H260 3698   3.265   1.060   7.736  1.4183 -1.3059  0.7455
   10MOL   H261 3699   3.403   1.243   7.647 -2.5213  0.0653 -0.0589
   10MOL   H262 3700   3.398   1.406   7.720 -2.4555 -0.3574 -0.8309
   10MOL   H263 3701   3.514   1.291   7.781 -0.7554 -2.6326  0.8911
   10MOL   H264 3702   3.322   1.437   7.946 -0.1886  0.5143 -1.6064
   10MOL   H265 3703   3.122   1.386   0.013  1.2051  0.5722 -0.7956
   10MOL   H266 3704   3.120   1.081   0.157 -0.7250  0.6990  0.7347
   10MOL   H267 3705   3.058   0.955   0.057 -1.5997 -0.4490 -0.6857
   10MOL   C268 3706   2.921   1.001   0.216  0.1750  0.6998 -0.0175
   10MOL   C269 3707   2.836   1.109   0.291 -0.1620 -0.0745  0.1263
   10MOL   C270 3708   2.694   1.103   0.308  0.4884  0.0720  0.4339
   10MOL   C271 3709   2.634   1.211   0.370 -0.2601  0.7052  0.0418
   10MOL   C272 3710   2.700   1.330   0.410  0.1929 -0.3040  0.1069
   10MOL   C273 3711   2.621   1.442   0.476  0.0352  0.2958 -0.5262
   10MOL   C274 3712   2.839   1.332   0.399 -0.4536 -0.0420  0.5703
   10MOL   C275 3713   2.904   1.223   0.336 -0.3212 -0.2905 -0.1676
   10MOL   C276 3714   2.965   0.900   0.318  0.2752 -0.2366 -0.1413
   10MOL   H277 3715   2.837   0.953   0.165  0.6562 -0.2382  0.0657
   10MOL   H278 3716   2.625   1.023   0.288 -0.8554  1.0013  1.1967
   10MOL   H279 3717   2.530   1.196   0.396 -0.8043  0.7185 -2.0750
   10MOL   H280 3718   2.526   1.450   0.423 -1.2328 -0.1627  1.6191
   10MOL   H281 3719   2.593   1.417   0.579 -0.1314 -1.3474 -0.9563
   10MOL   H282 3720   2.668   1.540   0.481  0.2965  0.0831  2.4229
   10MOL   H283 3721   2.899   1.410   0.443  2.5872 -1.4320 -0.9369
   10MOL   H284 3722   3.011   1.229   0.323 -0.6371  1.4140 -2.1499
   10MOL   H285 3723   3.028   0.953   0.390 -0.2663 -3.2407  2.6316
   10MOL   H286 3724   3.027   0.824   0.271  2.0615  1.0871  0.0276
   10MOL   C287 3725   2.863   0.818   0.402  0.1543 -0.4484 -0.4128
   10MOL   C288 3726   2.929   0.736   0.514 -0.9115 -0.6801  0.0393
   10MOL   C289 3727   2.856   0.660   0.605 -0.1850 -0.0457  0.6834
   10MOL   C290 3728   2.922   0.577   0.695  0.8886 -1.2251 -0.3879
   10MOL   C291 3729   3.056   0.574   0.701 -0.6178  0.4205 -1.0437
   10MOL   C292 3730   3.125   0.483   0.804  0.0789  0.0506 -0.1349
   10MOL   C293 3731   3.137   0.650   0.619 -0.5101  0.8762 -0.1076
   10MOL   C294 3732   3.069   0.729   0.527  0.8417  0.2398  0.5452
   10MOL   C295 3733   2.767   0.734   0.314  0.5612 -0.1670  0.0151
   10MOL   H296 3734   2.809   0.886   0.467  0.4398  0.9150 -1.5856
   10MOL   H297 3735   2.749   0.672   0.599 -0.0718  0.6401  0.0317
   10MOL   H298 3736   2.860   0.525   0.767  1.3868 -0.5445  0.5375
   10MOL   H299 3737   3.174   0.402   0.749  0.9634  1.2177 -1.0924
   10MOL   H300 3738   3.213   0.527   0.850  0.5023 -0.8692 -0.0420
   10MOL   H301 3739   3.067   0.440   0.886  1.4986 -2.1770 -0.2572
   10MOL   H302 3740   3.240   0.666   0.648 -0.2505 -4.3679  2.5173
   10MOL   H303 3741   3.139   0.786   0.468 -0.3710  0.8875 -0.2931
   10MOL   H304 3742   2.719   0.807   0.249  2.7489  1.3388  0.0400
   10MOL   H305 3743   2.685   0.691   0.372  0.0243  1.1260  0.2454
   10MOL   C306 3744   2.827   0.621   0.221  0.2011  0.0248 -0.5143
   10MOL   C307 3745   2.729   0.598   0.104  0.4547 -0.2855 -0.3239
   10MOL   C308 3746   2.757   0.655   8.060  0.3619  1.0014  0.2753
   10MOL   C309 3747   2.675   0.618   7.948  0.3606 -0.4110 -0.3290
   10MOL   C310 3748   2.567   0.524   7.958 -0.2546 -0.0303 -0.6544
   10MOL   C311 3749   2.491   0.474   7.836  0.0213  0.1657 -0.4133
   10MOL   C312 3750   2.532   0.489   0.009  0.0428  0.1956 -0.1575
   10MOL   C313 3751   2.611   0.522   0.123  0.3610 -0.0852  0.0467
   10MOL   C314 3752   2.864   0.487   0.286  0.1600  0.0775 -0.8868
   10MOL   H315 3753   2.918   0.665   0.181  0.3991 -0.6932 -0.8448
   10MOL   H316 3754   2.841   0.723   8.058 -0.5508  2.1265  0.0687
   10MOL   H317 3755   2.708   0.664   7.856  1.8121  0.4004  0.5578
   10MOL   H318 3756   2.469   0.369   7.855  0.0255  0.0055 -1.2710
   10MOL   H319 3757   2.399   0.531   7.830 -0.4238 -0.6508 -1.4928
   10MOL   H320 3758   2.553   0.464   7.747 -0.3221 -2.1219 -0.4081
   10MOL   H321 3759   2.446   0.425   0.019  0.6868 -1.1761 -3.0288
   10MOL   H322 3760   2.596   0.468   0.216  1.2002  0.3869  0.4560
   10MOL   H323 3761   2.774   0.464   0.342  0.8043  0.3135  0.2662
   10MOL   H324 3762   2.940   0.501   0.363  0.1014  1.7423 -1.1244
   10MOL   C325 3763   2.912   0.382   0.184 -0.7615  0.4220 -0.0374
   10MOL   C326 3764   2.871   0.238   0.223 -0.8237  0.4710  0.1379
   10MOL   C327 3765   2.818   0.149   0.122 -0.3126  0.0098 -0.1121
   10MOL   C328 3766   2.788   0.012   0.149 -0.6744 -0.4550 -0.4171
   10MOL   C329 3767   2.837   8.042   0.275  0.4770  0.3583  0.0928
   10MOL   C330 3768   2.822   7.903   0.314 -0.1133 -0.2224  1.0659
   10MOL   C331 3769   2.879   0.051   0.377  0.2238 -0.1830 -0.2584
   10MOL   C332 3770   2.891   0.188   0.352 -0.0047 -0.4055 -0.6729
   10MOL   C333 3771   3.061   0.368   0.173  0.8347 -0.0411  0.4383
   10MOL   H334 3772   2.873   0.394   0.083 -1.5188 -2.3735 -0.1060
   10MOL   H335 3773   2.789   0.193   0.028  4.2363 -0.1078 -1.6875
   10MOL   H336 3774   2.750   8.014   0.086 -2.3253  1.5883 -1.9958
   10MOL   H337 3775   2.908   7.846   0.278  0.7543  0.7802  1.5002
   10MOL   H338 3776   2.822   7.883   0.421  0.5110 -0.7437  0.9728
   10MOL   H339 3777   2.731   7.866   0.268 -1.0929  3.8438 -0.5173
   10MOL   H340 3778   2.926   0.014   0.467  2.8754 -0.9323 -1.9262
   10MOL   H341 3779   2.943   0.243   0.429  1.9207 -1.3937 -1.2241
   10MOL   H342 3780   3.094   0.280   0.117 -2.0073  0.2166 -1.7622
   10MOL   H343 3781   3.092   0.356   0.277 -1.3880 -1.5412  0.9443
   10MOL   C344 3782   3.154   0.485   0.128 -0.4670  0.3514  0.5791
   10MOL   C345 3783   3.148   0.496   8.057 -0.9524  0.9221  0.4785
   10MOL   C346 3784   3.198   0.394   7.979 -0.6001  0.0233 -0.0428
   10MOL   C347 3785   3.224   0.419   7.838 -0.1569  0.3606  0.2484
   10MOL   C348 3786   3.179   0.539   7.780  0.7277  0.0757  0.3392
   10MOL   C349 3787   3.200   0.574   7.631 -0.0924 -0.2399 -0.7300
   10MOL   C350 3788   3.125   0.642   7.860  0.5099 -0.0162 -0.0248
   10MOL   C351 3789   3.117   0.620   7.999 -0.1044  0.0155 -0.2120
   10MOL   C352 3790   3.295   0.465   0.187  0.2923 -0.4288 -0.3400
   10MOL   H353 3791   3.111   0.577   0.167 -2.2652 -0.8595  1.5454
   10MOL   H354 3792   3.237   0.307   8.029 -2.0204 -1.0403 -0.7299
   10MOL   H355 3793   3.278   0.345   7.781 -0.5947  1.3336 -1.4563
   10MOL   H356 3794   3.206   0.488   7.565 -2.6565 -1.6107  0.7450
   10MOL   H357 3795   3.116   0.639   7.608 -0.9593 -0.7828  0.8129
   10MOL   H358 3796   3.294   0.628   7.620  0.9305 -1.7915  0.1273
   10MOL   H359 3797   3.094   0.738   7.822 -0.0955 -1.1248 -2.4587
   10MOL   H360 3798   3.081   0.697   8.066  1.3888 -0.7134  1.4811
   10MOL   H361 3799   3.316   0.359   0.172 -0.8602 -0.7850  0.5802
   10MOL   H362 3800   3.284   0.485   0.293  0.0199  0.1914 -0.4831
   10MOL   C363 3801   3.404   0.560   0.138 -0.2895 -0.3039  0.0659
   10MOL   C364 3802   3.543   0.501   0.143 -0.1545 -0.8223 -0.3220
   10MOL   C365 3803   3.583   0.445   0.019 -0.4122  0.4521 -0.4738
   10MOL   C366 3804   3.704   0.373   0.015 -0.1631  0.0908 -0.0340
   10MOL   C367 3805   3.777   0.347   0.132 -0.3111  0.3441  0.2147
   10MOL   C368 3806   3.896   0.253   0.132  0.3135 -0.2638  0.7671
   10MOL   C369 3807   3.740   0.420   0.251 -0.0022 -0.1391 -0.3360
   10MOL   C370 3808   3.624   0.491   0.260 -0.1349  0.3198  0.6046
   10MOL   C371 3809   3.396   0.701   0.212 -0.4397 -0.1379 -0.1950
   10MOL   H372 3810   3.373   0.591   0.039 -1.1208  1.5667  0.8772
   10MOL   H373 3811   3.526   0.441   8.007  2.0783  0.3336 -2.0861
   10MOL   H374 3812   3.730   0.310   8.011  0.1860 -0.1599  0.2617
   10MOL   H375 3813   3.914   0.218   0.234  0.3826 -2.6942 -0.0537
   10MOL   H376 3814   3.884   0.175   0.057 -0.3169  1.0359 -0.4914
   10MOL   H377 3815   3.977   0.296   0.074 -0.7059  0.4631 -0.1286
   10MOL   H378 3816   3.806   0.408   0.335  0.5907 -2.7032 -1.1387
   10MOL   H379 3817   3.585   0.525   0.355  0.6417  2.1588  0.2946
   10MOL   H380 3818   3.307   0.753   0.177 -0.1994  0.3931 -0.0214
   10MOL   H381 3819   3.473   0.773   0.184 -3.6417  1.7497 -4.8644
   10MOL   H382 3820   3.399   0.690   0.320 -0.6447 -0.0785 -0.1834
   11MOL     C1 3821   7.754   3.176   7.393 -0.8046 -0.4267 -0.4361
   11MOL     C2 3822   7.773   3.323   7.426  0.2741  0.2795 -0.4878
   11MOL     C3 3823   7.762   3.368   7.556 -0.0559 -0.2252  0.5336
   11MOL     C4 3824   7.786   3.504   7.584 -0.4501 -0.0009  0.6989
   11MOL     C5 3825   7.833   3.590   7.483  0.6982  0.2800 -0.0360
   11MOL     C6 3826   7.864   3.733   7.513 -0.7069 -0.1389 -0.5104
   11MOL     C7 3827   7.842   3.543   7.350 -0.4033  0.2719 -0.1557
   11MOL     C8 3828   7.811   3.410   7.322 -0.2356 -0.0686 -0.3401
   11MOL     C9 3829   7.625   3.133   7.312  0.4582  0.5170  0.1316
   11MOL    H10 3830   7.851   3.142   7.356 -0.4626  0.4969 -0.4101
   11MOL    H11 3831   7.712   3.303   7.627 -1.7515 -0.6569 -0.9976
   11MOL    H12 3832   7.774   3.536   7.686 -1.3719 -1.8213  1.1673
   11MOL    H13 3833   7.862   3.782   7.416 -1.0080 -1.8760 -1.3863
   11MOL    H14 3834   7.802   3.776   7.592 -0.0213 -0.2909  0.1141
   11MOL    H15 3835   7.968   3.740   7.544 -0.5689  3.5255 -1.5762
   11MOL    H16 3836   7.879   3.611   7.275 -0.6809  0.4111 -0.1665
   11MOL    H17 3837   7.821   3.372   7.221 -1.9031 -0.0514 -0.5229
   11MOL    H18 3838   7.604   3.199   7.228  0.9173  0.2169 -0.2178
   11MOL    H19 3839   7.542   3.151   7.381  0.5833  0.2811  0.3443
   11MOL    H20 3840   7.748   3.120   7.485 -0.8206 -0.0205 -0.1856
   11MOL    C21 3841   7.615   2.979   7.275 -0.6000  0.5578 -0.2312
   11MOL    C22 3842   7.739   2.931   7.195 -0.0025  0.0513  0.0487
   11MOL    C23 3843   7.815   2.825   7.250  0.5306  0.1993  0.6794
   11MOL    C24 3844   7.929   2.768   7.189  0.0711  0.0826 -0.0297
   11MOL    C25 3845   7.974   2.822   7.068  0.5440 -0.5648  0.7025
   11MOL    C26 3846   0.021   2.775   6.997  0.4138 -0.1818  0.1103
   11MOL    C27 3847   7.893   2.928   7.002 -0.6395 -0.6448 -1.3921
   11MOL    C28 3848   7.779   2.980   7.071  0.0592 -0.5858 -0.0030
   11MOL    C29 3849   7.494   2.959   7.186  0.0844 -0.5719  0.5010
   11MOL    H30 3850   7.613   2.910   7.359 -0.1486  0.5974 -0.1864
   11MOL    H31 3851   7.780   2.793   7.346  0.1217 -1.2902  0.0497
   11MOL    H32 3852   7.997   2.696   7.233 -0.2147 -0.7803 -0.9762
   11MOL    H33 3853   0.081   2.709   7.060 -0.2710 -0.8593  0.0642
   11MOL    H34 3854   0.017   2.734   6.896  2.3284  1.2988 -0.6021
   11MOL    H35 3855   0.081   2.865   6.990  0.0780  0.0666  0.4461
   11MOL    H36 3856   7.928   2.970   6.909 -1.9532  1.9810 -0.7330
   11MOL    H37 3857   7.732   3.073   7.042  0.5811  0.3823  2.1641
   11MOL    H38 3858   7.494   2.861   7.137 -0.2825 -0.6314  0.6163
   11MOL    H39 3859   7.488   3.041   7.116  0.1555  0.3590  1.5712
   11MOL    C40 3860   7.354   2.971   7.265  0.2582 -0.0554 -0.6411
   11MOL    C41 3861   7.347   2.870   7.381  0.1628  0.3411  0.8030
   11MOL    C42 3862   7.318   2.919   7.510  0.0876 -0.2665  0.3880
   11MOL    C43 3863   7.315   2.835   7.623  0.7055  0.8467  0.4195
   11MOL    C44 3864   7.342   2.702   7.601  0.1200  0.2299 -0.3409
   11MOL    C45 3865   7.341   2.611   7.725  0.5049 -0.0105  0.0684
   11MOL    C46 3866   7.356   2.646   7.475  0.1773  0.2329  0.2822
   11MOL    C47 3867   7.359   2.733   7.364 -0.1693  0.1887  0.0040
   11MOL    C48 3868   7.233   2.944   7.170 -0.0642  0.1034 -0.2038
   11MOL    H49 3869   7.348   3.071   7.307 -0.3670 -0.9731  1.5738
   11MOL    H50 3870   7.301   3.025   7.520  3.6672  0.3721  0.3562
   11MOL    H51 3871   7.285   2.877   7.717 -1.9265 -0.7446  0.3242
   11MOL    H52 3872   7.296   2.670   7.805 -0.8064 -0.7127 -0.1269
   11MOL    H53 3873   7.292   2.516   7.704  1.9446 -0.5375 -0.9210
   11MOL    H54 3874   7.442   2.585   7.758 -0.3662 -1.8043  1.4262
   11MOL    H55 3875   7.365   2.539   7.461  2.2371  0.7301 -2.7564
   11MOL    H56 3876   7.370   2.683   7.269 -1.9054 -0.7674  0.2783
   11MOL    H57 3877   7.144   2.973   7.225  1.8627  2.5476  1.7786
   11MOL    H58 3878   7.228   2.836   7.159 -0.2546  0.1595 -0.6775
   11MOL    C59 3879   7.236   3.013   7.024  0.3498 -0.1611 -0.7506
   11MOL    C60 3880   7.249   3.163   7.033 -0.8303 -0.4977 -0.5101
   11MOL    C61 3881   7.334   3.230   6.943  0.2834  0.5741 -0.3170
   11MOL    C62 3882   7.367   3.364   6.962 -0.3354 -0.3748 -0.0691
   11MOL    C63 3883   7.298   3.439   7.056  1.0258 -0.4608 -0.3489
   11MOL    C64 3884   7.335   3.585   7.074  0.0371  0.7167  0.0474
   11MOL    C65 3885   7.198   3.379   7.135 -0.0266  0.7516  0.4756
   11MOL    C66 3886   7.180   3.236   7.135  0.1861  0.0110  0.3573
   11MOL    C67 3887   7.121   2.965   6.933  0.2414 -0.6023 -0.7805
   11MOL    H68 3888   7.325   2.970   6.978  0.1904 -1.2180 -0.0834
   11MOL    H69 3889   7.381   3.171   6.866  2.4180  1.5907  0.1775
   11MOL    H70 3890   7.438   3.411   6.895 -1.4403  2.1551  0.4859
   11MOL    H71 3891   7.270   3.655   7.021  0.7669  1.6845  0.4079
   11MOL    H72 3892   7.323   3.615   7.178  1.5287  0.0907  0.4137
   11MOL    H73 3893   7.438   3.596   7.041 -0.6725  1.0102 -2.1698
   11MOL    H74 3894   7.139   3.429   7.211  0.2712 -0.1970  1.3388
   11MOL    H75 3895   7.113   3.196   7.210  0.1101  1.2346  0.9524
   11MOL    H76 3896   7.125   3.036   6.851  0.4622  2.7602  2.0716
   11MOL    H77 3897   7.037   2.993   6.996  1.7815  0.0455  1.0017
   11MOL    C78 3898   7.127   2.815   6.895 -0.6360  0.2712  0.2125
   11MOL    C79 3899   7.247   2.787   6.798  0.1758 -0.8878 -0.4070
   11MOL    C80 3900   7.246   2.838   6.666 -0.7053 -0.1683 -0.0006
   11MOL    C81 3901   7.345   2.801   6.573  0.1908  0.2245  0.2616
   11MOL    C82 3902   7.447   2.712   6.614  0.2118  0.0097 -0.0718
   11MOL    C83 3903   7.553   2.674   6.518  0.5748  0.2846 -0.1591
   11MOL    C84 3904   7.460   2.677   6.747  0.2403  0.4174 -0.1423
   11MOL    C85 3905   7.360   2.714   6.841 -0.4577 -0.4610  0.7414
   11MOL    C86 3906   6.993   2.769   6.836  0.3321  1.0960 -0.3373
   11MOL    H87 3907   7.148   2.753   6.982  2.2396 -1.4476 -1.6449
   11MOL    H88 3908   7.169   2.909   6.639 -1.3731 -0.5815  0.7650
   11MOL    H89 3909   7.333   2.836   6.472 -0.9573  0.4524  0.4671
   11MOL    H90 3910   7.527   2.719   6.421 -1.0432 -0.5277 -0.1204
   11MOL    H91 3911   7.653   2.697   6.554  0.3848 -1.8537  1.8593
   11MOL    H92 3912   7.543   2.566   6.508  0.0442  0.2468  0.7184
   11MOL    H93 3913   7.537   2.609   6.781 -0.9520 -1.6728 -1.4458
   11MOL    H94 3914   7.375   2.688   6.945  2.1942  0.8959  0.7176
   11MOL    H95 3915   7.006   2.677   6.780  1.3147 -0.0580  1.7487
   11MOL    H96 3916   6.954   2.849   6.773 -0.0910  2.7987  1.9851
   11MOL    C97 3917   6.878   2.738   6.937  0.0346 -0.0985  0.1427
   11MOL    C98 3918   6.918   2.639   7.043  0.4116  0.3515  0.4294
   11MOL    C99 3919   6.941   2.680   7.178  0.0660 -0.3838 -0.3717
   11MOL   C100 3920   7.010   2.596   7.268 -0.1318  0.3427  0.5978
   11MOL   C101 3921   7.048   2.464   7.230  0.1695 -0.3963  0.3388
   11MOL   C102 3922   7.114   2.370   7.327 -0.2473  0.6325  0.1191
   11MOL   C103 3923   7.021   2.424   7.097 -0.2598 -0.6364  0.3872
   11MOL   C104 3924   6.951   2.509   7.009  0.9996 -0.4230  0.5524
   11MOL   C105 3925   6.744   2.706   6.875  0.1886 -0.5920 -0.2230
   11MOL   H106 3926   6.859   2.835   6.983 -3.1498 -0.6131  0.0241
   11MOL   H107 3927   6.910   2.781   7.195  0.7515 -0.2476  0.1244
   11MOL   H108 3928   7.036   2.640   7.364  0.5391  1.7412 -0.2000
   11MOL   H109 3929   7.110   2.413   7.427 -2.9731  0.8937 -0.0488
   11MOL   H110 3930   7.054   2.279   7.330  1.1091 -0.3720 -2.2096
   11MOL   H111 3931   7.217   2.341   7.307 -0.6386 -1.6419  1.1604
   11MOL   H112 3932   7.048   2.323   7.069  0.7119 -0.4287  0.5466
   11MOL   H113 3933   6.919   2.477   6.911  0.2089  3.2830 -0.4811
   11MOL   H114 3934   6.679   2.646   6.938  0.9474  0.2179  1.3374
   11MOL   H115 3935   6.763   2.636   6.793  0.1762 -1.4859  0.5282
   11MOL   C116 3936   6.662   2.832   6.841  0.1394 -0.5821 -0.3322
   11MOL   C117 3937   6.617   2.916   6.961  0.0973 -0.1331 -0.4562
   11MOL   C118 3938   6.533   2.851   7.053 -0.4785  0.0969  0.1928
   11MOL   C119 3939   6.516   2.908   7.175 -0.4921 -0.1644 -0.0902
   11MOL   C120 3940   6.566   3.033   7.205 -0.4482 -0.2177 -0.3528
   11MOL   C121 3941   6.536   3.103   7.335  0.4570 -0.0566 -0.3282
   11MOL   C122 3942   6.652   3.100   7.113  0.4806 -0.6535 -0.6668
   11MOL   C123 3943   6.681   3.042   6.988 -0.3843 -0.7744  0.2376
   11MOL   C124 3944   6.552   2.814   6.734  0.2072  0.4853  0.0636
   11MOL   H125 3945   6.734   2.900   6.795  1.1752 -1.4321  0.0149
   11MOL   H126 3946   6.479   2.759   7.037  1.6144 -1.1096 -0.0825
   11MOL   H127 3947   6.467   2.857   7.256  2.3575  2.5452  3.5415
   11MOL   H128 3948   6.580   3.203   7.339  0.4367 -0.0708  0.3091
   11MOL   H129 3949   6.428   3.110   7.350  0.3261  0.3885 -1.4491
   11MOL   H130 3950   6.563   3.036   7.417 -3.8803 -2.1030 -0.4623
   11MOL   H131 3951   6.690   3.198   7.141 -0.9127  0.5438 -2.7879
   11MOL   H132 3952   6.754   3.090   6.925  0.6219 -0.9366  1.2582
   11MOL   H133 3953   6.505   2.910   6.715 -1.0438  0.2692  1.9253
   11MOL   H134 3954   6.470   2.757   6.777 -0.7378  1.1668 -0.8072
   11MOL   C135 3955   6.604   2.744   6.604 -0.2327 -0.5681  0.9419
   11MOL   C136 3956   6.728   2.812   6.538  0.9869 -0.1772 -0.7290
   11MOL   C137 3957   6.833   2.737   6.485 -0.3234 -0.1351  0.5477
   11MOL   C138 3958   6.947   2.796   6.432 -0.6248 -0.1094  0.0111
   11MOL   C139 3959   6.958   2.938   6.425  0.2962 -0.0384 -0.2597
   11MOL   C140 3960   7.072   3.003   6.360 -0.4220  0.4327  0.2575
   11MOL   C141 3961   6.845   3.022   6.475 -0.8679  0.7734 -0.1952
   11MOL   C142 3962   6.738   2.954   6.532  0.2974 -0.6824 -0.0679
   11MOL   C143 3963   6.486   2.743   6.511 -0.3972  0.2948  0.2863
   11MOL   H144 3964   6.619   2.638   6.626  2.3469 -0.8933 -2.0460
   11MOL   H145 3965   6.831   2.629   6.489  0.8727 -0.2729 -1.8434
   11MOL   H146 3966   7.023   2.733   6.388  1.3173  1.9721  0.2914
   11MOL   H147 3967   7.143   3.024   6.440 -1.3836  0.0692  1.2195
   11MOL   H148 3968   7.120   2.933   6.293 -0.4297 -0.0870  0.7924
   11MOL   H149 3969   7.030   3.087   6.303  4.0004  0.4476 -3.2383
   11MOL   H150 3970   6.844   3.129   6.464 -2.3996  0.9645  1.5959
   11MOL   H151 3971   6.657   3.014   6.571  2.1945  0.3198  2.5315
   11MOL   H152 3972   6.464   2.846   6.482  2.1063  0.5759 -0.8540
   11MOL   H153 3973   6.399   2.697   6.557  0.6802 -2.0555  0.0449
   11MOL   C154 3974   6.498   2.657   6.379  0.0097 -0.4225  0.0818
   11MOL   C155 3975   6.363   2.676   6.304  0.4564 -0.5807  0.1504
   11MOL   C156 3976   6.267   2.571   6.299 -0.0364  0.6682 -0.2994
   11MOL   C157 3977   6.147   2.607   6.235 -0.2331  0.0796  0.4441
   11MOL   C158 3978   6.121   2.728   6.171 -0.2401 -0.5800  0.9478
   11MOL   C159 3979   5.983   2.754   6.119  0.4249  0.4760 -0.5169
   11MOL   C160 3980   6.220   2.827   6.166 -0.3868 -0.0638 -0.2664
   11MOL   C161 3981   6.341   2.801   6.235 -0.5837 -0.0811  0.5357
   11MOL   C162 3982   6.549   2.515   6.402 -0.2420 -0.0914  0.3149
   11MOL   H163 3983   6.571   2.717   6.325  0.3414  0.1139  1.1265
   11MOL   H164 3984   6.282   2.479   6.353  0.3809  1.4124  0.8852
   11MOL   H165 3985   6.064   2.537   6.246  0.5215 -0.4591  3.0991
   11MOL   H166 3986   5.990   2.789   6.017 -0.0508  1.5450 -0.1920
   11MOL   H167 3987   5.930   2.659   6.124 -0.5016  1.0660  2.1477
   11MOL   H168 3988   5.934   2.832   6.178 -3.6135 -1.8431 -0.6435
   11MOL   H169 3989   6.211   2.923   6.117  0.5930  0.7470  1.0948
   11MOL   H170 3990   6.420   2.875   6.230 -0.1713 -0.5829 -0.5214
   11MOL   H171 3991   6.494   2.473   6.486 -0.7770  1.0006  0.5173
   11MOL   H172 3992   6.642   2.517   6.458  0.9898 -2.0440 -1.5808
   11MOL   C173 3993   6.578   2.417   6.279  0.9213 -0.1860  0.0300
   11MOL   C174 3994   6.636   2.287   6.336 -0.6940 -0.6431  0.4699
   11MOL   C175 3995   6.564   2.167   6.352 -0.3022 -0.3384 -0.1670
   11MOL   C176 3996   6.633   2.060   6.413 -0.4398 -0.5730  0.5168
   11MOL   C177 3997   6.771   2.070   6.444 -0.2724 -0.5811  0.6167
   11MOL   C178 3998   6.839   1.951   6.508 -0.2064 -0.5513  1.0801
   11MOL   C179 3999   6.839   2.188   6.422 -0.7298 -0.0469  0.6840
   11MOL   C180 4000   6.776   2.301   6.369  0.0022  0.1776 -0.3820
   11MOL   C181 4001   6.667   2.474   6.167  0.1524 -0.7277  0.1023
   11MOL   H182 4002   6.487   2.394   6.225  0.1191  2.3649  0.2187
   11MOL   H183 4003   6.461   2.168   6.319  0.1054 -1.2472 -1.4642
   11MOL   H184 4004   6.579   1.969   6.430  1.5813 -1.8340  0.3173
   11MOL   H185 4005   6.837   1.954   6.617  1.1704  0.8108  1.0819
   11MOL   H186 4006   6.790   1.857   6.483  0.4700 -0.2788 -1.3608
   11MOL   H187 4007   6.940   1.955   6.468 -0.9517  1.0063 -0.7421
   11MOL   H188 4008   6.942   2.187   6.455 -0.8974  1.2069  1.2755
   11MOL   H189 4009   6.829   2.395   6.358 -2.9909  1.8479 -1.1894
   11MOL   H190 4010   6.715   2.399   6.105  1.5539 -1.1502  1.6802
   11MOL   H191 4011   6.742   2.548   6.195 -1.7194  1.7895 -1.2730
   11MOL   C192 4012   6.594   2.563   6.055  0.4281  0.3870  0.3271
   11MOL   C193 4013   6.498   2.480   5.965  0.5891 -0.2336 -0.3091
   11MOL   C194 4014   6.365   2.519   5.946 -0.1731 -0.1611 -0.1731
   11MOL   C195 4015   6.279   2.434   5.882  0.3552  0.1927  0.8775
   11MOL   C196 4016   6.328   2.309   5.837 -0.0158 -0.1760 -0.1159
   11MOL   C197 4017   6.215   2.219   5.785 -0.5381  0.1321  0.5156
   11MOL   C198 4018   6.463   2.269   5.851  0.5349  0.1095 -0.4037
   11MOL   C199 4019   6.543   2.359   5.912 -0.9613  0.1771 -0.4211
   11MOL   C200 4020   6.692   2.636   5.959  0.1123  0.0315  0.5553
   11MOL   H201 4021   6.527   2.631   6.107  0.7548  1.7175 -0.9483
   11MOL   H202 4022   6.333   2.610   5.993  0.7343  0.2318 -0.2956
   11MOL   H203 4023   6.172   2.450   5.881  0.0037 -1.8824  1.8870
   11MOL   H204 4024   6.242   2.114   5.780 -1.0235  0.1124 -2.9661
   11MOL   H205 4025   6.118   2.241   5.830 -1.0998  1.2721 -1.2235
   11MOL   H206 4026   6.205   2.246   5.680 -0.5758 -1.1913  0.1716
   11MOL   H207 4027   6.496   2.172   5.818  0.6338  0.1705 -0.4841
   11MOL   H208 4028   6.645   2.325   5.916 -1.4542 -1.2571  0.8872
   11MOL   H209 4029   6.637   2.671   5.872 -0.9484  0.7780  1.5136
   11MOL   H210 4030   6.766   2.559   5.935  1.2505  0.6264  2.0589
   11MOL   C211 4031   6.764   2.759   6.013  0.2455 -0.3785  0.5341
   11MOL   C212 4032   6.668   2.875   6.048 -0.3721 -0.0836  0.1648
   11MOL   C213 4033   6.704   2.967   6.152  0.3062  0.6015  0.5646
   11MOL   C214 4034   6.623   3.075   6.186 -0.3329  0.1817 -1.1343
   11MOL   C215 4035   6.512   3.108   6.104 -0.3854  0.2212  0.8028
   11MOL   C216 4036   6.433   3.235   6.131 -0.7705  0.4848  0.0315
   11MOL   C217 4037   6.469   3.018   6.004 -0.2608  0.7286  0.3668
   11MOL   C218 4038   6.549   2.904   5.970  0.4208 -0.5664 -0.0348
   11MOL   C219 4039   6.870   2.816   5.916 -0.4204 -0.0533 -0.3644
   11MOL   H220 4040   6.818   2.732   6.103  2.4470  2.0841  0.0405
   11MOL   H221 4041   6.787   2.940   6.216 -0.0572  0.2301  0.8793
   11MOL   H222 4042   6.645   3.134   6.274  4.1931 -0.5794 -1.6504
   11MOL   H223 4043   6.336   3.241   6.080 -0.9909 -2.1276  0.0716
   11MOL   H224 4044   6.415   3.246   6.238  0.5618 -0.8693  0.4025
   11MOL   H225 4045   6.502   3.317   6.112  0.2656 -0.3245  0.2745
   11MOL   H226 4046   6.375   3.032   5.953  0.3603  1.4798 -0.6140
   11MOL   H227 4047   6.514   2.840   5.891 -1.7720  1.6172 -0.8909
   11MOL   H228 4048   6.908   2.901   5.972 -0.5233 -0.2541  0.0174
   11MOL   H229 4049   6.815   2.865   5.837 -2.1341  0.4203  1.0836
   11MOL   C230 4050   6.983   2.725   5.877  0.5473  0.5337  0.3199
   11MOL   C231 4051   7.049   2.650   5.996 -0.0643 -0.2141 -0.3735
   11MOL   C232 4052   7.041   2.509   6.007 -0.0259 -0.9641  0.0183
   11MOL   C233 4053   7.105   2.443   6.112  0.0948  0.2711 -0.6027
   11MOL   C234 4054   7.182   2.516   6.212  0.3227 -0.2041  0.7214
   11MOL   C235 4055   7.267   2.457   6.316  0.0599 -0.1862  0.0639
   11MOL   C236 4056   7.187   2.654   6.200 -0.5186  0.0853  0.6874
   11MOL   C237 4057   7.127   2.721   6.090  0.3085 -0.5713  0.0599
   11MOL   C238 4058   7.093   2.802   5.802 -0.7326 -0.1462  0.3783
   11MOL   H239 4059   6.948   2.651   5.806 -2.7164  0.2856  2.0669
   11MOL   H240 4060   6.995   2.454   5.926 -2.6919 -0.9969  1.5214
   11MOL   H241 4061   7.107   2.336   6.125  0.1717  0.3514  0.0718
   11MOL   H242 4062   7.363   2.507   6.327  0.2524 -0.9201  1.8809
   11MOL   H243 4063   7.215   2.470   6.411 -1.2035 -0.0023 -0.6482
   11MOL   H244 4064   7.275   2.349   6.299 -0.9671  0.2357 -3.4330
   11MOL   H245 4065   7.250   2.712   6.266 -2.0346  3.7513 -0.9376
   11MOL   H246 4066   7.145   2.826   6.069  0.3822 -0.4824  0.5675
   11MOL   H247 4067   7.174   2.843   5.863 -0.5937  0.6469 -0.3303
   11MOL   H248 4068   7.050   2.893   5.759 -2.3201 -1.0318  0.0516
   11MOL   C249 4069   7.157   2.744   5.676 -0.2926  1.0842  0.0817
   11MOL   C250 4070   7.178   2.591   5.686  0.3907  0.4078 -0.6518
   11MOL   C251 4071   7.276   2.528   5.767 -0.3538  0.1925  1.0045
   11MOL   C252 4072   7.291   2.390   5.780  0.2725  0.2014  0.8112
   11MOL   C253 4073   7.200   2.307   5.710  0.4042  0.0360 -0.3121
   11MOL   C254 4074   7.214   2.159   5.728 -0.4958  0.3417  0.0413
   11MOL   C255 4075   7.100   2.366   5.631  0.2546 -0.1230 -0.5511
   11MOL   C256 4076   7.092   2.504   5.618 -0.2478 -0.3663  0.3110
   11MOL   C257 4077   7.296   2.808   5.647 -0.6997  0.0841  0.2578
   11MOL   H258 4078   7.089   2.772   5.596  0.5077 -0.7597 -1.2721
   11MOL   H259 4079   7.340   2.587   5.831 -1.2419  1.7255  0.4999
   11MOL   H260 4080   7.373   2.348   5.835 -0.5946 -0.0326  1.9672
   11MOL   H261 4081   7.160   2.142   5.821 -3.0461 -0.7751 -1.6172
   11MOL   H262 4082   7.176   2.104   5.642  1.6199 -1.2948  0.1086
   11MOL   H263 4083   7.319   2.149   5.756 -0.6010  0.2714  0.4228
   11MOL   H264 4084   7.025   2.317   5.571 -0.7260 -1.3249  1.5694
   11MOL   H265 4085   7.004   2.547   5.572 -0.9301 -0.3527  1.5970
   11MOL   H266 4086   7.328   2.770   5.549 -0.8566 -0.4598  0.4197
   11MOL   H267 4087   7.377   2.773   5.712  0.4406  0.5820 -0.8618
   11MOL   C268 4088   7.300   2.962   5.631  0.1407  0.3732 -0.4112
   11MOL   C269 4089   7.207   3.025   5.522  0.2310  0.1776  0.3657
   11MOL   C270 4090   7.229   3.021   5.379  0.4374 -0.2684 -0.2586
   11MOL   C271 4091   7.133   3.076   5.289  0.0021  0.7568  0.1409
   11MOL   C272 4092   7.024   3.144   5.336  0.2482 -0.4469 -0.5090
   11MOL   C273 4093   6.929   3.216   5.244  0.7894  0.1610  0.1176
   11MOL   C274 4094   7.006   3.157   5.474 -0.2417  0.5847 -0.1549
   11MOL   C275 4095   7.091   3.095   5.568 -0.4980 -0.0219  0.4623
   11MOL   C276 4096   7.443   3.021   5.624  0.2022 -0.4334  0.3654
   11MOL   H277 4097   7.257   2.991   5.726 -0.6527  0.5867 -0.8319
   11MOL   H278 4098   7.316   2.968   5.345 -1.7977 -2.1937 -3.2215
   11MOL   H279 4099   7.145   3.058   5.183 -0.4593  0.3718  0.1520
   11MOL   H280 4100   6.880   3.143   5.180  0.1273 -0.3471  1.1973
   11MOL   H281 4101   6.854   3.270   5.300 -1.3625 -0.8760 -1.6973
   11MOL   H282 4102   6.984   3.291   5.186  0.9877 -2.5594 -3.3873
   11MOL   H283 4103   6.913   3.205   5.502  0.0114  0.7783  0.3532
   11MOL   H284 4104   7.077   3.101   5.674 -0.3424  0.5063  0.4576
   11MOL   H285 4105   7.447   3.125   5.593  4.3580 -0.7444 -0.4268
   11MOL   H286 4106   7.506   2.968   5.553  0.6610  1.9109 -1.0262
   11MOL   C287 4107   7.509   3.017   5.771 -0.4955 -0.9735  0.1801
   11MOL   C288 4108   7.436   3.097   5.879  0.3359  0.0464 -0.5576
   11MOL   C289 4109   7.399   3.025   5.994 -0.8349 -0.1572  0.0743
   11MOL   C290 4110   7.337   3.088   6.104 -0.0174  0.4302  0.4418
   11MOL   C291 4111   7.323   3.224   6.100  0.3170 -0.4160  0.1482
   11MOL   C292 4112   7.250   3.295   6.216 -0.0124 -0.4658 -0.1561
   11MOL   C293 4113   7.366   3.302   5.994 -0.3590 -0.4533 -0.4349
   11MOL   C294 4114   7.428   3.239   5.886 -0.8594  0.7560  0.2044
   11MOL   C295 4115   7.655   3.056   5.776 -0.7567 -0.4445 -0.4088
   11MOL   H296 4116   7.520   2.915   5.807  1.5310 -0.0792  2.2967
   11MOL   H297 4117   7.413   2.918   5.990 -2.0744 -0.3409  0.3500
   11MOL   H298 4118   7.304   3.023   6.184  1.9175 -2.8545 -1.3260
   11MOL   H299 4119   7.282   3.254   6.311 -0.5838 -0.3216  0.1035
   11MOL   H300 4120   7.262   3.403   6.205  0.5421 -0.5031  0.0731
   11MOL   H301 4121   7.142   3.277   6.209  0.1407 -1.3414 -0.3376
   11MOL   H302 4122   7.362   3.410   5.993 -4.2160 -0.5290  0.3790
   11MOL   H303 4123   7.466   3.295   5.801 -0.5804  0.4548  0.1291
   11MOL   H304 4124   7.687   3.049   5.880 -2.4481 -1.0626  0.0929
   11MOL   H305 4125   7.667   3.162   5.753 -0.6800 -0.2334  0.5860
   11MOL   C306 4126   7.759   2.967   5.704 -0.9959 -0.0811 -0.4578
   11MOL   C307 4127   7.735   2.818   5.722 -0.1011  0.4947  0.0698
   11MOL   C308 4128   7.710   2.739   5.603  0.9561  0.2694 -0.7038
   11MOL   C309 4129   7.688   2.598   5.619  0.0201 -0.1726 -0.1907
   11MOL   C310 4130   7.716   2.542   5.747 -0.4164  0.1621  0.2496
   11MOL   C311 4131   7.714   2.391   5.750 -0.0386  0.7890  0.5610
   11MOL   C312 4132   7.730   2.622   5.861 -0.1071  0.2467 -0.3180
   11MOL   C313 4133   7.754   2.757   5.842  0.2365  0.2958 -0.9148
   11MOL   C314 4134   7.903   3.005   5.724  0.4373  0.0573  0.5831
   11MOL   H315 4135   7.740   2.978   5.597  0.1705 -1.3307 -0.7990
   11MOL   H316 4136   7.709   2.789   5.508 -0.5698  0.1617 -0.7557
   11MOL   H317 4137   7.667   2.538   5.531 -1.5679 -0.6652  0.5168
   11MOL   H318 4138   7.796   2.355   5.688  1.9171  2.6181  2.0448
   11MOL   H319 4139   7.728   2.355   5.852 -1.0064 -2.2897 -0.3309
   11MOL   H320 4140   7.621   2.349   5.710 -0.4254  2.1120  0.0421
   11MOL   H321 4141   7.747   2.581   5.959  1.5986  3.3696  0.7697
   11MOL   H322 4142   7.779   2.812   5.932  0.5001 -0.9253 -0.2360
   11MOL   H323 4143   7.974   2.932   5.686  0.1104  0.3790 -0.6620
   11MOL   H324 4144   7.910   2.997   5.833 -2.7269 -0.1575  0.8114
   11MOL   C325 4145   7.937   3.145   5.669 -0.3625  0.4691 -0.7889
   11MOL   C326 4146   7.885   3.169   5.525  0.7687  0.4400 -0.0998
   11MOL   C327 4147   7.922   3.091   5.411  0.6774 -0.1899  0.8380
   11MOL   C328 4148   7.880   3.128   5.281  0.0933 -0.1757  0.3715
   11MOL   C329 4149   7.799   3.244   5.266  0.2526 -0.0420 -0.0336
   11MOL   C330 4150   7.763   3.286   5.131  0.0279  0.8030  0.9577
   11MOL   C331 4151   7.755   3.320   5.381 -0.0779 -0.3736 -0.5301
   11MOL   C332 4152   7.800   3.281   5.511 -0.6484 -1.1766  0.6893
   11MOL   C333 4153   0.008   3.170   5.686  0.0651  0.0102 -0.1166
   11MOL   H334 4154   7.883   3.216   5.732 -0.4986  1.1841 -1.7087
   11MOL   H335 4155   7.982   3.001   5.414  1.8453  0.5906  1.0941
   11MOL   H336 4156   7.902   3.076   5.189 -0.4076 -1.7835  1.1430
   11MOL   H337 4157   7.751   3.203   5.061 -2.2638 -1.0806  3.4630
   11MOL   H338 4158   7.671   3.344   5.140 -0.4305  0.2850 -0.3748
   11MOL   H339 4159   7.839   3.350   5.086 -0.3977  0.5936 -0.0697
   11MOL   H340 4160   7.699   3.411   5.367 -0.1609 -0.6791 -2.2048
   11MOL   H341 4161   7.779   3.347   5.594 -1.0920  0.1814 -0.4907
   11MOL   H342 4162   0.060   3.104   5.617  0.6746  1.5159 -1.1296
   11MOL   H343 4163   0.048   3.136   5.782 -0.6108  1.3014  0.6526
   11MOL   C344 4164   0.053   3.316   5.676 -0.0791 -0.1759 -0.1578
   11MOL   C345 4165   0.141   3.347   5.556  0.5170  0.0355 -0.3503
   11MOL   C346 4166   0.265   3.280   5.535  0.3338 -0.4287  0.1151
   11MOL   C347 4167   0.337   3.315   5.425  0.3468 -0.3946  0.3164
   11MOL   C348 4168   0.284   3.401   5.327 -0.7282  0.0169 -0.4601
   11MOL   C349 4169   0.363   3.410   5.195 -0.5058 -0.6475 -0.8347
   11MOL   C350 4170   0.159   3.467   5.339 -0.2246  0.1371  0.0320
   11MOL   C351 4171   0.090   3.438   5.460 -0.1566  0.1976  0.1429
   11MOL   C352 4172   0.125   3.386   5.797 -0.0201 -0.5447 -0.4814
   11MOL   H353 4173   8.039   3.364   5.648  0.2937  0.9966  0.5886
   11MOL   H354 4174   0.301   3.211   5.610  1.9437 -0.1168 -0.3498
   11MOL   H355 4175   0.436   3.273   5.416  0.9163  0.5748  1.8362
   11MOL   H356 4176   0.425   3.323   5.173  3.7884  1.2878  2.7722
   11MOL   H357 4177   0.286   3.438   5.123 -1.0996  0.2267  0.1234
   11MOL   H358 4178   0.434   3.492   5.203  0.0455 -1.2272  0.4992
   11MOL   H359 4179   0.111   3.512   5.254  0.4862  0.7190 -0.0604
   11MOL   H360 4180   8.073   3.484   5.466 -0.4226 -0.4792  1.2959
   11MOL   H361 4181   0.164   3.482   5.763  2.6347 -1.0796  0.9629
   11MOL   H362 4182   0.207   3.324   5.833  0.5753  0.3255 -0.3169
   11MOL   C363 4183   0.035   3.408   5.922  1.3012 -0.5663 -0.2164
   11MOL   C364 4184   0.016   3.283   6.007 -0.6491 -0.3760  0.8499
   11MOL   C365 4185   0.122   3.227   6.086 -0.2573 -0.0332 -0.4145
   11MOL   C366 4186   0.097   3.105   6.160  0.5753 -0.8667 -1.3572
   11MOL   C367 4187   8.046   3.056   6.161  0.3087  0.2279  0.3778
   11MOL   C368 4188   8.012   2.937   6.255 -0.2170 -0.4867  0.0379
   11MOL   C369 4189   7.953   3.102   6.072 -0.5318  0.3941  0.0264
   11MOL   C370 4190   7.976   3.213   5.994 -0.0422 -0.6899  0.1642
   11MOL   C371 4191   7.991   3.492   5.895  0.3699  0.0451  0.0105
   11MOL   H372 4192   0.092   3.467   5.994  2.0734 -1.4727 -0.0646
   11MOL   H373 4193   0.225   3.260   6.087  0.1231 -1.0950 -1.9904
   11MOL   H374 4194   0.173   3.055   6.218 -1.0359 -1.3664  0.3748
   11MOL   H375 4195   0.000   2.926   6.339 -0.6158 -2.3196  0.1348
   11MOL   H376 4196   7.910   2.960   6.286 -1.0582 -1.7888 -1.6711
   11MOL   H377 4197   8.002   2.855   6.184  0.9868  0.1656 -0.9185
   11MOL   H378 4198   7.859   3.050   6.065  0.0020 -0.3517 -1.8222
   11MOL   H379 4199   7.890   3.255   5.945  0.0162 -0.4536  0.2637
   11MOL   H380 4200   7.924   3.469   5.812 -0.0068  0.2499  0.2573
   11MOL   H381 4201   8.014   3.597   5.880  1.2007 -0.3681 -1.8133
   11MOL   H382 4202   7.918   3.497   5.976 -0.8659 -0.3019 -1.0690
   12MOL     C1 4203   3.657   2.799   2.486  0.4891 -0.7518  0.4189
   12MOL     C2 4204   3.614   2.808   2.629  0.4608 -0.2661 -0.4588
   12MOL     C3 4205   3.709   2.790   2.728  0.6902 -0.3655  0.0598
   12MOL     C4 4206   3.669   2.778   2.865  0.3558 -0.2867  0.1052
   12MOL     C5 4207   3.536   2.808   2.897 -0.0570 -0.5136 -0.3296
   12MOL     C6 4208   3.495   2.822   3.043  0.0043  0.5410 -0.0202
   12MOL     C7 4209   3.439   2.819   2.800  0.6220  0.2660  0.1933
   12MOL     C8 4210   3.482   2.815   2.666  0.0563 -0.3829 -0.2304
   12MOL     C9 4211   3.636   2.661   2.426 -0.2017 -0.2518 -0.4033
   12MOL    H10 4212   3.597   2.876   2.437 -0.8359 -0.9707  1.6479
   12MOL    H11 4213   3.811   2.770   2.702  0.5227  0.3111 -1.1454
   12MOL    H12 4214   3.749   2.752   2.934  0.7938 -1.0904 -0.6942
   12MOL    H13 4215   3.397   2.782   3.066  0.0715 -0.3674 -1.3194
   12MOL    H14 4216   3.560   2.765   3.110 -0.7935  1.6481  1.7588
   12MOL    H15 4217   3.504   2.928   3.069 -0.3604  1.4497 -3.4063
   12MOL    H16 4218   3.337   2.827   2.835  0.1315 -3.3665 -0.2113
   12MOL    H17 4219   3.403   2.820   2.593  0.1069 -3.8010 -0.6406
   12MOL    H18 4220   3.530   2.646   2.407 -0.0650 -1.7751 -0.0439
   12MOL    H19 4221   3.670   2.582   2.494  1.1267  0.0211 -0.7283
   12MOL    H20 4222   3.762   2.829   2.484  0.8483 -1.8403  1.7871
   12MOL    C21 4223   3.712   2.646   2.298 -0.1616  0.2429  0.3341
   12MOL    C22 4224   3.654   2.544   2.207 -0.3554  0.6645 -0.1862
   12MOL    C23 4225   3.662   2.404   2.246 -0.5726  0.1102 -0.9811
   12MOL    C24 4226   3.601   2.313   2.157  0.1004  0.2442  0.4106
   12MOL    C25 4227   3.539   2.349   2.037 -0.5432  0.4241  0.2350
   12MOL    C26 4228   3.470   2.245   1.954 -0.1980 -0.5254 -0.3302
   12MOL    C27 4229   3.524   2.487   2.007  0.4542 -0.6431  0.7055
   12MOL    C28 4230   3.583   2.587   2.092 -0.2458 -0.3198  0.0907
   12MOL    C29 4231   3.866   2.631   2.315 -0.0537  0.1085 -0.4788
   12MOL    H30 4232   3.684   2.734   2.240 -0.0124  0.0223 -0.0767
   12MOL    H31 4233   3.723   2.371   2.329 -1.4091  1.6448  0.2838
   12MOL    H32 4234   3.628   2.209   2.171  2.7080  1.0015  1.4310
   12MOL    H33 4235   3.499   2.144   1.981 -0.2818 -1.1157 -2.3279
   12MOL    H34 4236   3.364   2.256   1.977 -0.6959  0.1548 -2.7568
   12MOL    H35 4237   3.475   2.269   1.848  1.4543  0.7623  0.0212
   12MOL    H36 4238   3.458   2.507   1.924 -0.3228  1.5115  1.7966
   12MOL    H37 4239   3.563   2.692   2.073 -1.6279 -0.8200 -1.3611
   12MOL    H38 4240   3.895   2.527   2.301  0.4204 -0.2551  2.7520
   12MOL    H39 4241   3.886   2.665   2.417 -2.1464  0.7856 -0.2712
   12MOL    C40 4242   3.950   2.726   2.219 -0.1848  0.2354  0.2355
   12MOL    C41 4243   3.957   2.679   2.072  0.4240 -0.3371 -0.2115
   12MOL    C42 4244   3.883   2.737   1.973 -0.0215 -0.5642 -0.5666
   12MOL    C43 4245   3.913   2.713   1.837 -0.1765  0.7246  0.7447
   12MOL    C44 4246   4.008   2.611   1.807 -0.4441 -0.2266  0.4692
   12MOL    C45 4247   4.039   2.583   1.660 -0.0651  0.0062  0.1820
   12MOL    C46 4248   4.066   2.539   1.912  0.5125 -0.0311 -0.3101
   12MOL    C47 4249   4.044   2.573   2.042 -0.6885  0.1530  0.1287
   12MOL    C48 4250   4.088   2.755   2.283  0.0768  0.5917  0.1990
   12MOL    H49 4251   3.887   2.816   2.220 -1.8794 -0.9036 -0.4809
   12MOL    H50 4252   3.806   2.811   1.989  1.4639  0.3184  2.7732
   12MOL    H51 4253   3.858   2.756   1.754  0.6751 -1.1172 -0.8121
   12MOL    H52 4254   3.990   2.494   1.621 -0.1167  1.2588 -2.8417
   12MOL    H53 4255   4.026   2.674   1.601  0.3607 -1.6927 -2.6366
   12MOL    H54 4256   4.146   2.573   1.642 -0.0449  1.8382 -0.9102
   12MOL    H55 4257   4.137   2.464   1.881 -0.6168 -0.3346 -2.3062
   12MOL    H56 4258   4.098   2.525   2.122 -0.1041  1.1991  0.3604
   12MOL    H57 4259   4.150   2.810   2.212 -0.2741 -1.1649 -1.5156
   12MOL    H58 4260   4.145   2.665   2.302 -0.2302 -0.5099 -3.5369
   12MOL    C59 4261   4.084   2.855   2.402  0.4509 -0.0510 -0.1619
   12MOL    C60 4262   4.022   2.988   2.369  0.8790  0.2230  0.2471
   12MOL    C61 4263   3.949   3.051   2.473 -0.4655  0.6191 -0.3010
   12MOL    C62 4264   3.891   3.179   2.451  0.7164  0.4442 -0.4221
   12MOL    C63 4265   3.898   3.241   2.327 -0.1069  0.4799  0.5555
   12MOL    C64 4266   3.844   3.384   2.308  0.5091  0.7103 -0.4186
   12MOL    C65 4267   3.985   3.185   2.230  0.2333 -1.0158  0.0264
   12MOL    C66 4268   4.035   3.055   2.248  0.7692  0.3710 -0.0813
   12MOL    C67 4269   4.216   2.871   2.497  0.1289  0.1632 -0.2582
   12MOL    H68 4270   4.020   2.812   2.479  0.1264 -0.3157 -0.5752
   12MOL    H69 4271   3.931   3.004   2.568 -1.2143  1.8155  0.1634
   12MOL    H70 4272   3.840   3.220   2.537  0.1608 -1.1618  0.0359
   12MOL    H71 4273   3.824   3.402   2.203 -2.4288 -0.1201 -0.0370
   12MOL    H72 4274   3.757   3.404   2.371  2.0986  0.8408  1.8203
   12MOL    H73 4275   3.915   3.456   2.350  0.7949 -0.4783  1.2020
   12MOL    H74 4276   4.004   3.248   2.144 -1.4655  3.0719  2.4745
   12MOL    H75 4277   4.096   3.020   2.166  0.9784  1.0223 -0.2083
   12MOL    H76 4278   4.202   2.951   2.570  1.3871  1.8332 -1.8215
   12MOL    H77 4279   4.287   2.935   2.445 -1.4429  2.3003  0.1678
   12MOL    C78 4280   4.285   2.748   2.553 -0.0365 -0.6425 -0.2313
   12MOL    C79 4281   4.177   2.665   2.624  0.3074  0.4151  0.3559
   12MOL    C80 4282   4.120   2.709   2.748  0.6435 -0.0286  0.1407
   12MOL    C81 4283   4.035   2.629   2.821  0.0822  0.2927 -0.1454
   12MOL    C82 4284   3.993   2.508   2.768  0.2997  0.3068  0.0439
   12MOL    C83 4285   3.881   2.423   2.831  0.3845  0.1514 -0.2351
   12MOL    C84 4286   4.056   2.462   2.652  0.2241 -0.4424 -0.4064
   12MOL    C85 4287   4.152   2.537   2.581  0.2552  0.2773  0.5052
   12MOL    C86 4288   4.407   2.768   2.641  0.1489 -0.0058 -0.4691
   12MOL    H87 4289   4.320   2.693   2.466 -0.7401  0.0435 -0.9539
   12MOL    H88 4290   4.145   2.808   2.785  1.8703  0.3575 -1.6633
   12MOL    H89 4291   3.996   2.664   2.916 -0.3326  0.8391 -0.5162
   12MOL    H90 4292   3.845   2.334   2.780 -0.2270  0.1473  0.1981
   12MOL    H91 4293   3.926   2.376   2.919 -0.0105 -0.0126 -0.1190
   12MOL    H92 4294   3.800   2.492   2.857 -0.2203 -1.7328  3.2681
   12MOL    H93 4295   4.024   2.367   2.612 -3.3071 -0.0431  1.2699
   12MOL    H94 4296   4.195   2.503   2.488  0.2630  0.1324  0.5609
   12MOL    H95 4297   4.387   2.824   2.732 -1.4590 -0.0563 -0.7638
   12MOL    H96 4298   4.479   2.824   2.582  0.5895 -1.1423 -1.0333
   12MOL    C97 4299   4.479   2.646   2.698  0.7038 -0.1157 -0.1687
   12MOL    C98 4300   4.504   2.679   2.845  0.2562 -0.3276  0.0463
   12MOL    C99 4301   4.586   2.790   2.882 -0.6067  0.1681  0.0480
   12MOL   C100 4302   4.616   2.813   3.013  0.9838 -0.1409  1.1006
   12MOL   C101 4303   4.559   2.724   3.110 -0.6709  0.4235  0.0255
   12MOL   C102 4304   4.595   2.751   3.253 -0.5844  0.0856  0.0220
   12MOL   C103 4305   4.481   2.612   3.073  0.4376 -0.1451 -1.0075
   12MOL   C104 4306   4.448   2.590   2.942 -0.0764  0.1727  0.1976
   12MOL   C105 4307   4.612   2.616   2.629  0.0650 -0.1873 -1.0830
   12MOL   H106 4308   4.416   2.557   2.699  0.5711 -0.0465 -1.6775
   12MOL   H107 4309   4.615   2.866   2.811 -1.5425  0.6857  0.2175
   12MOL   H108 4310   4.677   2.899   3.037 -0.8363  1.2049  0.9801
   12MOL   H109 4311   4.502   2.735   3.307 -0.6688  0.9956  0.1597
   12MOL   H110 4312   4.680   2.692   3.287 -0.8966 -0.2820  0.1672
   12MOL   H111 4313   4.629   2.855   3.257 -1.3121  0.3596 -0.6755
   12MOL   H112 4314   4.454   2.534   3.142 -0.0205  0.3308 -0.6440
   12MOL   H113 4315   4.392   2.502   2.915 -1.6762  1.0900  0.4319
   12MOL   H114 4316   4.681   2.578   2.704  0.2801  0.5119 -0.9206
   12MOL   H115 4317   4.662   2.704   2.588  0.7444  0.6916  1.5721
   12MOL   C116 4318   4.595   2.502   2.526  0.4510  0.0607  0.3813
   12MOL   C117 4319   4.567   2.366   2.599 -0.5920 -0.2915 -0.6129
   12MOL   C118 4320   4.450   2.300   2.583 -0.1024  0.0179  0.2351
   12MOL   C119 4321   4.423   2.172   2.647 -0.4959  0.3229  0.5332
   12MOL   C120 4322   4.514   2.123   2.737  0.0875 -0.0832 -0.4335
   12MOL   C121 4323   4.482   2.006   2.820  0.1125 -0.8666  0.7390
   12MOL   C122 4324   4.638   2.190   2.753  0.2780  0.1871 -0.5325
   12MOL   C123 4325   4.664   2.311   2.683 -0.2730 -0.0247 -0.5539
   12MOL   C124 4326   4.694   2.492   2.418 -1.0366 -0.3832  0.4188
   12MOL   H125 4327   4.503   2.534   2.476  0.6741  0.6901  0.3627
   12MOL   H126 4328   4.378   2.349   2.519 -0.4183  0.3884  0.8664
   12MOL   H127 4329   4.327   2.127   2.630  0.1415 -0.5128 -0.9359
   12MOL   H128 4330   4.565   1.935   2.817 -1.1863 -2.3777 -4.0846
   12MOL   H129 4331   4.478   2.038   2.924 -2.1508 -0.3696  0.5056
   12MOL   H130 4332   4.392   1.948   2.802 -1.4973  1.6423  0.4015
   12MOL   H131 4333   4.703   2.157   2.832 -0.2357  0.2268 -0.0878
   12MOL   H132 4334   4.757   2.365   2.692 -0.8102  1.0154 -1.1556
   12MOL   H133 4335   4.682   2.401   2.360 -0.5122  1.2118 -2.2523
   12MOL   H134 4336   4.788   2.476   2.472 -0.9122 -2.3845 -0.3558
   12MOL   C135 4337   4.724   2.596   2.312 -0.3106  0.3664  1.1257
   12MOL   C136 4338   4.609   2.664   2.239  0.1686  0.4318 -0.5166
   12MOL   C137 4339   4.622   2.798   2.197  0.3006  0.2385 -0.8617
   12MOL   C138 4340   4.526   2.853   2.118  0.0478  0.6063 -0.0532
   12MOL   C139 4341   4.417   2.771   2.074 -0.1880  0.3193 -0.6077
   12MOL   C140 4342   4.324   2.814   1.964 -0.7427 -0.2701 -0.2094
   12MOL   C141 4343   4.398   2.636   2.126  0.5052  0.0617 -0.4744
   12MOL   C142 4344   4.499   2.582   2.199  0.2484 -0.1783  0.5037
   12MOL   C143 4345   4.837   2.549   2.222  0.9440 -0.2750 -0.4019
   12MOL   H144 4346   4.772   2.676   2.369  1.5671  0.4804 -0.5583
   12MOL   H145 4347   4.710   2.859   2.214 -0.3466  0.4981  1.9123
   12MOL   H146 4348   4.544   2.950   2.075 -0.8439 -0.0224 -1.9026
   12MOL   H147 4349   4.234   2.753   1.964 -1.5828  0.9604 -1.5005
   12MOL   H148 4350   4.301   2.920   1.957 -1.5317 -0.3615  0.9512
   12MOL   H149 4351   4.378   2.781   1.875 -0.7172  0.5124 -0.4904
   12MOL   H150 4352   4.314   2.578   2.091 -0.5959  0.0644  2.0505
   12MOL   H151 4353   4.478   2.482   2.234 -0.3733 -0.6147 -1.0566
   12MOL   H152 4354   4.831   2.601   2.127 -0.3741 -0.8188 -0.6214
   12MOL   H153 4355   4.810   2.448   2.190  2.5451 -0.8564  0.0340
   12MOL   C154 4356   4.987   2.529   2.272  0.5206 -0.9533  0.2692
   12MOL   C155 4357   5.032   2.648   2.348  0.5301 -0.3308 -0.0863
   12MOL   C156 4358   5.022   2.643   2.486 -0.0139  0.2939 -0.1697
   12MOL   C157 4359   5.054   2.763   2.561 -0.1941 -0.5433 -0.1183
   12MOL   C158 4360   5.103   2.880   2.495  0.3650  1.2020  0.4482
   12MOL   C159 4361   5.152   2.993   2.583  0.4920  0.8483  0.0596
   12MOL   C160 4362   5.110   2.883   2.361  0.3612 -0.0367  0.0235
   12MOL   C161 4363   5.077   2.767   2.285  0.4506  0.8809  1.1764
   12MOL   C162 4364   5.096   2.492   2.171 -0.3103  0.2620  0.2846
   12MOL   H163 4365   4.977   2.444   2.341  2.0058 -0.8997  0.5518
   12MOL   H164 4366   4.992   2.552   2.536  0.1615  1.1435  1.4926
   12MOL   H165 4367   5.062   2.762   2.668  0.2656  1.8834 -0.0978
   12MOL   H166 4368   5.062   3.045   2.615  0.1159  0.1226  0.1960
   12MOL   H167 4369   5.214   2.967   2.669 -0.3467  2.4079  1.1591
   12MOL   H168 4370   5.199   3.067   2.518  0.7001 -0.6039 -1.4851
   12MOL   H169 4371   5.141   2.970   2.306 -1.1068  1.1128  0.9917
   12MOL   H170 4372   5.080   2.773   2.178 -1.3995  1.4688  1.1481
   12MOL   H171 4373   5.190   2.495   2.227 -0.2954 -0.7551  0.3214
   12MOL   H172 4374   5.092   2.569   2.094 -0.9011 -2.2763 -2.2742
   12MOL   C173 4375   5.073   2.358   2.100  0.3990 -0.0016  0.5029
   12MOL   C174 4376   5.078   2.248   2.199 -0.0712  0.3302 -0.4431
   12MOL   C175 4377   5.189   2.222   2.276 -0.1506 -1.0382  0.1019
   12MOL   C176 4378   5.184   2.118   2.374 -0.0871  1.4046 -0.3695
   12MOL   C177 4379   5.068   2.036   2.389  0.0750 -0.2834 -0.4605
   12MOL   C178 4380   5.059   1.933   2.499 -0.2933 -0.0382  0.2190
   12MOL   C179 4381   4.955   2.057   2.313  0.3871 -0.2053 -0.4658
   12MOL   C180 4382   4.963   2.170   2.219  0.4810 -0.1366  0.8114
   12MOL   C181 4383   5.171   2.333   1.987 -0.1545  0.6178  0.2534
   12MOL   H182 4384   4.973   2.361   2.056 -0.1021  0.7019  1.6648
   12MOL   H183 4385   5.277   2.283   2.261  0.4149 -0.9810  3.1844
   12MOL   H184 4386   5.274   2.100   2.431 -0.4166 -2.6428 -0.9960
   12MOL   H185 4387   5.071   1.838   2.447  1.1616  0.2828 -0.0698
   12MOL   H186 4388   5.136   1.947   2.575 -0.7608  2.1150  0.3280
   12MOL   H187 4389   4.961   1.942   2.545 -1.0904 -1.6901 -1.0857
   12MOL   H188 4390   4.868   1.994   2.318  0.0752  0.0967 -1.8640
   12MOL   H189 4391   4.880   2.191   2.154  2.0093 -1.3015 -1.5894
   12MOL   H190 4392   5.177   2.230   1.951  2.0749  1.3386 -1.4942
   12MOL   H191 4393   5.270   2.346   2.030  0.7103 -1.1333 -1.1744
   12MOL   C192 4394   5.157   2.415   1.849  0.7137  0.6118 -0.0879
   12MOL   C193 4395   5.039   2.371   1.765  0.2772  0.3451 -0.6697
   12MOL   C194 4396   4.918   2.445   1.763  0.4178 -0.1150 -0.5197
   12MOL   C195 4397   4.810   2.396   1.688 -0.2625  0.0269 -0.0856
   12MOL   C196 4398   4.813   2.272   1.619 -0.4692  0.1331 -0.0259
   12MOL   C197 4399   4.687   2.222   1.548 -0.6144 -0.2447 -0.1406
   12MOL   C198 4400   4.932   2.192   1.625  0.0594 -0.4331  0.2135
   12MOL   C199 4401   5.043   2.243   1.702  0.1974  0.5980  0.1457
   12MOL   C200 4402   5.290   2.409   1.776  0.1743  0.2302  0.2835
   12MOL   H201 4403   5.133   2.520   1.868 -0.2552  0.3098  0.3925
   12MOL   H202 4404   4.912   2.543   1.808 -1.4560 -0.1610 -0.6024
   12MOL   H203 4405   4.723   2.461   1.691 -0.1989  0.2722 -2.7061
   12MOL   H204 4406   4.681   2.116   1.575 -1.9689  0.0684  0.7930
   12MOL   H205 4407   4.601   2.285   1.565 -1.2353 -1.4603  1.3379
   12MOL   H206 4408   4.719   2.214   1.444 -1.7934 -0.9000 -0.4614
   12MOL   H207 4409   4.934   2.100   1.569 -0.1292  0.6355 -1.5701
   12MOL   H208 4410   5.129   2.177   1.703 -0.9704 -0.9674 -0.0689
   12MOL   H209 4411   5.310   2.302   1.767  2.8573  0.6883  0.4298
   12MOL   H210 4412   5.358   2.455   1.847  0.1149  0.4746  0.1846
   12MOL   C211 4413   5.303   2.473   1.633  0.0879  0.4349  0.8758
   12MOL   C212 4414   5.425   2.424   1.556  0.3590 -0.3081  0.2142
   12MOL   C213 4415   5.537   2.501   1.525 -0.5294  0.6033  0.5283
   12MOL   C214 4416   5.633   2.457   1.435  0.1222 -0.2624 -0.4798
   12MOL   C215 4417   5.617   2.335   1.366  0.1823  0.2437  0.0161
   12MOL   C216 4418   5.725   2.294   1.284 -0.5287  0.4618  0.2840
   12MOL   C217 4419   5.503   2.256   1.395 -0.4852 -0.2024 -0.9804
   12MOL   C218 4420   5.410   2.301   1.491 -0.1437  0.0697  0.3540
   12MOL   C219 4421   5.289   2.623   1.626  0.5306 -0.1998 -0.6702
   12MOL   H220 4422   5.216   2.436   1.578  0.0760  0.9574  0.5398
   12MOL   H221 4423   5.558   2.595   1.574  1.7087  0.2060  0.3745
   12MOL   H222 4424   5.706   2.535   1.417  0.1897 -0.4754 -1.1549
   12MOL   H223 4425   5.718   2.188   1.259  0.6659  0.8385 -1.7253
   12MOL   H224 4426   5.709   2.352   1.193 -1.5733 -0.3582 -0.0711
   12MOL   H225 4427   5.826   2.322   1.313  0.1263 -1.2409 -0.2759
   12MOL   H226 4428   5.509   2.160   1.347  0.4969 -0.9457  0.5836
   12MOL   H227 4429   5.333   2.231   1.519  0.5648 -0.6929  0.3965
   12MOL   H228 4430   5.383   2.675   1.646  0.2463  0.2592 -0.5121
   12MOL   H229 4431   5.222   2.658   1.704  0.6843  0.1960 -0.7148
   12MOL   C230 4432   5.237   2.684   1.492 -0.2333  0.5808  0.5634
   12MOL   C231 4433   5.293   2.824   1.466 -0.3480  0.0007 -0.0979
   12MOL   C232 4434   5.341   2.860   1.340  0.3666 -0.0905 -0.0592
   12MOL   C233 4435   5.380   2.995   1.311  0.0793  0.0220 -0.5475
   12MOL   C234 4436   5.367   3.093   1.407  0.0157 -0.0084 -1.0231
   12MOL   C235 4437   5.409   3.230   1.383 -0.3886 -0.0086  0.0278
   12MOL   C236 4438   5.329   3.057   1.539 -0.2788 -0.0232  0.0680
   12MOL   C237 4439   5.295   2.923   1.564 -0.0195  0.2917 -0.1818
   12MOL   C238 4440   5.084   2.670   1.497 -0.2099 -0.2269 -0.1742
   12MOL   H239 4441   5.255   2.629   1.400  0.8472  2.3264 -0.3082
   12MOL   H240 4442   5.349   2.797   1.253 -0.0291 -4.3894  2.8279
   12MOL   H241 4443   5.423   3.020   1.215  1.2743 -2.6423 -0.7448
   12MOL   H242 4444   5.323   3.294   1.365 -0.3844 -0.6253 -2.3468
   12MOL   H243 4445   5.466   3.255   1.472 -0.9090  1.2063  0.0267
   12MOL   H244 4446   5.471   3.224   1.293 -1.0496 -1.3438 -0.3491
   12MOL   H245 4447   5.308   3.134   1.612 -0.0709 -1.0418  1.2343
   12MOL   H246 4448   5.252   2.902   1.661  0.6031 -0.3807 -0.0481
   12MOL   H247 4449   5.048   2.701   1.595 -0.4705  0.4038 -0.4658
   12MOL   H248 4450   5.055   2.565   1.488  0.2162 -0.3033 -0.7542
   12MOL   C249 4451   5.002   2.761   1.403 -1.0647  0.2940 -0.0530
   12MOL   C250 4452   4.862   2.793   1.444  0.8051 -0.0997  0.0478
   12MOL   C251 4453   4.814   2.927   1.456 -0.5508 -0.0512  0.2513
   12MOL   C252 4454   4.681   2.953   1.478 -0.1134  0.4567 -0.2764
   12MOL   C253 4455   4.586   2.850   1.498 -0.2838  0.0119  0.2778
   12MOL   C254 4456   4.439   2.884   1.514  0.3313 -0.1020 -0.3679
   12MOL   C255 4457   4.635   2.717   1.510 -0.5627 -1.1088 -0.0629
   12MOL   C256 4458   4.770   2.697   1.485 -0.4405  0.6174  0.0092
   12MOL   C257 4459   5.001   2.692   1.262  0.0645  0.2878 -0.5676
   12MOL   H258 4460   5.056   2.855   1.404  0.5432 -0.6203  1.1085
   12MOL   H259 4461   4.875   3.016   1.442  0.0217 -0.3149  1.0038
   12MOL   H260 4462   4.642   3.053   1.484 -0.3104  0.2711  1.7629
   12MOL   H261 4463   4.389   2.868   1.610  1.2768  1.5715  0.4164
   12MOL   H262 4464   4.425   2.992   1.521 -1.2018 -0.3620  1.0853
   12MOL   H263 4465   4.379   2.836   1.437 -0.4503  0.5548 -0.1788
   12MOL   H264 4466   4.572   2.633   1.533  0.2227 -1.9762 -1.0806
   12MOL   H265 4467   4.813   2.599   1.497 -1.4047 -0.1923 -3.0097
   12MOL   H266 4468   4.939   2.602   1.263 -2.3885  1.9017 -1.5709
   12MOL   H267 4469   5.099   2.662   1.225 -0.6760 -1.1763 -1.4125
   12MOL   C268 4470   4.944   2.790   1.157 -0.7373 -0.4242  0.8224
   12MOL   C269 4471   4.886   2.723   1.029  0.4412 -0.2670  0.0899
   12MOL   C270 4472   4.746   2.725   1.014 -0.0848  0.5825  0.1814
   12MOL   C271 4473   4.690   2.674   0.892  0.6610  0.1802  0.2981
   12MOL   C272 4474   4.764   2.623   0.786 -0.4817 -0.5894 -0.0987
   12MOL   C273 4475   4.701   2.565   0.666 -0.5255  0.2121  0.8116
   12MOL   C274 4476   4.903   2.629   0.804  0.2176  0.0927 -0.4158
   12MOL   C275 4477   4.967   2.682   0.919  0.0889  0.1021 -0.9473
   12MOL   C276 4478   5.053   2.898   1.126  0.1128  0.3659 -0.7724
   12MOL   H277 4479   4.865   2.846   1.208 -0.7318  1.1205 -0.8083
   12MOL   H278 4480   4.684   2.776   1.085 -1.0617 -0.6466  0.2160
   12MOL   H279 4481   4.583   2.672   0.879  0.8561 -1.5353 -1.1805
   12MOL   H280 4482   4.598   2.598   0.651 -0.5696  0.3969  1.5038
   12MOL   H281 4483   4.767   2.603   0.589 -1.0149  0.4623  0.5133
   12MOL   H282 4484   4.694   2.456   0.667  0.4109  0.1448  0.6065
   12MOL   H283 4485   4.964   2.593   0.723  0.9862 -0.2790  0.3191
   12MOL   H284 4486   5.074   2.682   0.936 -0.1040  2.1056  0.4737
   12MOL   H285 4487   5.131   2.835   1.084  0.1442 -0.0460 -0.1020
   12MOL   H286 4488   5.108   2.940   1.210 -1.4221  1.5395 -0.3397
   12MOL   C287 4489   5.013   3.004   1.027 -0.0504  0.0247 -0.3756
   12MOL   C288 4490   5.143   3.064   0.975  0.2561 -0.8748  0.2343
   12MOL   C289 4491   5.187   3.039   0.845  0.0235  0.2033  0.0525
   12MOL   C290 4492   5.308   3.083   0.802 -0.2052  0.0944 -0.5915
   12MOL   C291 4493   5.387   3.153   0.890 -0.1348  0.1228  1.7484
   12MOL   C292 4494   5.523   3.202   0.833 -0.2295  0.1806  0.5787
   12MOL   C293 4495   5.347   3.182   1.021  0.2394  0.2144  0.0599
   12MOL   C294 4496   5.222   3.133   1.064 -0.3285  0.1862  0.1412
   12MOL   C295 4497   4.914   3.105   1.092 -0.5844  0.0129  0.0180
   12MOL   H296 4498   4.969   2.957   0.939 -0.9360  0.5864 -0.2453
   12MOL   H297 4499   5.120   2.987   0.778  1.4590  0.9620 -2.0346
   12MOL   H298 4500   5.334   3.056   0.701 -1.3408 -0.8110 -0.6537
   12MOL   H299 4501   5.543   3.149   0.740 -0.7452 -0.5364  0.8663
   12MOL   H300 4502   5.518   3.310   0.820  1.9893  0.1710 -0.6564
   12MOL   H301 4503   5.599   3.183   0.909  0.0744  0.1519  0.2666
   12MOL   H302 4504   5.421   3.234   1.080 -1.9338  3.6748 -0.0952
   12MOL   H303 4505   5.185   3.154   1.164 -1.4410  0.2096 -0.2752
   12MOL   H304 4506   4.959   3.139   1.186  0.5736  1.4626 -1.0432
   12MOL   H305 4507   4.820   3.064   1.128 -1.4868  0.6926 -1.5629
   12MOL   C306 4508   4.883   3.225   1.005 -0.0582  0.4674  0.1844
   12MOL   C307 4509   4.838   3.342   1.095  0.3070  0.1353 -0.3460
   12MOL   C308 4510   4.935   3.409   1.175  0.5740 -0.1577  0.2916
   12MOL   C309 4511   4.897   3.500   1.276 -0.8003 -0.3246  1.1193
   12MOL   C310 4512   4.759   3.537   1.287 -0.4537  0.7323 -0.5438
   12MOL   C311 4513   4.706   3.644   1.372  0.0697 -0.1550  0.9652
   12MOL   C312 4514   4.671   3.478   1.195  0.1409 -0.7888  0.0744
   12MOL   C313 4515   4.705   3.374   1.111  0.0938 -0.1102  0.3036
   12MOL   C314 4516   4.781   3.176   0.895  0.5556  0.0907 -0.1607
   12MOL   H315 4517   4.979   3.255   0.963 -1.3194  3.7961 -0.4483
   12MOL   H316 4518   5.041   3.402   1.156  0.4538  0.5433 -0.6786
   12MOL   H317 4519   4.968   3.554   1.337 -1.7797  0.3134  1.7163
   12MOL   H318 4520   4.784   3.691   1.432  0.4426 -0.5892  0.8224
   12MOL   H319 4521   4.669   3.714   1.296 -0.1667 -0.4958  0.7639
   12MOL   H320 4522   4.634   3.599   1.440 -0.3961  0.1274  0.6721
   12MOL   H321 4523   4.564   3.490   1.193 -0.0308 -1.8830  1.7259
   12MOL   H322 4524   4.629   3.315   1.061 -0.4058  0.0937  0.8112
   12MOL   H323 4525   4.687   3.151   0.944  1.0720 -1.6244 -0.0223
   12MOL   H324 4526   4.814   3.084   0.848 -4.1956 -1.6422 -0.3751
   12MOL   C325 4527   4.752   3.281   0.786  0.4005  0.0869  0.2096
   12MOL   C326 4528   4.620   3.240   0.706 -0.5640 -0.6397 -0.2977
   12MOL   C327 4529   4.591   3.105   0.667  0.1569  0.5246 -0.0217
   12MOL   C328 4530   4.481   3.082   0.585 -0.5175  0.2365  0.1488
   12MOL   C329 4531   4.394   3.181   0.540 -0.4665 -0.4136 -1.1459
   12MOL   C330 4532   4.272   3.158   0.456  0.6545  0.1345 -0.2333
   12MOL   C331 4533   4.428   3.313   0.573 -0.2622 -0.2695 -0.7559
   12MOL   C332 4534   4.536   3.343   0.659 -0.0688 -0.2300 -0.2279
   12MOL   C333 4535   4.866   3.306   0.685  0.4645  0.3003  0.0339
   12MOL   H334 4536   4.731   3.373   0.839 -0.1221 -0.9615  1.8758
   12MOL   H335 4537   4.656   3.023   0.694 -2.5304 -2.5546 -2.5464
   12MOL   H336 4538   4.449   2.979   0.581  1.3860 -0.3373 -0.9264
   12MOL   H337 4539   4.183   3.202   0.501 -1.5857 -3.1845 -1.2204
   12MOL   H338 4540   4.275   3.196   0.354  1.2552 -2.7012 -1.3123
   12MOL   H339 4541   4.252   3.051   0.451 -0.4632  0.2691  1.0702
   12MOL   H340 4542   4.366   3.398   0.549  1.1906  0.8047 -0.7766
   12MOL   H341 4543   4.561   3.445   0.685  1.1890 -1.0823  2.0814
   12MOL   H342 4544   4.818   3.325   0.589 -0.3976  1.8443  0.7686
   12MOL   H343 4545   4.934   3.221   0.675  0.3654  0.3303 -0.9793
   12MOL   C344 4546   4.959   3.428   0.724  1.2551  0.2167  0.2072
   12MOL   C345 4547   4.890   3.560   0.721  0.8608 -0.0231 -0.7017
   12MOL   C346 4548   4.854   3.630   0.833 -0.1224 -0.8882 -0.6534
   12MOL   C347 4549   4.778   3.751   0.822  0.1658 -0.4328 -0.7321
   12MOL   C348 4550   4.734   3.800   0.695 -0.0491 -0.5192  0.4460
   12MOL   C349 4551   4.646   3.922   0.673 -0.1996 -0.1502 -0.1916
   12MOL   C350 4552   4.765   3.719   0.578 -0.3141  0.1997 -0.8054
   12MOL   C351 4553   4.840   3.602   0.597  0.1848 -0.4932  0.3830
   12MOL   C352 4554   5.090   3.423   0.648  0.2998 -0.2263  0.1892
   12MOL   H353 4555   4.989   3.408   0.827  0.3349 -3.1013 -0.0952
   12MOL   H354 4556   4.881   3.594   0.932 -1.0270 -0.1581 -0.1342
   12MOL   H355 4557   4.747   3.802   0.912  0.2139 -3.0254  0.7835
   12MOL   H356 4558   4.710   4.009   0.662 -3.1933  2.1802  0.2618
   12MOL   H357 4559   4.577   3.902   0.591 -0.1028  0.0903 -0.3281
   12MOL   H358 4560   4.573   3.940   0.752  0.4529  0.5536  0.2572
   12MOL   H359 4561   4.720   3.745   0.483  0.8469  2.3193 -0.8036
   12MOL   H360 4562   4.867   3.542   0.511 -2.1432  0.1231 -0.8125
   12MOL   H361 4563   5.062   3.447   0.546  1.8131  1.3377  0.1081
   12MOL   H362 4564   5.126   3.320   0.648  2.8878  0.6310 -0.4224
   12MOL   C363 4565   5.201   3.522   0.687 -0.4039  0.0497 -0.5414
   12MOL   C364 4566   5.307   3.540   0.583 -0.3237 -0.3538  0.3902
   12MOL   C365 4567   5.328   3.658   0.514 -0.0995  0.7761  0.4066
   12MOL   C366 4568   5.439   3.669   0.422 -0.0071  0.0689  0.3526
   12MOL   C367 4569   5.520   3.558   0.396 -0.7340  0.2853 -0.1554
   12MOL   C368 4570   5.634   3.560   0.300  0.1464 -0.6099 -0.6898
   12MOL   C369 4571   5.493   3.438   0.465  0.0901 -0.6319 -0.0361
   12MOL   C370 4572   5.385   3.428   0.555 -0.8815  0.2561 -0.3697
   12MOL   C371 4573   5.252   3.503   0.830  0.4025  0.6189 -0.2678
   12MOL   H372 4574   5.150   3.618   0.696  1.2714  1.0388 -1.1869
   12MOL   H373 4575   5.270   3.744   0.545 -1.4167 -0.1176  0.4611
   12MOL   H374 4576   5.469   3.769   0.396  2.2172 -0.5072  0.5796
   12MOL   H375 4577   5.710   3.499   0.349 -1.0989  1.1584  3.6862
   12MOL   H376 4578   5.604   3.504   0.211 -3.1973 -1.3553  0.8321
   12MOL   H377 4579   5.675   3.658   0.273  0.9301 -1.1834 -1.6265
   12MOL   H378 4580   5.549   3.348   0.444  0.1414 -0.6753  0.2858
   12MOL   H379 4581   5.381   3.343   0.622  2.2179 -0.1041 -0.5808
   12MOL   H380 4582   5.327   3.579   0.849  1.3764 -0.5334  0.5959
   12MOL   H381 4583   5.299   3.407   0.851 -1.8861 -0.9720 -2.0844
   12MOL   H382 4584   5.176   3.504   0.909  0.4119  1.1649 -0.2590
   13MOL     C1 4585   4.076   4.227   4.650  0.4174 -0.1450  0.3628
   13MOL     C2 4586   4.045   4.087   4.684 -0.0938 -0.1382 -0.1747
   13MOL     C3 4587   4.151   4.002   4.718  0.2481 -0.1724 -0.0348
   13MOL     C4 4588   4.125   3.869   4.751  0.2766 -0.1320  0.0443
   13MOL     C5 4589   3.992   3.823   4.769 -0.3951 -0.0472  0.0851
   13MOL     C6 4590   3.968   3.674   4.794  0.5431 -0.6232  0.6100
   13MOL     C7 4591   3.884   3.909   4.740 -0.0989  0.1745  0.2765
   13MOL     C8 4592   3.913   4.038   4.694  0.3409  0.1547 -0.1102
   13MOL     C9 4593   4.116   4.233   4.496  0.3516  0.1046 -0.3363
   13MOL    H10 4594   3.988   4.288   4.672  0.7548 -0.2168  1.9265
   13MOL    H11 4595   4.249   4.047   4.716  1.1887 -2.1710 -0.1274
   13MOL    H12 4596   4.203   3.802   4.785 -0.5770 -0.9594  0.4007
   13MOL    H13 4597   3.866   3.647   4.766  0.8556 -0.3371 -0.8370
   13MOL    H14 4598   4.045   3.612   4.748 -0.0804 -0.1846 -1.0659
   13MOL    H15 4599   3.962   3.649   4.900  0.0872  2.6146  1.3877
   13MOL    H16 4600   3.778   3.887   4.749 -0.8304  3.4039  0.2368
   13MOL    H17 4601   3.825   4.100   4.687  1.0327  1.0986 -0.6152
   13MOL    H18 4602   4.054   4.166   4.436 -0.7604 -0.4251  1.3615
   13MOL    H19 4603   4.218   4.194   4.493  0.2174 -0.3878  1.1202
   13MOL    H20 4604   4.158   4.262   4.712  0.3740 -2.4820  1.7583
   13MOL    C21 4605   4.125   4.373   4.431 -0.6862  0.8688  0.0515
   13MOL    C22 4606   3.985   4.430   4.398  0.6982 -0.3463 -0.8784
   13MOL    C23 4607   3.968   4.567   4.379 -0.3294  0.0753  0.3044
   13MOL    C24 4608   3.848   4.616   4.340  0.2136  0.0431 -0.1659
   13MOL    C25 4609   3.731   4.535   4.331 -0.3831 -0.2918 -0.3487
   13MOL    C26 4610   3.597   4.599   4.304 -0.5890 -0.1391  0.0886
   13MOL    C27 4611   3.744   4.398   4.363  0.7126 -0.6534 -0.2683
   13MOL    C28 4612   3.868   4.350   4.398 -0.9263  0.7354 -0.0516
   13MOL    C29 4613   4.210   4.362   4.301  0.1910 -0.5862 -0.1125
   13MOL    H30 4614   4.179   4.432   4.505  2.2106 -1.5657 -0.0258
   13MOL    H31 4615   4.050   4.636   4.391 -0.8608  0.5619  1.2291
   13MOL    H32 4616   3.845   4.712   4.290  0.4527 -0.5886 -1.3959
   13MOL    H33 4617   3.564   4.590   4.201 -1.6430  0.0907  0.4018
   13MOL    H34 4618   3.516   4.552   4.359 -0.9725 -2.4917 -2.3977
   13MOL    H35 4619   3.599   4.707   4.321  1.6671 -0.1249 -0.0261
   13MOL    H36 4620   3.654   4.341   4.344 -0.8032  1.4681  0.4042
   13MOL    H37 4621   3.878   4.242   4.403 -0.6365  0.8109  1.1909
   13MOL    H38 4622   4.201   4.457   4.249 -0.8217 -1.1695 -1.0421
   13MOL    H39 4623   4.150   4.289   4.247  0.0728  0.7233 -1.7868
   13MOL    C40 4624   4.356   4.333   4.312 -0.1488  0.9448  0.2256
   13MOL    C41 4625   4.422   4.431   4.415  0.1543  0.3822 -0.1911
   13MOL    C42 4626   4.454   4.567   4.385 -0.4395 -0.2163  0.4264
   13MOL    C43 4627   4.507   4.665   4.478 -0.3899 -0.0463 -0.2961
   13MOL    C44 4628   4.519   4.626   4.612  0.1375 -0.1618  0.7114
   13MOL    C45 4629   4.563   4.717   4.721 -0.3701  0.4336 -0.1621
   13MOL    C46 4630   4.488   4.491   4.644  0.0898 -0.1282  0.5890
   13MOL    C47 4631   4.441   4.392   4.552 -0.1521  1.2425  0.4281
   13MOL    C48 4632   4.436   4.333   4.178 -0.7662 -0.4126 -0.5042
   13MOL    H49 4633   4.365   4.236   4.362  1.9766  0.9901 -0.0272
   13MOL    H50 4634   4.422   4.599   4.287 -1.4463  1.9940  1.4280
   13MOL    H51 4635   4.526   4.769   4.455  2.2137 -0.5439 -0.4403
   13MOL    H52 4636   4.626   4.661   4.790  0.6175 -0.0908 -1.4600
   13MOL    H53 4637   4.629   4.792   4.678  1.6581 -0.7012  0.8708
   13MOL    H54 4638   4.478   4.760   4.773 -1.0632 -0.1787 -0.7725
   13MOL    H55 4639   4.483   4.453   4.745  1.2526  1.5520  1.3023
   13MOL    H56 4640   4.418   4.294   4.591 -1.8755  1.0764 -0.9254
   13MOL    H57 4641   4.535   4.306   4.213 -0.7606  0.2198 -0.0292
   13MOL    H58 4642   4.438   4.436   4.144  3.1035  0.1812  1.3117
   13MOL    C59 4643   4.382   4.242   4.066  0.0814  0.4215 -0.2978
   13MOL    C60 4644   4.391   4.092   4.114  0.4144  0.5203  1.1740
   13MOL    C61 4645   4.507   4.011   4.105  0.1820  0.4432 -0.1171
   13MOL    C62 4646   4.501   3.874   4.130  0.5703 -0.3428  0.2667
   13MOL    C63 4647   4.381   3.816   4.178 -0.0834 -0.1796  0.0073
   13MOL    C64 4648   4.368   3.666   4.208 -0.6428  0.1343  0.5476
   13MOL    C65 4649   4.272   3.899   4.201  0.2738 -0.6772  0.5653
   13MOL    C66 4650   4.278   4.035   4.170  0.2055  0.1881  0.8658
   13MOL    C67 4651   4.443   4.252   3.927  0.1354  0.0478 -0.3833
   13MOL    H68 4652   4.276   4.269   4.058  0.1192 -0.0755 -2.9852
   13MOL    H69 4653   4.599   4.056   4.071 -0.1351  0.9138 -0.3713
   13MOL    H70 4654   4.591   3.817   4.115  1.4348  0.8016  1.0682
   13MOL    H71 4655   4.425   3.612   4.133  1.1114  1.8849  0.5917
   13MOL    H72 4656   4.389   3.630   4.309 -2.0334 -0.7029  0.5537
   13MOL    H73 4657   4.263   3.638   4.196 -0.4544 -0.1584 -0.5007
   13MOL    H74 4658   4.187   3.851   4.248  1.4706 -1.4524  1.9693
   13MOL    H75 4659   4.194   4.102   4.184  0.0285 -0.0559  0.9803
   13MOL    H76 4660   4.424   4.163   3.867 -2.8048 -0.2287  0.8575
   13MOL    H77 4661   4.551   4.263   3.928  0.3749 -1.9466 -1.4967
   13MOL    C78 4662   4.383   4.370   3.852  1.0984  0.3862  0.0143
   13MOL    C79 4663   4.247   4.326   3.794 -0.2801  0.2318  0.1533
   13MOL    C80 4664   4.230   4.215   3.703  0.5182 -0.3259  0.6017
   13MOL    C81 4665   4.104   4.181   3.655  0.4332  0.7273 -1.2152
   13MOL    C82 4666   3.989   4.246   3.705 -0.2783  0.3887  0.1939
   13MOL    C83 4667   3.854   4.205   3.654  0.2242  0.0994 -0.3015
   13MOL    C84 4668   4.002   4.354   3.797  0.3576 -0.0406  0.0325
   13MOL    C85 4669   4.133   4.387   3.844 -0.0959  0.1637  0.3525
   13MOL    C86 4670   4.486   4.435   3.752  0.3494 -0.8285 -0.0291
   13MOL    H87 4671   4.356   4.446   3.925 -2.5654 -1.0615  0.3130
   13MOL    H88 4672   4.315   4.167   3.656  1.1434  0.5449  0.8330
   13MOL    H89 4673   4.085   4.109   3.577 -0.0355 -0.9033  0.3530
   13MOL    H90 4674   3.839   4.102   3.686  2.2893 -0.7644 -2.0239
   13MOL    H91 4675   3.766   4.263   3.682 -0.1265 -0.0144 -1.1527
   13MOL    H92 4676   3.864   4.201   3.545  0.5462  0.7101 -0.2935
   13MOL    H93 4677   3.911   4.402   3.828  0.4476 -0.9378  1.7467
   13MOL    H94 4678   4.147   4.461   3.921  2.0641 -1.2198  1.3461
   13MOL    H95 4679   4.497   4.361   3.673  1.7418  0.4637 -1.0750
   13MOL    H96 4680   4.585   4.432   3.797  0.6466 -0.1023 -0.6256
   13MOL    C97 4681   4.445   4.568   3.697 -0.7904 -0.1755 -0.5222
   13MOL    C98 4682   4.352   4.557   3.570  0.4716  0.4674 -0.3124
   13MOL    C99 4683   4.225   4.603   3.585  0.0433 -0.0602 -0.1095
   13MOL   C100 4684   4.132   4.565   3.481 -0.8587 -0.5727 -0.1456
   13MOL   C101 4685   4.168   4.501   3.359  0.2724  0.7434 -0.8263
   13MOL   C102 4686   4.066   4.472   3.250 -0.5135  0.0448  0.2947
   13MOL   C103 4687   4.308   4.469   3.343  0.6941  0.9370  0.3050
   13MOL   C104 4688   4.393   4.488   3.452  0.4397  0.1512 -0.2635
   13MOL   C105 4689   4.571   4.660   3.672  0.2519 -0.0370 -0.3242
   13MOL   H106 4690   4.389   4.625   3.771 -0.2238  1.2183 -1.1579
   13MOL   H107 4691   4.185   4.648   3.674  1.8697  1.7160 -0.1624
   13MOL   H108 4692   4.031   4.602   3.498 -0.5682 -0.3077  1.0438
   13MOL   H109 4693   4.045   4.365   3.241  1.7853 -0.4035  0.0689
   13MOL   H110 4694   3.976   4.526   3.281 -0.3240  0.7711 -0.3922
   13MOL   H111 4695   4.104   4.508   3.155 -1.7251  0.0340 -0.2091
   13MOL   H112 4696   4.360   4.421   3.261  0.5992  0.3184  0.6025
   13MOL   H113 4697   4.496   4.458   3.440  0.4897 -0.3561  1.2629
   13MOL   H114 4698   4.597   4.646   3.567  0.4351 -0.1972 -0.2585
   13MOL   H115 4699   4.652   4.632   3.740  0.1983  0.7631  0.0696
   13MOL   C116 4700   4.551   4.811   3.694 -0.5476 -0.7530 -0.1121
   13MOL   C117 4701   4.599   4.888   3.572  0.4014 -0.2689 -0.1123
   13MOL   C118 4702   4.498   4.938   3.483 -0.0736  0.0681 -0.2417
   13MOL   C119 4703   4.539   5.019   3.375 -0.3528  0.8273  0.5066
   13MOL   C120 4704   4.675   5.034   3.347  0.7331 -0.6613 -0.5698
   13MOL   C121 4705   4.725   5.118   3.230  0.6065  0.6908 -0.2079
   13MOL   C122 4706   4.770   4.982   3.438 -0.0011 -0.1596  0.2880
   13MOL   C123 4707   4.732   4.915   3.552  0.2098 -0.7059  0.1466
   13MOL   C124 4708   4.619   4.859   3.832 -0.0198 -0.1701 -0.2380
   13MOL   H125 4709   4.443   4.826   3.693 -0.5104 -0.4128  0.8301
   13MOL   H126 4710   4.394   4.919   3.502  0.2754  1.3698  3.3621
   13MOL   H127 4711   4.475   5.063   3.300  1.2467  2.7908  0.2418
   13MOL   H128 4712   4.795   5.061   3.169  1.4500  1.7386 -0.2338
   13MOL   H129 4713   4.637   5.157   3.180 -1.0341  1.9669  3.4956
   13MOL   H130 4714   4.777   5.202   3.276 -1.2991  0.7426  1.9006
   13MOL   H131 4715   4.876   4.987   3.417  0.0530  0.9783  0.7963
   13MOL   H132 4716   4.811   4.873   3.613 -1.3612 -2.7979  0.8137
   13MOL   H133 4717   4.603   4.966   3.825  1.8272  0.0326 -2.1577
   13MOL   H134 4718   4.728   4.852   3.824 -0.2560 -1.7269 -2.7073
   13MOL   C135 4719   4.557   4.799   3.971 -0.5761  0.6834 -0.0830
   13MOL   C136 4720   4.412   4.836   3.975 -0.2156  0.3760 -0.5765
   13MOL   C137 4721   4.376   4.968   3.961 -0.0064  0.1617 -0.3857
   13MOL   C138 4722   4.247   5.012   3.985 -0.3761  0.8828  1.0819
   13MOL   C139 4723   4.151   4.917   4.008  1.2452  0.1208 -0.5316
   13MOL   C140 4724   3.999   4.960   4.028 -0.1756  0.2906 -0.2015
   13MOL   C141 4725   4.186   4.782   4.025  0.6507  0.0618  0.2224
   13MOL   C142 4726   4.322   4.739   4.007 -0.0214  0.1693 -0.9616
   13MOL   C143 4727   4.633   4.831   4.103  0.4782  0.1764  0.3459
   13MOL   H144 4728   4.563   4.690   3.963 -2.4067  0.3996  2.0583
   13MOL   H145 4729   4.453   5.041   3.945 -0.0278  0.6191  1.4614
   13MOL   H146 4730   4.225   5.114   3.958 -1.3786  0.0347 -1.4980
   13MOL   H147 4731   3.975   4.979   4.132  0.0933  0.1618 -0.1160
   13MOL   H148 4732   3.985   5.053   3.973  1.6805  0.1627 -0.9362
   13MOL   H149 4733   3.935   4.882   3.986 -2.0122  1.3271  0.6534
   13MOL   H150 4734   4.109   4.708   4.037 -0.9160  1.5647 -0.4000
   13MOL   H151 4735   4.351   4.635   4.012 -3.2917 -0.7405  0.3151
   13MOL   H152 4736   4.581   4.776   4.182 -1.2121 -1.5777 -1.9003
   13MOL   H153 4737   4.612   4.933   4.135  0.8787 -0.5056  2.8751
   13MOL   C154 4738   4.781   4.785   4.102 -0.0875 -0.4346  0.0801
   13MOL   C155 4739   4.792   4.642   4.108 -0.0325  0.4791  0.3358
   13MOL   C156 4740   4.783   4.564   4.226 -0.0119 -0.2759  0.0542
   13MOL   C157 4741   4.796   4.421   4.216 -0.3922  0.0492  0.7860
   13MOL   C158 4742   4.821   4.357   4.095 -0.1358 -0.9619  0.5854
   13MOL   C159 4743   4.833   4.204   4.087 -0.5899 -0.4871  0.5307
   13MOL   C160 4744   4.845   4.438   3.985  0.4906 -0.3762  0.4697
   13MOL   C161 4745   4.827   4.574   3.987  0.5700 -0.6781 -0.8822
   13MOL   C162 4746   4.890   4.852   4.195 -0.2489 -0.4574 -0.4827
   13MOL   H163 4747   4.814   4.806   4.000  2.1201  0.4312  0.9336
   13MOL   H164 4748   4.773   4.606   4.325  0.5725 -1.4900  0.6463
   13MOL   H165 4749   4.779   4.366   4.307  2.0428 -0.2853  1.0784
   13MOL   H166 4750   4.777   4.153   4.166 -0.8237 -1.4489 -0.2452
   13MOL   H167 4751   4.798   4.159   3.994 -1.3780  1.4727 -0.1367
   13MOL   H168 4752   4.940   4.186   4.092 -0.2363  1.0312 -1.3819
   13MOL   H169 4753   4.847   4.383   3.892 -0.7528  0.4745 -0.0842
   13MOL   H170 4754   4.833   4.626   3.893 -2.9169 -0.7327 -1.2213
   13MOL   H171 4755   4.964   4.776   4.218 -0.1742  0.4683  2.5769
   13MOL   H172 4756   4.841   4.870   4.291  1.6225  0.0883  0.3983
   13MOL   C173 4757   4.954   4.976   4.139 -0.3021  0.4246  0.2426
   13MOL   C174 4758   5.036   4.951   4.010  0.5665  0.4316  0.0897
   13MOL   C175 4759   4.987   5.001   3.883 -0.5875 -0.6035  0.2088
   13MOL   C176 4760   5.045   4.970   3.758 -0.2080 -0.2376  0.1592
   13MOL   C177 4761   5.165   4.894   3.763  0.3426  0.3374 -0.1067
   13MOL   C178 4762   5.243   4.880   3.641 -0.2642  0.8033  0.2998
   13MOL   C179 4763   5.215   4.831   3.884  0.0266  0.2466 -0.4367
   13MOL   C180 4764   5.144   4.858   4.005 -0.0877  0.1555 -0.8719
   13MOL   C181 4765   5.041   5.051   4.244  0.2689  0.6350  0.4194
   13MOL   H182 4766   4.876   5.047   4.112 -2.5442 -1.6490  1.0229
   13MOL   H183 4767   4.905   5.071   3.888  0.9803  1.5969 -2.8625
   13MOL   H184 4768   5.016   5.017   3.666 -1.9640  1.3771  1.5137
   13MOL   H185 4769   5.346   4.851   3.662 -0.9457 -3.2438 -1.6133
   13MOL   H186 4770   5.212   4.786   3.595  0.1134 -0.5085  2.6561
   13MOL   H187 4771   5.228   4.967   3.577 -0.6491  0.0358 -0.6534
   13MOL   H188 4772   5.303   4.769   3.879 -1.6884 -2.3540  0.1191
   13MOL   H189 4773   5.173   4.820   4.102  1.4471  0.6019 -1.1406
   13MOL   H190 4774   5.129   4.989   4.263  0.0900  0.6963  1.4872
   13MOL   H191 4775   4.981   5.049   4.335  0.3494 -2.4691  0.4541
   13MOL   C192 4776   5.096   5.194   4.221 -0.0278 -0.6103  0.2012
   13MOL   C193 4777   5.236   5.219   4.284 -0.7617  0.3092  0.2215
   13MOL   C194 4778   5.248   5.252   4.421  0.0181  0.6372  0.3822
   13MOL   C195 4779   5.373   5.290   4.471 -0.0869 -1.0144  0.4106
   13MOL   C196 4780   5.487   5.290   4.394 -0.0298 -0.4749 -0.6309
   13MOL   C197 4781   5.627   5.326   4.453 -0.3431 -0.1338  0.0166
   13MOL   C198 4782   5.477   5.246   4.261  0.1518  0.0694 -0.3473
   13MOL   C199 4783   5.351   5.221   4.202  1.2208  0.4867 -0.3255
   13MOL   C200 4784   5.003   5.306   4.268 -0.3704 -0.5010 -0.0813
   13MOL   H201 4785   5.093   5.214   4.114 -3.5254  0.6631  0.4676
   13MOL   H202 4786   5.156   5.253   4.477 -1.5010  1.5167 -2.0295
   13MOL   H203 4787   5.381   5.307   4.577  2.0452  0.4428  0.0518
   13MOL   H204 4788   5.689   5.338   4.364  2.1677 -0.8609  1.6352
   13MOL   H205 4789   5.615   5.426   4.493  1.5541  0.0947  0.0267
   13MOL   H206 4790   5.664   5.249   4.520  0.7832  0.7604  0.4242
   13MOL   H207 4791   5.569   5.245   4.203  1.1188 -0.4796  1.1623
   13MOL   H208 4792   5.337   5.199   4.097 -1.0895 -4.0158  0.8127
   13MOL   H209 4793   5.059   5.399   4.262 -1.2470  0.0524  0.1002
   13MOL   H210 4794   4.983   5.285   4.373  1.4406  0.3868  0.4532
   13MOL   C211 4795   4.860   5.320   4.212  0.2160  0.6340  0.4604
   13MOL   C212 4796   4.847   5.320   4.060 -0.6098 -0.2012 -0.6750
   13MOL   C213 4797   4.943   5.390   3.981 -0.1817 -0.7703  0.5298
   13MOL   C214 4798   4.935   5.385   3.841 -0.7142 -0.8031  0.2625
   13MOL   C215 4799   4.829   5.314   3.780 -0.0639  1.4552 -0.4802
   13MOL   C216 4800   4.812   5.316   3.631 -0.8852  0.6687  0.1842
   13MOL   C217 4801   4.727   5.256   3.866  0.3333 -0.6921  0.0447
   13MOL   C218 4802   4.740   5.253   4.005 -0.8209 -0.2067  0.0045
   13MOL   C219 4803   4.792   5.455   4.258 -0.0436  0.1046  0.2287
   13MOL   H220 4804   4.810   5.236   4.260 -0.3716  1.3477  1.1155
   13MOL   H221 4805   5.022   5.447   4.027 -0.0822  1.1884 -1.9954
   13MOL   H222 4806   5.005   5.438   3.778  1.2094 -1.4252  1.8363
   13MOL   H223 4807   4.909   5.289   3.588 -0.1355  0.9827  1.6626
   13MOL   H224 4808   4.737   5.249   3.589  0.5179 -1.7449  1.3974
   13MOL   H225 4809   4.772   5.408   3.589  0.2204  0.7097 -0.7952
   13MOL   H226 4810   4.632   5.224   3.824 -0.2419  0.8705  0.1152
   13MOL   H227 4811   4.662   5.210   4.066 -0.3698 -2.1673 -0.7826
   13MOL   H228 4812   4.742   5.508   4.177  1.7310  2.2419  0.4913
   13MOL   H229 4813   4.857   5.540   4.279 -0.7254  0.9969 -1.2101
   13MOL   C230 4814   4.691   5.451   4.368 -0.6478  1.1946 -0.4769
   13MOL   C231 4815   4.595   5.329   4.363 -0.6401 -0.1980 -0.8239
   13MOL   C232 4816   4.502   5.314   4.260  0.4849  0.6543  0.6296
   13MOL   C233 4817   4.425   5.199   4.238 -0.5237 -0.7475 -0.3072
   13MOL   C234 4818   4.432   5.096   4.335 -0.7753 -0.3561 -0.3109
   13MOL   C235 4819   4.340   4.983   4.324 -0.4917  0.0652  0.5469
   13MOL   C236 4820   4.521   5.110   4.449 -0.2773  0.5292 -0.4702
   13MOL   C237 4821   4.602   5.225   4.457  0.5614  0.3992 -0.7534
   13MOL   C238 4822   4.628   5.594   4.390 -0.5066 -0.5671  0.6019
   13MOL   H239 4823   4.753   5.447   4.457 -0.8791 -0.2345 -0.3693
   13MOL   H240 4824   4.500   5.394   4.188  1.2010  0.6491  0.5957
   13MOL   H241 4825   4.363   5.180   4.151 -1.7396 -2.6533  0.9096
   13MOL   H242 4826   4.303   4.962   4.424 -0.2228 -0.1717  0.5963
   13MOL   H243 4827   4.252   5.012   4.267  0.7909 -0.5985 -1.8198
   13MOL   H244 4828   4.391   4.895   4.286  0.0961 -0.0025  1.4604
   13MOL   H245 4829   4.539   5.024   4.511  1.1943  1.5590  0.5679
   13MOL   H246 4830   4.670   5.225   4.541 -1.7468 -1.4581  1.1736
   13MOL   H247 4831   4.575   5.612   4.297 -0.7442 -0.4700  0.7570
   13MOL   H248 4832   4.696   5.679   4.393 -0.1861 -0.7311 -1.3999
   13MOL   C249 4833   4.526   5.618   4.507 -0.3268  0.6554  0.8791
   13MOL   C250 4834   4.397   5.532   4.492 -0.1511 -0.1443 -0.8370
   13MOL   C251 4835   4.369   5.440   4.595 -1.0146 -0.6254  0.1501
   13MOL   C252 4836   4.250   5.364   4.587  0.6486 -0.5261  0.2841
   13MOL   C253 4837   4.157   5.392   4.483  0.0627 -0.4497  0.1688
   13MOL   C254 4838   4.024   5.320   4.473 -0.1811  0.4608  0.5494
   13MOL   C255 4839   4.187   5.487   4.384  0.1017  1.1752  0.3146
   13MOL   C256 4840   4.302   5.562   4.389  0.2214  0.2435  0.4189
   13MOL   C257 4841   4.504   5.772   4.512  0.2950 -0.0976 -0.1763
   13MOL   H258 4842   4.570   5.581   4.599  0.1489 -1.0608 -0.0068
   13MOL   H259 4843   4.434   5.427   4.680 -0.1701  2.7540  0.0834
   13MOL   H260 4844   4.225   5.296   4.667  0.1443 -0.5797  0.0885
   13MOL   H261 4845   3.944   5.384   4.437 -1.6874 -2.3004 -1.1303
   13MOL   H262 4846   4.036   5.238   4.402 -2.1322  0.0456  0.6633
   13MOL   H263 4847   3.986   5.280   4.567 -0.6213 -0.0285  0.1676
   13MOL   H264 4848   4.118   5.497   4.301  0.4249  0.3819 -0.0564
   13MOL   H265 4849   4.322   5.631   4.308 -0.4128  1.6382  1.4346
   13MOL   H266 4850   4.397   5.787   4.526  0.7599  1.9746  1.2718
   13MOL   H267 4851   4.519   5.826   4.418  0.4060 -1.3116 -0.8731
   13MOL   C268 4852   4.561   5.859   4.628  0.2474 -0.3082  0.2888
   13MOL   C269 4853   4.541   5.797   4.762  0.2856 -0.5421  0.1748
   13MOL   C270 4854   4.631   5.833   4.864 -0.3263  0.7100  0.7753
   13MOL   C271 4855   4.608   5.789   4.998  0.6253 -0.1307 -0.6422
   13MOL   C272 4856   4.485   5.735   5.033 -0.2691 -0.6717  0.1753
   13MOL   C273 4857   4.454   5.695   5.176 -0.1781 -0.3270 -0.0207
   13MOL   C274 4858   4.388   5.710   4.937 -0.3474 -0.4496 -0.2534
   13MOL   C275 4859   4.417   5.738   4.804 -0.3338  0.2328 -0.5706
   13MOL   C276 4860   4.535   6.013   4.618  0.6489 -0.5440  0.0772
   13MOL   H277 4861   4.669   5.854   4.617  0.3871  1.2303  0.8228
   13MOL   H278 4862   4.726   5.879   4.841  0.4441 -1.0313  0.4381
   13MOL   H279 4863   4.692   5.792   5.067  0.4868  2.9291 -0.5400
   13MOL   H280 4864   4.465   5.588   5.193 -2.7978 -0.2737  2.3457
   13MOL   H281 4865   4.541   5.729   5.232 -1.2489  1.1411  0.8027
   13MOL   H282 4866   4.353   5.712   5.215 -0.6992 -2.0653 -0.5683
   13MOL   H283 4867   4.288   5.683   4.965  0.4911 -1.0264  2.3279
   13MOL   H284 4868   4.339   5.722   4.731 -0.4510 -1.0976 -0.1780
   13MOL   H285 4869   4.561   6.043   4.517  2.1600  0.1921  0.6618
   13MOL   H286 4870   4.604   6.072   4.679 -0.5458 -0.7850  1.6921
   13MOL   C287 4871   4.382   6.060   4.635  0.2001 -0.1009 -0.4053
   13MOL   C288 4872   4.285   6.012   4.530 -0.3926  0.1887  1.0525
   13MOL   C289 4873   4.307   6.046   4.394  0.0829  0.6178 -0.0369
   13MOL   C290 4874   4.234   5.977   4.293  0.0687 -0.2887 -0.0745
   13MOL   C291 4875   4.136   5.882   4.326  0.3967  0.0200  0.0594
   13MOL   C292 4876   4.066   5.809   4.219  0.1608 -0.0300  0.0654
   13MOL   C293 4877   4.106   5.861   4.463 -0.4166  0.3015  0.3363
   13MOL   C294 4878   4.181   5.927   4.564  0.4431  0.0127 -1.0205
   13MOL   C295 4879   4.374   6.210   4.655  0.5568 -0.6267 -0.9199
   13MOL   H296 4880   4.353   6.016   4.730 -1.2016 -0.2592 -0.9016
   13MOL   H297 4881   4.383   6.117   4.367 -0.8897  1.7486  0.1697
   13MOL   H298 4882   4.242   5.992   4.186 -0.9727 -2.1431 -0.4259
   13MOL   H299 4883   4.053   5.862   4.125 -2.4531 -1.4267 -0.3986
   13MOL   H300 4884   4.125   5.720   4.196 -1.0809 -0.6479 -0.7845
   13MOL   H301 4885   3.970   5.767   4.249  1.1328 -2.0596  0.4139
   13MOL   H302 4886   4.029   5.798   4.504  2.0411 -1.1779  2.9056
   13MOL   H303 4887   4.170   5.909   4.670  2.4565  1.4148 -0.5514
   13MOL   H304 4888   4.269   6.236   4.639  0.9410  3.2112  2.0819
   13MOL   H305 4889   4.417   6.267   4.573 -1.1256 -0.2561 -1.5629
   13MOL   C306 4890   4.425   6.249   4.793 -0.0242  0.0801 -0.1969
   13MOL   C307 4891   4.301   6.312   4.874 -0.1280  0.1470 -0.4628
   13MOL   C308 4892   4.273   6.254   5.001  0.5140 -1.0657  0.3242
   13MOL   C309 4893   4.172   6.318   5.078  0.4321 -0.3948 -0.0502
   13MOL   C310 4894   4.108   6.440   5.037  0.4289  0.2303  0.3448
   13MOL   C311 4895   4.004   6.507   5.125  0.1913 -0.5261  0.3861
   13MOL   C312 4896   4.139   6.496   4.911  0.2205  0.4226  0.1896
   13MOL   C313 4897   4.234   6.428   4.833 -0.6030 -0.2215 -0.1210
   13MOL   C314 4898   4.543   6.347   4.779 -0.0767 -0.0749 -0.0545
   13MOL   H315 4899   4.457   6.168   4.859  1.2122  1.8224  1.3724
   13MOL   H316 4900   4.319   6.161   5.029  0.2807 -1.3408 -0.2040
   13MOL   H317 4901   4.130   6.280   5.170 -0.2151  0.3307 -0.0405
   13MOL   H318 4902   4.040   6.604   5.159  0.7986 -0.5552 -0.1800
   13MOL   H319 4903   3.910   6.524   5.072  1.5649  3.7957 -0.8466
   13MOL   H320 4904   3.976   6.448   5.213 -0.4364 -0.6135  0.1333
   13MOL   H321 4905   4.089   6.585   4.875 -2.2120 -0.5995  0.9149
   13MOL   H322 4906   4.254   6.465   4.734  1.1722 -1.2638 -0.1883
   13MOL   H323 4907   4.508   6.437   4.728 -0.1496  0.0808  0.2721
   13MOL   H324 4908   4.631   6.312   4.724  1.2273  0.9385  1.3189
   13MOL   C325 4909   4.593   6.389   4.923 -0.3104 -0.0704  0.7323
   13MOL   C326 4910   4.628   6.538   4.923  0.3957 -0.3441 -0.5815
   13MOL   C327 4911   4.760   6.587   4.905  0.2673 -0.5254  0.4654
   13MOL   C328 4912   4.797   6.719   4.910 -0.4126 -0.9803  0.0938
   13MOL   C329 4913   4.691   6.811   4.932 -0.1193  0.1627  0.0330
   13MOL   C330 4914   4.721   6.962   4.923  0.2676  0.7852  0.2274
   13MOL   C331 4915   4.557   6.769   4.950 -0.2836 -0.5775 -0.4858
   13MOL   C332 4916   4.526   6.635   4.939  0.4504  0.2685  0.1329
   13MOL   C333 4917   4.702   6.292   4.978  0.4616  0.2196 -0.0447
   13MOL   H334 4918   4.508   6.383   4.991 -1.5248 -3.7560 -0.9532
   13MOL   H335 4919   4.852   6.535   4.881  1.8250  2.4720 -0.3200
   13MOL   H336 4920   4.901   6.748   4.911 -0.7490  0.3075  2.3855
   13MOL   H337 4921   4.829   6.977   4.925 -0.0344  3.0705  0.5592
   13MOL   H338 4922   4.683   7.008   4.832 -1.8215  0.2683  0.8300
   13MOL   H339 4923   4.678   7.009   5.011  2.5210  0.5670  1.4900
   13MOL   H340 4924   4.473   6.834   4.972 -0.9299 -1.4997 -0.2046
   13MOL   H341 4925   4.422   6.609   4.946  0.3371  0.8382  0.6212
   13MOL   H342 4926   4.798   6.323   4.936  0.6806 -1.6528 -0.9646
   13MOL   H343 4927   4.688   6.190   4.944 -0.0949  0.1968  0.2417
   13MOL   C344 4928   4.720   6.286   5.127  0.1624  0.1388 -1.1601
   13MOL   C345 4929   4.864   6.293   5.168 -0.3708 -0.0660 -0.0795
   13MOL   C346 4930   4.954   6.188   5.163 -0.3183  0.3489 -0.2534
   13MOL   C347 4931   5.086   6.199   5.204 -0.3031  0.0605 -0.4000
   13MOL   C348 4932   5.130   6.319   5.268  0.1231  0.8860 -0.3479
   13MOL   C349 4933   5.270   6.329   5.325 -0.7713  0.2286  0.7276
   13MOL   C350 4934   5.042   6.427   5.271  0.4896 -0.7372 -0.5837
   13MOL   C351 4935   4.910   6.415   5.222  0.0270  0.1113 -0.0989
   13MOL   C352 4936   4.653   6.166   5.200 -0.3396 -0.2115 -1.0025
   13MOL   H353 4937   4.672   6.372   5.173  0.3914 -0.1469 -0.3839
   13MOL   H354 4938   4.915   6.093   5.131 -0.7124  0.6693 -0.7356
   13MOL   H355 4939   5.142   6.107   5.194  1.2725  1.0190 -0.4702
   13MOL   H356 4940   5.317   6.231   5.331 -0.3891  0.5496  3.1588
   13MOL   H357 4941   5.338   6.383   5.259 -0.3520 -2.8341 -1.4722
   13MOL   H358 4942   5.266   6.373   5.424  1.1736  0.0184  0.9235
   13MOL   H359 4943   5.075   6.522   5.310 -1.5924 -0.1275 -0.2554
   13MOL   H360 4944   4.837   6.493   5.239  0.9227  0.4681  2.3155
   13MOL   H361 4945   4.709   6.078   5.168  0.5667 -0.7918  1.9809
   13MOL   H362 4946   4.551   6.153   5.164 -0.8954  1.6695 -0.1721
   13MOL   C363 4947   4.649   6.169   5.356 -0.0906 -0.0553 -0.4775
   13MOL   C364 4948   4.625   6.041   5.418  0.1203 -0.1682 -0.4120
   13MOL   C365 4949   4.495   5.988   5.411 -0.9752  0.0975  0.3980
   13MOL   C366 4950   4.464   5.860   5.455  0.0143  0.9603 -0.1856
   13MOL   C367 4951   4.564   5.782   5.519  0.3369  0.1061  0.3920
   13MOL   C368 4952   4.530   5.640   5.559  0.1319  0.1155  0.1515
   13MOL   C369 4953   4.694   5.838   5.544  0.1489  0.1409  0.8762
   13MOL   C370 4954   4.723   5.966   5.488 -0.3203 -0.2368  0.2817
   13MOL   C371 4955   4.556   6.275   5.399  0.3390 -0.7998 -0.6804
   13MOL   H372 4956   4.748   6.193   5.395  0.0911  3.2219 -2.7317
   13MOL   H373 4957   4.417   6.045   5.364 -0.0690  0.8412 -0.2130
   13MOL   H374 4958   4.361   5.826   5.447 -0.2541  1.4648  1.0903
   13MOL   H375 4959   4.574   5.606   5.652  0.7098  1.1072  0.2484
   13MOL   H376 4960   4.423   5.626   5.576  0.0259  1.3820  0.6288
   13MOL   H377 4961   4.570   5.563   5.493 -1.0983 -0.0969 -0.3545
   13MOL   H378 4962   4.764   5.770   5.590  1.4476 -0.6624 -2.1524
   13MOL   H379 4963   4.818   6.009   5.517 -0.2931 -0.3602  0.3733
   13MOL   H380 4964   4.455   6.275   5.358 -0.0515  1.0029  0.2172
   13MOL   H381 4965   4.595   6.374   5.374  0.0209 -0.7450 -0.9545
   13MOL   H382 4966   4.542   6.274   5.507  0.1681  1.5600 -0.6513
   14MOL     C1 4967   3.897   2.999   3.053 -0.0597 -0.1628  0.4142
   14MOL     C2 4968   4.020   3.035   2.970 -0.6040 -0.4130 -0.7913
   14MOL     C3 4969   4.002   3.105   2.852 -0.1865 -0.6372 -0.6391
   14MOL     C4 4970   4.113   3.141   2.775 -0.0916 -0.4227 -0.5486
   14MOL     C5 4971   4.243   3.106   2.813  0.2768  0.1115  0.0761
   14MOL     C6 4972   4.356   3.133   2.719 -0.1661  0.0378  1.0106
   14MOL     C7 4973   4.261   3.034   2.934 -0.2891  0.0650 -0.6691
   14MOL     C8 4974   4.150   2.998   3.014 -0.1871  0.3199 -0.2348
   14MOL     C9 4975   3.870   3.105   3.157  0.0925 -0.2183 -0.5955
   14MOL    H10 4976   3.814   2.973   2.988  0.3297 -2.0358  0.6448
   14MOL    H11 4977   3.903   3.121   2.810 -0.3179  1.6477  0.5062
   14MOL    H12 4978   4.087   3.195   2.686 -0.5501  0.9122  0.3700
   14MOL    H13 4979   4.373   3.041   2.662 -3.3741  2.0182 -3.4372
   14MOL    H14 4980   4.323   3.217   2.659 -1.2954  0.1371  1.7504
   14MOL    H15 4981   4.443   3.154   2.781 -0.7237 -3.1619  2.9809
   14MOL    H16 4982   4.356   3.006   2.978 -0.7226  0.0913  0.2902
   14MOL    H17 4983   4.171   2.941   3.103 -0.7805 -1.1634 -1.0411
   14MOL    H18 4984   3.827   3.185   3.095  1.9857  1.1068 -0.2404
   14MOL    H19 4985   3.962   3.145   3.198 -1.6714  1.0980  2.2716
   14MOL    H20 4986   3.911   2.898   3.090 -2.9108  0.7444  4.1871
   14MOL    C21 4987   3.781   3.069   3.276  0.6898 -0.3171  0.9099
   14MOL    C22 4988   3.692   3.184   3.304 -0.7131  0.0043 -0.4622
   14MOL    C23 4989   3.742   3.311   3.306  0.1894 -0.2010 -0.0889
   14MOL    C24 4990   3.650   3.423   3.329 -0.5451  0.0720 -0.5903
   14MOL    C25 4991   3.515   3.392   3.346  0.6621 -0.6665 -0.5899
   14MOL    C26 4992   3.414   3.507   3.359  0.1303  0.0059  0.0754
   14MOL    C27 4993   3.466   3.261   3.365  0.4332 -0.6069  0.0117
   14MOL    C28 4994   3.555   3.157   3.335 -0.4257 -0.3277  0.1693
   14MOL    C29 4995   3.853   3.012   3.404  0.0398  0.3870  0.9425
   14MOL    H30 4996   3.713   2.992   3.240  1.8637 -0.8675 -0.1819
   14MOL    H31 4997   3.845   3.332   3.284  0.3645  0.4503  1.2591
   14MOL    H32 4998   3.681   3.526   3.317 -3.1899  0.7273 -2.2911
   14MOL    H33 4999   3.329   3.480   3.422 -0.0103 -1.0152 -0.5471
   14MOL    H34 5000   3.460   3.598   3.399 -0.5145  0.2920  0.1632
   14MOL    H35 5001   3.368   3.527   3.262 -0.4405  0.7410  0.4963
   14MOL    H36 5002   3.362   3.253   3.394  0.3321  0.9731  0.1675
   14MOL    H37 5003   3.517   3.057   3.350  0.6330 -0.3033  3.3917
   14MOL    H38 5004   3.779   2.999   3.483  1.3721  0.5017  2.2184
   14MOL    H39 5005   3.928   3.083   3.439 -0.5964 -0.1767  3.5987
   14MOL    C40 5006   3.929   2.877   3.390 -0.0314  0.1657  0.2002
   14MOL    C41 5007   3.844   2.760   3.335 -0.5563  0.5186  0.1739
   14MOL    C42 5008   3.712   2.731   3.381 -0.0121 -0.2108  0.6088
   14MOL    C43 5009   3.643   2.617   3.344 -0.7440  0.1550 -0.4660
   14MOL    C44 5010   3.701   2.533   3.250  0.2097  0.1631  0.0541
   14MOL    C45 5011   3.641   2.398   3.222 -1.0672  0.1373 -0.1718
   14MOL    C46 5012   3.826   2.566   3.194 -0.0507  0.3631  0.4197
   14MOL    C47 5013   3.903   2.676   3.239 -0.4005  0.6160 -0.2914
   14MOL    C48 5014   4.004   2.838   3.513 -0.6553  0.6657 -0.2897
   14MOL    H49 5015   4.000   2.902   3.312  0.1782 -2.1524 -0.3701
   14MOL    H50 5016   3.657   2.789   3.454 -0.2375  2.0807 -1.3435
   14MOL    H51 5017   3.543   2.585   3.370 -0.1281 -0.1770  1.5401
   14MOL    H52 5018   3.540   2.405   3.183 -1.3229 -0.2730  0.4110
   14MOL    H53 5019   3.707   2.351   3.149  1.0180 -0.3430  1.9591
   14MOL    H54 5020   3.640   2.329   3.306 -1.2834 -0.5329 -0.7201
   14MOL    H55 5021   3.873   2.498   3.126 -2.4320 -0.1820 -0.7101
   14MOL    H56 5022   4.002   2.691   3.200 -0.4682 -1.0045 -1.1303
   14MOL    H57 5023   3.930   2.789   3.577 -0.0178  0.8092  0.5491
   14MOL    H58 5024   4.021   2.933   3.564  0.9848  0.0076  0.4091
   14MOL    C59 5025   4.142   2.770   3.507 -0.3203 -0.7463 -0.3582
   14MOL    C60 5026   4.128   2.623   3.458 -0.0998 -0.1685 -0.6747
   14MOL    C61 5027   4.213   2.572   3.355  0.9808  0.4985 -0.1318
   14MOL    C62 5028   4.202   2.439   3.306  0.8391  0.0937 -0.2531
   14MOL    C63 5029   4.103   2.356   3.367  0.2957 -0.0106  0.1261
   14MOL    C64 5030   4.089   2.211   3.316  0.0023 -0.0098 -0.5353
   14MOL    C65 5031   4.019   2.408   3.470  0.0688 -0.8987 -0.1958
   14MOL    C66 5032   4.031   2.543   3.521  0.4788 -0.7691  0.4279
   14MOL    C67 5033   4.222   2.774   3.638  0.8288  0.6705 -0.0067
   14MOL    H68 5034   4.191   2.823   3.426  0.0672 -0.0083  0.3515
   14MOL    H69 5035   4.290   2.638   3.320  0.6588  0.8222 -0.2366
   14MOL    H70 5036   4.281   2.398   3.245  0.9012 -0.6770  0.3365
   14MOL    H71 5037   4.120   2.137   3.390 -0.4931 -2.4589 -2.6958
   14MOL    H72 5038   3.988   2.195   3.280 -0.2602 -0.5857  0.4446
   14MOL    H73 5039   4.159   2.202   3.233  0.0625  2.6344 -0.8310
   14MOL    H74 5040   3.946   2.339   3.511 -2.8844  2.7099  0.9429
   14MOL    H75 5041   3.977   2.572   3.610  2.2458  1.3339  0.8562
   14MOL    H76 5042   4.309   2.711   3.623  0.0578 -0.0449 -1.5183
   14MOL    H77 5043   4.166   2.726   3.718  1.2150  0.8414  0.3669
   14MOL    C78 5044   4.279   2.910   3.680 -0.2574  0.0454 -0.4700
   14MOL    C79 5045   4.383   2.957   3.585 -0.0291 -0.2182 -0.2254
   14MOL    C80 5046   4.340   3.050   3.492 -0.1755  0.6163 -1.4047
   14MOL    C81 5047   4.433   3.101   3.392  0.5545  0.2991  0.4555
   14MOL    C82 5048   4.571   3.067   3.397 -0.7340  0.0145 -1.1048
   14MOL    C83 5049   4.665   3.110   3.293 -0.2067 -0.2880  0.0168
   14MOL    C84 5050   4.619   2.977   3.496 -0.2436  0.2049 -0.5083
   14MOL    C85 5051   4.522   2.924   3.585 -0.5435  1.2719  0.3733
   14MOL    C86 5052   4.334   2.923   3.829  0.1196  0.5440 -1.1281
   14MOL    H87 5053   4.191   2.973   3.670 -0.3191  0.0086 -0.1374
   14MOL    H88 5054   4.237   3.084   3.499  0.0285  0.9097  0.4416
   14MOL    H89 5055   4.385   3.169   3.324  1.6394 -0.8040 -1.4511
   14MOL    H90 5056   4.717   3.191   3.344 -0.1842 -1.2488  1.5418
   14MOL    H91 5057   4.732   3.032   3.255 -0.2638  0.4649 -1.6702
   14MOL    H92 5058   4.627   3.154   3.201  0.9664  3.2800  1.1735
   14MOL    H93 5059   4.720   2.939   3.495  0.5775  2.2214  1.8846
   14MOL    H94 5060   4.560   2.856   3.659 -2.1140 -0.7851 -0.6422
   14MOL    H95 5061   4.430   2.973   3.830  0.7484 -0.6413 -2.1199
   14MOL    H96 5062   4.347   2.824   3.873 -0.1003  1.1062  0.2353
   14MOL    C97 5063   4.239   2.998   3.924  0.1494  0.6975  0.4598
   14MOL    C98 5064   4.097   2.947   3.922  0.4638  0.3926 -0.8061
   14MOL    C99 5065   3.989   3.028   3.883  0.1389  0.1834 -0.1276
   14MOL   C100 5066   3.861   2.971   3.863 -0.5283 -0.0296  0.3041
   14MOL   C101 5067   3.832   2.840   3.901 -0.3572 -0.4030 -0.4500
   14MOL   C102 5068   3.687   2.789   3.889 -0.3672 -0.5610 -0.4334
   14MOL   C103 5069   3.944   2.758   3.930  0.3505  0.3228 -0.1365
   14MOL   C104 5070   4.074   2.811   3.946 -0.1816 -0.4498  0.9832
   14MOL   C105 5071   4.260   3.149   3.896 -0.2015  0.3000  0.5377
   14MOL   H106 5072   4.279   2.970   4.021 -0.5888  0.9550  0.8432
   14MOL   H107 5073   4.008   3.130   3.853  0.1399  0.0317 -0.6409
   14MOL   H108 5074   3.774   3.023   3.824 -0.2463 -0.6779 -1.1970
   14MOL   H109 5075   3.670   2.684   3.916  1.8204 -0.6505  0.7322
   14MOL   H110 5076   3.625   2.857   3.948 -1.0104 -1.8674  0.4448
   14MOL   H111 5077   3.639   2.799   3.792  1.4005  0.3948 -1.2170
   14MOL   H112 5078   3.939   2.651   3.936 -0.7256  0.4359  1.3296
   14MOL   H113 5079   4.151   2.738   3.965  1.1189  0.1201 -1.7594
   14MOL   H114 5080   4.220   3.188   3.803 -1.1492  1.4403  1.3994
   14MOL   H115 5081   4.365   3.173   3.881  0.3480 -3.4783 -2.3276
   14MOL   C116 5082   4.227   3.241   4.009  0.3646 -0.0206 -1.3211
   14MOL   C117 5083   4.197   3.385   3.970  0.6313 -0.4765  0.0422
   14MOL   C118 5084   4.072   3.446   4.006  0.8260 -0.4432  0.0991
   14MOL   C119 5085   4.026   3.569   3.961  0.0825  0.1300  0.1997
   14MOL   C120 5086   4.109   3.646   3.879 -0.0960  0.0532 -0.1595
   14MOL   C121 5087   4.072   3.784   3.831  0.1495  0.2343  0.4667
   14MOL   C122 5088   4.241   3.590   3.842 -0.6556  0.4814  0.2663
   14MOL   C123 5089   4.275   3.458   3.883 -0.4423 -0.1016  0.0619
   14MOL   C124 5090   4.320   3.232   4.139 -0.0385 -0.4263 -0.0925
   14MOL   H125 5091   4.126   3.211   4.040  0.4320 -0.5450 -1.6053
   14MOL   H126 5092   3.996   3.396   4.063 -1.4297  1.4071 -1.2020
   14MOL   H127 5093   3.928   3.601   3.993 -1.0093 -1.6178 -1.2932
   14MOL   H128 5094   4.016   3.784   3.738  1.1620  1.8186 -0.1513
   14MOL   H129 5095   4.017   3.844   3.905 -0.9669  0.4694 -0.5393
   14MOL   H130 5096   4.167   3.833   3.812  0.8828 -1.2029  0.3761
   14MOL   H131 5097   4.310   3.647   3.781  0.5114 -2.0640 -0.8693
   14MOL   H132 5098   4.371   3.418   3.854 -0.0322 -0.0873  1.3877
   14MOL   H133 5099   4.365   3.329   4.160  0.6867 -0.5318 -1.1605
   14MOL   H134 5100   4.406   3.176   4.102 -0.8518 -0.7949 -1.4466
   14MOL   C135 5101   4.242   3.167   4.261  0.5994  0.8983 -0.0055
   14MOL   C136 5102   4.127   3.254   4.321 -0.6028 -0.7345  0.3549
   14MOL   C137 5103   3.994   3.210   4.299  0.5228 -0.5774  0.4915
   14MOL   C138 5104   3.883   3.291   4.340  0.3722 -0.5692 -0.4103
   14MOL   C139 5105   3.906   3.416   4.407  0.1501  0.5927  0.5178
   14MOL   C140 5106   3.794   3.507   4.448 -0.2624 -0.4303 -0.1503
   14MOL   C141 5107   4.039   3.458   4.430 -0.3584  0.5111  0.3837
   14MOL   C142 5108   4.147   3.378   4.386 -0.4236  0.9112  0.5786
   14MOL   C143 5109   4.336   3.140   4.382 -0.4526  0.3121 -0.5106
   14MOL   H144 5110   4.212   3.065   4.233  2.5624 -0.2328  1.9169
   14MOL   H145 5111   3.983   3.121   4.239 -3.5903  1.1880 -1.6308
   14MOL   H146 5112   3.785   3.255   4.312  0.5486 -1.8168  0.5187
   14MOL   H147 5113   3.695   3.474   4.416 -0.2816 -0.4031 -0.1181
   14MOL   H148 5114   3.798   3.500   4.557 -1.5612 -0.2666 -0.0827
   14MOL   H149 5115   3.804   3.613   4.429  1.3615 -0.6220 -0.4503
   14MOL   H150 5116   4.056   3.550   4.483 -1.2862  0.8734  0.0749
   14MOL   H151 5117   4.248   3.403   4.416  0.4959 -1.9263  0.0377
   14MOL   H152 5118   4.272   3.115   4.467  0.5433 -0.2194  0.0923
   14MOL   H153 5119   4.395   3.228   4.407  0.6645 -0.2532 -1.1333
   14MOL   C154 5120   4.442   3.031   4.365  0.0128  0.0570  0.8953
   14MOL   C155 5121   4.383   2.899   4.319  0.2715  0.7161 -0.0425
   14MOL   C156 5122   4.440   2.829   4.214  0.9830  0.1689 -0.4433
   14MOL   C157 5123   4.398   2.700   4.169 -0.4979 -0.3977  0.0659
   14MOL   C158 5124   4.291   2.638   4.228 -0.4239  0.0734 -0.0350
   14MOL   C159 5125   4.246   2.498   4.180 -0.0238  0.3987 -0.1251
   14MOL   C160 5126   4.241   2.704   4.348 -0.6384 -0.2539 -0.0254
   14MOL   C161 5127   4.286   2.827   4.391  0.0832 -0.1934  0.3841
   14MOL   C162 5128   4.527   3.002   4.490 -0.4255 -0.4177 -0.1149
   14MOL   H163 5129   4.505   3.072   4.287 -3.2537 -0.9822 -2.3914
   14MOL   H164 5130   4.529   2.864   4.164  1.8618 -2.0762 -0.4791
   14MOL   H165 5131   4.453   2.655   4.087  0.1120  1.0006 -0.3090
   14MOL   H166 5132   4.155   2.492   4.122 -0.1918 -1.3049  0.2892
   14MOL   H167 5133   4.318   2.438   4.125 -0.6222 -0.5595  0.1398
   14MOL   H168 5134   4.220   2.452   4.275 -1.4381  3.9969  1.3324
   14MOL   H169 5135   4.167   2.644   4.399 -0.0911 -0.3427  0.6739
   14MOL   H170 5136   4.238   2.868   4.479  0.7864 -0.7196  1.0208
   14MOL   H171 5137   4.612   2.941   4.457 -1.0293 -1.9123  1.0462
   14MOL   H172 5138   4.465   2.955   4.566 -1.7916 -0.5354 -1.2884
   14MOL   C173 5139   4.595   3.117   4.562  0.0358 -0.4136 -0.1852
   14MOL   C174 5140   4.648   3.231   4.474  1.2341 -0.0605  0.3188
   14MOL   C175 5141   4.630   3.358   4.528 -0.1652 -0.5272 -0.5273
   14MOL   C176 5142   4.665   3.473   4.455  0.4297 -0.2248 -0.3325
   14MOL   C177 5143   4.725   3.458   4.327  0.4741 -0.1393  0.1955
   14MOL   C178 5144   4.755   3.584   4.243  0.2739 -0.2789 -0.7501
   14MOL   C179 5145   4.747   3.327   4.272 -0.7516  0.5495 -0.4221
   14MOL   C180 5146   4.714   3.215   4.352  0.4899 -0.9877  0.6984
   14MOL   C181 5147   4.714   3.081   4.659 -0.5114 -0.8010 -0.7086
   14MOL   H182 5148   4.520   3.164   4.626  0.1720 -0.3914 -0.0439
   14MOL   H183 5149   4.588   3.375   4.626 -0.4018  2.0028 -1.0462
   14MOL   H184 5150   4.643   3.567   4.502  0.0873 -0.7240  0.5214
   14MOL   H185 5151   4.665   3.645   4.246  0.5555  0.1285 -0.5464
   14MOL   H186 5152   4.847   3.632   4.275 -0.0270 -0.6860  0.7547
   14MOL   H187 5153   4.765   3.547   4.141 -2.4690  0.0888 -1.2100
   14MOL   H188 5154   4.785   3.315   4.172 -0.9743 -0.3551 -0.4039
   14MOL   H189 5155   4.745   3.123   4.307  1.4328  0.5134 -1.8385
   14MOL   H190 5156   4.754   3.160   4.723  0.4252 -1.7221 -0.1483
   14MOL   H191 5157   4.800   3.066   4.593  1.2543 -0.6717  1.5080
   14MOL   C192 5158   4.692   2.966   4.756  1.1304 -0.1623 -0.3301
   14MOL   C193 5159   4.610   3.004   4.883 -0.0418  1.3145  0.0355
   14MOL   C194 5160   4.684   3.060   4.990  0.8079 -0.5333 -0.1403
   14MOL   C195 5161   4.623   3.072   5.111  0.3640  0.2964 -0.1857
   14MOL   C196 5162   4.495   3.024   5.138 -0.6070 -0.4704 -0.8697
   14MOL   C197 5163   4.439   3.040   5.286  0.3696 -0.2061 -0.5318
   14MOL   C198 5164   4.421   2.965   5.030  0.3101  0.5421 -0.5079
   14MOL   C199 5165   4.479   2.945   4.907 -0.1415 -0.5861 -0.0684
   14MOL   C200 5166   4.828   2.898   4.789 -0.5033 -0.1717 -0.1627
   14MOL   H201 5167   4.625   2.895   4.706  0.9626  0.5942 -1.2078
   14MOL   H202 5168   4.784   3.101   4.985  1.2407 -1.6568 -0.7307
   14MOL   H203 5169   4.688   3.117   5.185  1.1143  2.0026 -1.8435
   14MOL   H204 5170   4.387   3.135   5.270 -0.7045 -0.5131  1.0275
   14MOL   H205 5171   4.369   2.959   5.307 -1.3414  0.9664 -1.5084
   14MOL   H206 5172   4.520   3.054   5.357 -0.5433  0.9843  0.3036
   14MOL   H207 5173   4.325   2.922   5.055  0.8673 -1.0211 -1.0412
   14MOL   H208 5174   4.434   2.892   4.825 -0.6341  1.4082 -1.1262
   14MOL   H209 5175   4.827   2.862   4.892  2.1735 -4.1724 -1.4269
   14MOL   H210 5176   4.912   2.967   4.802  0.1192 -1.3159  1.9759
   14MOL   C211 5177   4.864   2.785   4.688 -0.0310  0.6116  0.2131
   14MOL   C212 5178   4.754   2.680   4.677 -0.5996 -0.2087 -0.2107
   14MOL   C213 5179   4.698   2.654   4.552 -0.0588  0.6306 -0.0403
   14MOL   C214 5180   4.585   2.568   4.531  0.0026 -0.3153  0.1118
   14MOL   C215 5181   4.542   2.500   4.642  0.4481 -0.6463  0.3771
   14MOL   C216 5182   4.432   2.398   4.624 -0.4301 -0.0909 -0.1412
   14MOL   C217 5183   4.600   2.522   4.773 -0.1355 -1.0282 -0.4921
   14MOL   C218 5184   4.709   2.606   4.789  0.5921 -0.5095  0.0277
   14MOL   C219 5185   5.000   2.724   4.725 -0.1622 -0.0491  0.2217
   14MOL   H220 5186   4.870   2.824   4.587 -0.4683  1.8010  0.6319
   14MOL   H221 5187   4.727   2.711   4.466 -1.6200  1.7579  0.1560
   14MOL   H222 5188   4.539   2.549   4.436 -2.2879  0.6934  0.9819
   14MOL   H223 5189   4.417   2.368   4.520 -0.6663 -1.8153  0.3641
   14MOL   H224 5190   4.457   2.312   4.686 -0.3421 -0.3081 -0.4754
   14MOL   H225 5191   4.343   2.454   4.648 -0.6363 -1.0175  1.3065
   14MOL   H226 5192   4.562   2.475   4.863 -1.9487 -2.0371 -1.7534
   14MOL   H227 5193   4.767   2.625   4.878  1.8806  3.8643 -1.5779
   14MOL   H228 5194   5.003   2.625   4.680 -0.5065  0.3916 -0.7661
   14MOL   H229 5195   5.023   2.716   4.832 -1.8148  0.8518  0.6655
   14MOL   C230 5196   5.118   2.803   4.653 -0.2547 -0.3941  0.0557
   14MOL   C231 5197   5.117   2.814   4.503  0.2245 -0.1281  0.2101
   14MOL   C232 5198   5.127   2.933   4.432  0.3159  0.2527  1.1792
   14MOL   C233 5199   5.151   2.930   4.292  0.1734  0.2515  0.1807
   14MOL   C234 5200   5.141   2.809   4.220 -0.2330 -0.0009  0.3338
   14MOL   C235 5201   5.161   2.811   4.064  0.2654 -0.3348  0.8913
   14MOL   C236 5202   5.126   2.689   4.290  0.2729 -0.1538 -0.2611
   14MOL   C237 5203   5.119   2.690   4.432  0.8707 -1.0820  0.0715
   14MOL   C238 5204   5.257   2.759   4.712 -0.1648 -1.0465 -0.7486
   14MOL   H239 5205   5.105   2.903   4.693  1.1070  0.8929 -2.6451
   14MOL   H240 5206   5.135   3.033   4.473 -2.4279  1.2705 -0.5895
   14MOL   H241 5207   5.168   3.024   4.242 -0.0399  1.3159  2.0732
   14MOL   H242 5208   5.124   2.905   4.021 -0.5206  0.2654  2.8219
   14MOL   H243 5209   5.262   2.785   4.033 -0.0598 -0.0048 -0.4903
   14MOL   H244 5210   5.099   2.733   4.020  0.9670  0.4533 -1.5793
   14MOL   H245 5211   5.122   2.595   4.237  2.0483  0.6129 -1.8320
   14MOL   H246 5212   5.128   2.595   4.483  0.3252 -1.8846 -1.2880
   14MOL   H247 5213   5.313   2.713   4.631  0.9335 -2.0422  0.5337
   14MOL   H248 5214   5.244   2.677   4.783  1.1369  0.5384  1.4059
   14MOL   C249 5215   5.334   2.876   4.787 -0.0491  0.0053 -0.6366
   14MOL   C250 5216   5.259   2.929   4.915 -0.5373 -0.4170 -0.2909
   14MOL   C251 5217   5.174   3.038   4.915  0.0873 -0.4112 -0.4826
   14MOL   C252 5218   5.109   3.079   5.038 -0.0050 -0.2486  0.4614
   14MOL   C253 5219   5.133   3.006   5.154  0.1144  0.5446 -0.4001
   14MOL   C254 5220   5.072   3.049   5.284 -0.0928  0.0245  0.9881
   14MOL   C255 5221   5.214   2.896   5.152  0.5301  0.2654  0.5785
   14MOL   C256 5222   5.274   2.852   5.033  0.0352 -0.5561 -0.3255
   14MOL   C257 5223   5.385   2.985   4.695 -0.4637 -0.0088 -0.9699
   14MOL   H258 5224   5.426   2.829   4.822 -0.1156 -2.2525 -3.3298
   14MOL   H259 5225   5.167   3.096   4.825  0.4335 -1.5532 -1.2532
   14MOL   H260 5226   5.039   3.160   5.042 -0.4947 -0.5103 -2.0511
   14MOL   H261 5227   5.157   3.049   5.352  0.4600  3.0671  0.3712
   14MOL   H262 5228   5.032   3.149   5.267 -2.5082 -1.0063  0.2615
   14MOL   H263 5229   4.994   2.980   5.319 -0.2480  0.7426  2.0877
   14MOL   H264 5230   5.216   2.836   5.242  0.2546  0.7024  0.8809
   14MOL   H265 5231   5.342   2.769   5.031  2.4473  1.3930 -2.4444
   14MOL   H266 5232   5.431   3.063   4.756 -0.3546  0.1470 -1.2514
   14MOL   H267 5233   5.294   3.034   4.661 -0.0664  0.9610 -0.6658
   14MOL   C268 5234   5.477   2.941   4.585  0.2416  0.4408  0.1364
   14MOL   C269 5235   5.602   2.877   4.629 -0.0266  0.4062 -0.2173
   14MOL   C270 5236   5.669   2.921   4.748 -0.5526 -0.1986 -0.0388
   14MOL   C271 5237   5.784   2.846   4.790 -0.3537 -0.4524  0.1531
   14MOL   C272 5238   5.848   2.752   4.705  0.4618  0.3920 -0.2804
   14MOL   C273 5239   5.986   2.703   4.744 -0.1107 -0.2344 -0.1932
   14MOL   C274 5240   5.782   2.713   4.588 -0.5108  0.0858  0.7842
   14MOL   C275 5241   5.659   2.776   4.550  0.1290 -0.1018 -0.1265
   14MOL   C276 5242   5.498   3.058   4.480 -0.6256  0.3712 -0.0419
   14MOL   H277 5243   5.406   2.873   4.538 -0.6006  0.1446  1.7982
   14MOL   H278 5244   5.630   3.001   4.810  0.0310 -0.2343  0.3767
   14MOL   H279 5245   5.826   2.867   4.888 -1.5267  0.0928  0.5557
   14MOL   H280 5246   6.004   2.708   4.851  0.1199  0.5770 -0.2691
   14MOL   H281 5247   5.990   2.600   4.707  0.3936 -0.8505  1.5371
   14MOL   H282 5248   6.064   2.760   4.695  1.0074 -0.7706  0.9251
   14MOL   H283 5249   5.822   2.655   4.507 -0.9454 -0.0140  0.6407
   14MOL   H284 5250   5.609   2.752   4.457 -1.1787  0.4371  0.4304
   14MOL   H285 5251   5.403   3.107   4.458 -0.6580  0.7559  0.8957
   14MOL   H286 5252   5.525   3.008   4.388 -1.0886 -0.2650  0.1636
   14MOL   C287 5253   5.603   3.172   4.502 -0.7274 -0.4614  0.7308
   14MOL   C288 5254   5.531   3.277   4.581 -0.1086  0.2301 -0.4466
   14MOL   C289 5255   5.445   3.366   4.522  0.0717 -0.2489 -0.4505
   14MOL   C290 5256   5.388   3.479   4.588  0.2921  0.7207 -0.1343
   14MOL   C291 5257   5.425   3.506   4.719 -0.2858  0.6755 -0.4530
   14MOL   C292 5258   5.382   3.633   4.790 -0.2536  0.1430 -0.1335
   14MOL   C293 5259   5.510   3.416   4.789 -0.2859  0.0987  0.2017
   14MOL   C294 5260   5.569   3.306   4.716  0.7848 -0.0058 -0.0345
   14MOL   C295 5261   5.652   3.233   4.371 -0.6173  0.2778  1.0583
   14MOL   H296 5262   5.693   3.155   4.561 -1.7338 -3.1340  1.5946
   14MOL   H297 5263   5.407   3.356   4.421 -2.0230  0.1385  0.2645
   14MOL   H298 5264   5.316   3.544   4.542  1.4700  1.8390 -0.4305
   14MOL   H299 5265   5.359   3.618   4.895  1.0979  1.8832  0.4257
   14MOL   H300 5266   5.462   3.706   4.790 -0.2399  0.1408  1.5459
   14MOL   H301 5267   5.299   3.680   4.739  0.2882  0.0477 -1.1143
   14MOL   H302 5268   5.520   3.431   4.895 -1.1950 -0.7796  0.4222
   14MOL   H303 5269   5.635   3.235   4.763  1.4860  0.5251 -0.2124
   14MOL   H304 5270   5.695   3.330   4.397  0.3075 -0.0492  0.7712
   14MOL   H305 5271   5.574   3.248   4.297 -1.4177 -0.2608  1.7890
   14MOL   C306 5272   5.776   3.164   4.302 -1.2806  0.8311  0.1937
   14MOL   C307 5273   5.837   3.250   4.192  1.0139 -0.4255  0.2521
   14MOL   C308 5274   5.911   3.364   4.228 -0.1480  0.0494  0.7549
   14MOL   C309 5275   5.963   3.446   4.126  0.7605 -0.7006  0.1554
   14MOL   C310 5276   5.934   3.424   3.994 -0.3431 -0.4777 -0.3022
   14MOL   C311 5277   5.974   3.520   3.886 -0.0107  0.3062 -0.0866
   14MOL   C312 5278   5.857   3.312   3.956 -0.1252 -0.5727 -0.2037
   14MOL   C313 5279   5.810   3.221   4.055 -0.5034 -0.3760 -0.8052
   14MOL   C314 5280   5.765   3.014   4.266 -0.2760  0.5060  0.1265
   14MOL   H315 5281   5.850   3.166   4.382  1.0119  1.8914 -1.8825
   14MOL   H316 5282   5.934   3.378   4.333 -3.1412  1.6322  1.2608
   14MOL   H317 5283   6.015   3.537   4.155  0.1509 -0.4413  0.4509
   14MOL   H318 5284   6.048   3.588   3.928  0.5026  0.5469 -1.3669
   14MOL   H319 5285   6.017   3.472   3.798  0.8009 -0.4752  0.7285
   14MOL   H320 5286   5.882   3.571   3.859  0.6479  1.2101 -0.6584
   14MOL   H321 5287   5.822   3.300   3.855 -0.8927  1.0146 -0.1545
   14MOL   H322 5288   5.744   3.139   4.031  0.2744 -1.2422 -0.0228
   14MOL   H323 5289   5.679   3.010   4.199  0.0661 -1.6977 -0.2168
   14MOL   H324 5290   5.734   2.966   4.359  1.3312  1.0923  0.9903
   14MOL   C325 5291   5.880   2.941   4.193  0.3676  0.1586  0.3048
   14MOL   C326 5292   5.831   2.813   4.125  0.3526 -0.0202 -0.0726
   14MOL   C327 5293   5.763   2.810   4.004 -0.5782  0.1664 -0.0519
   14MOL   C328 5294   5.726   2.688   3.942 -0.2285 -0.3476  1.0392
   14MOL   C329 5295   5.746   2.571   4.012 -0.0483  0.3870 -0.6068
   14MOL   C330 5296   5.716   2.434   3.951  0.1000  0.8737  0.1481
   14MOL   C331 5297   5.796   2.570   4.143 -0.1439 -0.1554 -1.1648
   14MOL   C332 5298   5.841   2.690   4.197 -0.0384  0.3192 -0.2637
   14MOL   C333 5299   5.993   2.919   4.299 -0.1492  0.4955  0.1498
   14MOL   H334 5300   5.920   2.999   4.109 -1.3575  0.5771 -0.2470
   14MOL   H335 5301   5.734   2.904   3.959 -0.0018  0.9568  1.1894
   14MOL   H336 5302   5.676   2.677   3.846 -0.8394 -0.7967  1.4046
   14MOL   H337 5303   5.750   2.346   4.007 -3.0432 -0.0964  0.6323
   14MOL   H338 5304   5.609   2.411   3.949  0.4453 -0.8192  0.1838
   14MOL   H339 5305   5.768   2.426   3.855 -0.2613 -0.9586  0.0782
   14MOL   H340 5306   5.813   2.480   4.200  0.9156  0.7125 -0.0811
   14MOL   H341 5307   5.882   2.682   4.297 -1.4931  0.3133  0.3499
   14MOL   H342 5308   6.050   2.831   4.270 -0.5521  0.7378 -1.4440
   14MOL   H343 5309   5.939   2.889   4.388 -1.9827  0.7949 -0.8320
   14MOL   C344 5310   6.099   3.026   4.314  0.6499  0.3767 -0.8063
   14MOL   C345 5311   6.206   3.030   4.209 -0.5459  0.3767  0.9445
   14MOL   C346 5312   6.271   2.915   4.163 -0.5302 -0.6175  0.1459
   14MOL   C347 5313   6.388   2.938   4.089 -0.0055  0.0317 -0.2948
   14MOL   C348 5314   6.439   3.068   4.060 -0.0448 -0.6827  0.1837
   14MOL   C349 5315   6.569   3.091   3.983  0.1861 -0.0368 -0.2036
   14MOL   C350 5316   6.368   3.182   4.099 -0.7305 -0.9016  0.0882
   14MOL   C351 5317   6.248   3.164   4.175  0.4327  0.7479 -0.1486
   14MOL   C352 5318   6.175   3.019   4.449  0.2655  0.3620 -0.5039
   14MOL   H353 5319   6.055   3.126   4.312 -2.0404 -0.7309  0.1640
   14MOL   H354 5320   6.242   2.817   4.197  0.3393  0.0070  2.8235
   14MOL   H355 5321   6.450   2.855   4.058  0.1270 -0.3759  1.0358
   14MOL   H356 5322   6.657   3.073   4.044  0.2319  1.0009  0.0321
   14MOL   H357 5323   6.571   3.020   3.900 -1.7726  1.0157 -1.1961
   14MOL   H358 5324   6.579   3.189   3.938  2.1269  1.0223  2.4003
   14MOL   H359 5325   6.399   3.283   4.078  0.5755 -1.4493 -0.6773
   14MOL   H360 5326   6.194   3.253   4.204 -3.4939 -2.0044  1.4164
   14MOL   H361 5327   6.262   3.083   4.436  0.3617  0.3907  0.2583
   14MOL   H362 5328   6.214   2.922   4.479  0.8673  0.3906 -1.1705
   14MOL   C363 5329   6.104   3.075   4.575 -0.5895 -0.4104 -0.4919
   14MOL   C364 5330   6.070   3.224   4.572  0.3641 -0.3956 -0.1396
   14MOL   C365 5331   5.945   3.268   4.614  0.0173  0.0612  0.0503
   14MOL   C366 5332   5.911   3.403   4.619  0.4952 -0.1129  0.1133
   14MOL   C367 5333   5.998   3.503   4.560 -0.2804 -0.2745 -0.0908
   14MOL   C368 5334   5.954   3.647   4.542  0.2570 -0.2098  0.7453
   14MOL   C369 5335   6.120   3.462   4.511  0.0709 -0.0428 -0.0837
   14MOL   C370 5336   6.160   3.326   4.524  0.4598  0.3019 -0.3030
   14MOL   C371 5337   6.183   3.047   4.708  1.2555 -0.3930 -0.4873
   14MOL   H372 5338   6.010   3.021   4.573  0.0961 -1.6239 -1.5771
   14MOL   H373 5339   5.876   3.195   4.654  0.4136 -0.5684 -0.4020
   14MOL   H374 5340   5.811   3.419   4.657  0.0810 -1.1197 -0.5502
   14MOL   H375 5341   6.006   3.707   4.616  1.0939 -0.3983  0.3254
   14MOL   H376 5342   5.962   3.694   4.443 -2.3419  1.4380  1.2620
   14MOL   H377 5343   5.847   3.657   4.557  0.3902  0.8487  1.0400
   14MOL   H378 5344   6.189   3.522   4.453  1.8483 -0.2623  1.7173
   14MOL   H379 5345   6.254   3.288   4.487  0.4283 -0.3767  0.3196
   14MOL   H380 5346   6.193   2.942   4.732  0.3537 -0.2691  0.4563
   14MOL   H381 5347   6.133   3.081   4.799 -0.6882 -2.3763 -0.7623
   14MOL   H382 5348   6.285   3.085   4.719  1.3711 -0.9706  0.4988
   15MOL     C1 5349   5.064   1.456   7.208  0.0772  0.3377 -0.2792
   15MOL     C2 5350   5.131   1.318   7.206 -0.2441 -0.4549  0.1118
   15MOL     C3 5351   5.112   1.234   7.087  0.6802 -0.3905 -0.5824
   15MOL     C4 5352   5.191   1.118   7.075  0.2533 -0.6109  0.0122
   15MOL     C5 5353   5.281   1.073   7.176  0.3920  0.9980 -0.1892
   15MOL     C6 5354   5.361   0.942   7.155  0.2545  0.2887  0.0962
   15MOL     C7 5355   5.294   1.152   7.292  0.3439 -0.3264 -0.2149
   15MOL     C8 5356   5.225   1.275   7.301 -0.0856  0.2026 -0.1585
   15MOL     C9 5357   5.161   1.576   7.166 -0.5648 -0.1082  0.1271
   15MOL    H10 5358   4.966   1.451   7.160 -0.8205  1.2364  1.4096
   15MOL    H11 5359   5.044   1.258   7.007 -1.3549 -1.3344  0.8292
   15MOL    H12 5360   5.187   1.057   6.986 -0.1505 -0.0395 -0.3554
   15MOL    H13 5361   5.307   0.850   7.181 -2.3657  2.3252  2.1247
   15MOL    H14 5362   5.384   0.942   7.049 -0.1927 -2.1629 -0.0456
   15MOL    H15 5363   5.449   0.951   7.218  0.0305 -1.2925  0.6619
   15MOL    H16 5364   5.365   1.129   7.370  0.1128 -0.6229 -0.0903
   15MOL    H17 5365   5.246   1.334   7.389 -2.3610  1.3906 -0.3973
   15MOL    H18 5366   5.199   1.563   7.065 -1.1683 -0.5646 -0.0435
   15MOL    H19 5367   5.244   1.567   7.236 -1.4055  0.1105  1.1582
   15MOL    H20 5368   5.039   1.477   7.312  1.3256 -5.3126  1.3362
   15MOL    C21 5369   5.095   1.714   7.169  0.0224  0.0171  0.0718
   15MOL    C22 5370   4.979   1.730   7.069  0.9409  0.0394  0.1174
   15MOL    C23 5371   4.842   1.725   7.114  0.2392 -0.3747 -0.4279
   15MOL    C24 5372   4.740   1.731   7.020  0.1377  0.4329  0.0440
   15MOL    C25 5373   4.771   1.739   6.879 -0.0433  1.0773  0.6314
   15MOL    C26 5374   4.654   1.750   6.782  0.2847  0.3718 -0.3753
   15MOL    C27 5375   4.900   1.749   6.833 -0.1753  0.3510  0.1966
   15MOL    C28 5376   5.003   1.743   6.930  1.0388 -0.0208  0.3050
   15MOL    C29 5377   5.198   1.822   7.156  0.4241  0.1863 -0.1561
   15MOL    H30 5378   5.050   1.724   7.268 -0.2573  0.1430 -0.0671
   15MOL    H31 5379   4.815   1.695   7.214  2.9845  0.3501  0.5771
   15MOL    H32 5380   4.638   1.716   7.053  1.2283 -0.8516  3.0848
   15MOL    H33 5381   4.563   1.728   6.838 -0.2068  3.3485  0.0668
   15MOL    H34 5382   4.648   1.850   6.738 -0.2583  0.2089 -0.6728
   15MOL    H35 5383   4.667   1.685   6.695 -0.0886 -0.0253 -0.1294
   15MOL    H36 5384   4.940   1.756   6.733  0.7712 -0.2646  0.5190
   15MOL    H37 5385   5.109   1.743   6.906  1.0319 -1.8301  0.2017
   15MOL    H38 5386   5.159   1.913   7.110 -0.2238 -0.0299 -0.0489
   15MOL    H39 5387   5.258   1.792   7.070 -0.1991  0.7132 -0.7779
   15MOL    C40 5388   5.283   1.861   7.281 -0.4267 -0.4156  0.2981
   15MOL    C41 5389   5.206   1.971   7.350  0.3874 -0.2774  0.2616
   15MOL    C42 5390   5.199   2.100   7.297  0.2644 -0.4001 -0.0605
   15MOL    C43 5391   5.127   2.203   7.364 -0.3688 -0.6814 -0.7653
   15MOL    C44 5392   5.058   2.174   7.484 -0.0529  0.0149  0.1479
   15MOL    C45 5393   4.979   2.281   7.563 -0.7355  0.1184 -0.3468
   15MOL    C46 5394   5.068   2.041   7.544 -0.7472 -0.3601  0.1799
   15MOL    C47 5395   5.143   1.941   7.474  0.6107 -0.0756  0.1385
   15MOL    C48 5396   5.427   1.909   7.254  0.6899 -0.0114 -0.0236
   15MOL    H49 5397   5.289   1.774   7.347 -0.7999 -1.0345 -0.4618
   15MOL    H50 5398   5.244   2.125   7.201 -0.5376  1.4236  0.0118
   15MOL    H51 5399   5.110   2.304   7.329 -3.9544 -1.4088 -1.2523
   15MOL    H52 5400   4.897   2.311   7.497 -1.2317 -1.0047 -0.2450
   15MOL    H53 5401   4.942   2.254   7.662  1.2654  0.5572  0.5366
   15MOL    H54 5402   5.056   2.357   7.580  1.6620 -2.4588  0.6049
   15MOL    H55 5403   5.004   2.018   7.628  2.7349  0.1372  3.0576
   15MOL    H56 5404   5.144   1.839   7.509 -1.6926 -0.8822 -2.0227
   15MOL    H57 5405   5.464   1.954   7.346  0.8972  1.8741 -0.9974
   15MOL    H58 5406   5.438   1.994   7.187  2.1597 -0.4211 -0.3341
   15MOL    C59 5407   5.525   1.799   7.217  0.3049  0.3332 -0.3127
   15MOL    C60 5408   5.541   1.696   7.328 -0.2961 -0.1573 -0.0571
   15MOL    C61 5409   5.558   1.732   7.460 -0.5009  0.9858 -0.7256
   15MOL    C62 5410   5.549   1.634   7.565  0.2082 -0.1631  0.4146
   15MOL    C63 5411   5.531   1.496   7.527 -0.1365 -0.4309 -0.5629
   15MOL    C64 5412   5.527   1.382   7.627 -0.0459 -0.0046 -0.1684
   15MOL    C65 5413   5.520   1.459   7.393  0.0930  0.3040 -1.0295
   15MOL    C66 5414   5.527   1.557   7.298  0.1564  0.2069 -0.1093
   15MOL    C67 5415   5.664   1.857   7.173 -0.1191  0.3543  0.3556
   15MOL    H68 5416   5.479   1.746   7.133  1.8661  2.1508 -2.3517
   15MOL    H69 5417   5.568   1.832   7.498 -2.3528  0.7155  0.5210
   15MOL    H70 5418   5.558   1.666   7.668 -0.7837  1.8930 -0.1243
   15MOL    H71 5419   5.614   1.316   7.627 -0.2033 -0.2147  0.2717
   15MOL    H72 5420   5.505   1.406   7.731 -2.6764 -0.0371 -0.6961
   15MOL    H73 5421   5.437   1.327   7.602 -1.7500  2.2742  0.8282
   15MOL    H74 5422   5.516   1.355   7.366 -1.3889 -0.2722  1.2986
   15MOL    H75 5423   5.525   1.523   7.196  1.3515 -2.3061  0.6600
   15MOL    H76 5424   5.735   1.777   7.191  0.1902  0.2920 -1.0632
   15MOL    H77 5425   5.698   1.929   7.247  0.9104 -0.3564  0.5798
   15MOL    C78 5426   5.669   1.915   7.026  0.3246 -0.1823 -0.0937
   15MOL    C79 5427   5.606   1.819   6.925 -0.0087 -0.5788  0.1762
   15MOL    C80 5428   5.681   1.710   6.881 -0.0937 -0.2812  0.4607
   15MOL    C81 5429   5.627   1.631   6.777  0.3104 -0.1180  0.9999
   15MOL    C82 5430   5.498   1.662   6.717 -0.0210 -0.2368  0.4574
   15MOL    C83 5431   5.463   1.600   6.580 -0.3037 -0.7591  0.3843
   15MOL    C84 5432   5.423   1.763   6.779 -0.3143 -0.3280  0.4298
   15MOL    C85 5433   5.479   1.849   6.869 -0.1382  0.3944  0.1220
   15MOL    C86 5434   5.808   1.956   6.989  0.4377 -0.6967  0.0625
   15MOL    H87 5435   5.607   2.004   7.025 -0.5981 -0.8205 -2.1874
   15MOL    H88 5436   5.776   1.702   6.932  1.5301  0.6604 -2.2818
   15MOL    H89 5437   5.683   1.557   6.721  0.3158  0.9834 -0.4745
   15MOL    H90 5438   5.440   1.494   6.591  0.1310 -0.6870  2.1634
   15MOL    H91 5439   5.377   1.643   6.529 -1.1632 -2.2823  0.5223
   15MOL    H92 5440   5.551   1.603   6.515 -2.1121  0.1985 -2.0907
   15MOL    H93 5441   5.333   1.791   6.728  0.3390 -0.7561 -0.9880
   15MOL    H94 5442   5.432   1.935   6.914  1.7211  2.1228 -1.1570
   15MOL    H95 5443   5.816   1.992   6.886  2.0958 -2.6731 -0.5326
   15MOL    H96 5444   5.882   1.876   6.992 -0.5939 -1.6048  1.8654
   15MOL    C97 5445   5.862   2.074   7.079  0.1970  0.0143  0.7162
   15MOL    C98 5446   5.758   2.182   7.098  0.2837  0.2664  0.3440
   15MOL    C99 5447   5.703   2.262   6.991  0.7487  0.5234 -0.1562
   15MOL   C100 5448   5.601   2.355   7.018 -0.1715  0.0482  0.2672
   15MOL   C101 5449   5.551   2.375   7.148  0.4770  0.3683  1.2031
   15MOL   C102 5450   5.450   2.485   7.169  0.5075 -0.5349 -0.1370
   15MOL   C103 5451   5.608   2.296   7.249 -0.7122  0.3083 -0.6480
   15MOL   C104 5452   5.711   2.202   7.230  0.3570 -0.4740 -0.2757
   15MOL   C105 5453   5.990   2.130   7.015  0.1085  0.3261  0.2481
   15MOL   H106 5454   5.896   2.025   7.170  3.3337 -1.1979 -1.0130
   15MOL   H107 5455   5.732   2.232   6.892  2.5577 -0.7781  0.7291
   15MOL   H108 5456   5.558   2.412   6.937 -1.0649 -0.7500  0.1664
   15MOL   H109 5457   5.427   2.489   7.275  3.2005  1.3983  0.4336
   15MOL   H110 5458   5.485   2.584   7.140  1.0868 -0.4965  0.6817
   15MOL   H111 5459   5.357   2.464   7.115 -0.6297  1.0346  1.1540
   15MOL   H112 5460   5.568   2.314   7.348  0.0659  0.4346 -0.3541
   15MOL   H113 5461   5.753   2.143   7.309  1.8074 -1.3861 -1.6977
   15MOL   H114 5462   5.982   2.148   6.907 -2.4244 -0.3742  0.2776
   15MOL   H115 5463   6.065   2.051   7.023 -1.0590 -0.9219 -0.8295
   15MOL   C116 5464   6.067   2.246   7.077 -0.2645 -0.4581  0.0403
   15MOL   C117 5465   6.197   2.260   6.992  0.4086 -0.1588 -0.6082
   15MOL   C118 5466   6.245   2.390   6.973 -0.1844  0.4109  0.3636
   15MOL   C119 5467   6.371   2.410   6.907 -0.3133 -0.5013 -1.2798
   15MOL   C120 5468   6.449   2.310   6.861 -0.4418  0.0835 -0.3117
   15MOL   C121 5469   6.571   2.347   6.780 -0.3297  0.1175  0.2271
   15MOL   C122 5470   6.400   2.178   6.881 -0.6368  0.0133  0.4117
   15MOL   C123 5471   6.278   2.157   6.944  0.3199 -0.4376 -0.0774
   15MOL   C124 5472   6.112   2.221   7.223 -0.1285 -0.5774 -0.8350
   15MOL   H125 5473   6.007   2.336   7.065  1.0192  0.3397 -0.5260
   15MOL   H126 5474   6.189   2.478   7.001 -0.0437  1.0418 -1.3103
   15MOL   H127 5475   6.385   2.515   6.885  2.9325 -1.1054 -2.3526
   15MOL   H128 5476   6.655   2.396   6.828  0.5456  0.2363 -1.3933
   15MOL   H129 5477   6.625   2.265   6.734 -2.1284 -0.4565 -0.9159
   15MOL   H130 5478   6.539   2.411   6.697  0.2957  1.0996  0.7310
   15MOL   H131 5479   6.451   2.096   6.833  1.0570  2.4051 -1.9949
   15MOL   H132 5480   6.245   2.055   6.953 -0.9828 -0.0543 -0.4024
   15MOL   H133 5481   6.218   2.241   7.234 -0.6031  2.9812 -2.0047
   15MOL   H134 5482   6.111   2.113   7.238  0.5467 -0.4050  0.4438
   15MOL   C135 5483   6.046   2.295   7.339  0.3108 -0.3009 -1.2863
   15MOL   C136 5484   6.063   2.445   7.325 -0.2853  0.1818 -0.0417
   15MOL   C137 5485   5.964   2.514   7.253 -0.1441 -0.2183  0.1617
   15MOL   C138 5486   5.987   2.648   7.207  0.3927 -0.0962 -0.2390
   15MOL   C139 5487   6.107   2.716   7.241  0.0926  0.3760  0.1912
   15MOL   C140 5488   6.128   2.857   7.208 -0.2680  0.1321 -0.7825
   15MOL   C141 5489   6.209   2.638   7.321  0.3617 -0.3700 -0.1001
   15MOL   C142 5490   6.190   2.507   7.357 -0.2785  0.6757  0.1312
   15MOL   C143 5491   6.106   2.246   7.471  0.0113  1.0012 -0.7505
   15MOL   H144 5492   5.939   2.278   7.347  0.4977 -0.8759  0.2944
   15MOL   H145 5493   5.871   2.463   7.232 -0.2671  1.2436 -3.1414
   15MOL   H146 5494   5.911   2.696   7.147 -0.6261  0.4355  1.4225
   15MOL   H147 5495   6.155   2.921   7.292 -0.4682 -0.3097 -0.3796
   15MOL   H148 5496   6.214   2.879   7.145 -1.2468  1.2674 -1.7470
   15MOL   H149 5497   6.045   2.895   7.148  0.1469  0.2137 -1.3069
   15MOL   H150 5498   6.303   2.690   7.335  0.8029 -0.0689 -3.5250
   15MOL   H151 5499   6.264   2.452   7.413 -0.6605  0.2844  0.2608
   15MOL   H152 5500   6.099   2.332   7.538  0.5379 -1.0721  2.0467
   15MOL   H153 5501   6.211   2.224   7.454  0.0697 -0.3913  1.2012
   15MOL   C154 5502   6.028   2.126   7.530 -0.2456  0.5527 -0.7833
   15MOL   C155 5503   5.888   2.166   7.576 -0.2801 -0.3202 -0.7933
   15MOL   C156 5504   5.781   2.086   7.540 -0.1166 -0.4578 -0.2419
   15MOL   C157 5505   5.650   2.115   7.572 -0.1921  0.4757  0.0737
   15MOL   C158 5506   5.622   2.242   7.630  1.2042  0.4933 -0.0319
   15MOL   C159 5507   5.474   2.289   7.638  0.5521 -0.3542  0.3026
   15MOL   C160 5508   5.726   2.331   7.663  0.4901  0.4293  0.1073
   15MOL   C161 5509   5.860   2.297   7.638  0.0788  0.1756  0.2550
   15MOL   C162 5510   6.106   2.042   7.632  0.0776 -0.8490 -0.2465
   15MOL   H163 5511   6.008   2.069   7.439  0.3005 -2.0224  0.6762
   15MOL   H164 5512   5.805   1.987   7.503  0.2514 -0.8035  0.9046
   15MOL   H165 5513   5.573   2.053   7.530  1.0523 -1.0905  0.0839
   15MOL   H166 5514   5.438   2.310   7.739  1.0211  0.7766  0.2383
   15MOL   H167 5515   5.483   2.385   7.587 -0.6089  0.2395  1.1890
   15MOL   H168 5516   5.414   2.212   7.588 -1.6773  1.2926  0.3562
   15MOL   H169 5517   5.707   2.427   7.710  2.9211  0.7137  0.5699
   15MOL   H170 5518   5.941   2.358   7.676  2.2383 -3.1300  1.1450
   15MOL   H171 5519   6.040   1.960   7.662  0.0615 -1.7502 -2.6072
   15MOL   H172 5520   6.113   2.102   7.722  1.8330  0.4939 -1.2574
   15MOL   C173 5521   6.235   1.974   7.578  0.0648  0.3283 -0.4961
   15MOL   C174 5522   6.216   1.891   7.453 -0.0476  0.5897  0.5687
   15MOL   C175 5523   6.292   1.926   7.335  0.4645  0.4633  0.0703
   15MOL   C176 5524   6.263   1.861   7.211 -0.3920 -0.8212  0.1346
   15MOL   C177 5525   6.166   1.759   7.207  0.0343  0.7918 -0.4295
   15MOL   C178 5526   6.121   1.699   7.073 -0.1520  0.0916  0.0968
   15MOL   C179 5527   6.103   1.718   7.323 -0.4064 -0.3327  0.6939
   15MOL   C180 5528   6.116   1.790   7.444  0.1857 -0.0106 -0.4606
   15MOL   C181 5529   6.303   1.886   7.686 -0.0003 -0.0197  0.6816
   15MOL   H182 5530   6.305   2.055   7.559 -0.3302  0.7056 -0.3411
   15MOL   H183 5531   6.363   2.007   7.340  1.3194 -0.3706  2.0095
   15MOL   H184 5532   6.322   1.891   7.126  0.5766 -0.8073  0.8039
   15MOL   H185 5533   6.066   1.774   7.016  1.5642  2.1695  1.1110
   15MOL   H186 5534   6.209   1.665   7.018 -0.4158  0.1381 -0.3565
   15MOL   H187 5535   6.055   1.619   7.103  0.0198  0.1755  0.7054
   15MOL   H188 5536   6.021   1.649   7.329 -0.8211  0.1643  0.8217
   15MOL   H189 5537   6.050   1.767   7.527  0.1433 -0.5972 -0.6520
   15MOL   H190 5538   6.392   1.841   7.643  0.3379  2.1553 -0.9642
   15MOL   H191 5539   6.239   1.800   7.709 -0.9447  0.3511 -0.5244
   15MOL   C192 5540   6.342   1.961   7.812 -0.6281  0.1632  0.2359
   15MOL   C193 5541   6.415   2.085   7.793  0.2640 -0.5231 -0.5102
   15MOL   C194 5542   6.543   2.093   7.730 -0.1536  0.2757 -0.9364
   15MOL   C195 5543   6.610   2.216   7.719  0.0040  0.6062  0.6224
   15MOL   C196 5544   6.558   2.335   7.768  0.0959  0.9797  0.2119
   15MOL   C197 5545   6.639   2.462   7.759 -0.2565 -0.8440  0.3914
   15MOL   C198 5546   6.428   2.336   7.822  0.4732  0.4827 -0.6999
   15MOL   C199 5547   6.363   2.214   7.837 -0.0004  0.2471 -0.0568
   15MOL   C200 5548   6.420   1.877   7.913  0.5458 -0.3085  0.3915
   15MOL   H201 5549   6.244   1.990   7.850 -0.4616  2.1102 -0.7673
   15MOL   H202 5550   6.584   2.000   7.693  2.3863  1.2503 -0.6429
   15MOL   H203 5551   6.707   2.204   7.672 -0.0084  0.0958  0.7201
   15MOL   H204 5552   6.688   2.476   7.662  0.7220  0.0625  1.0083
   15MOL   H205 5553   6.581   2.551   7.781  0.4174 -0.4861  0.7486
   15MOL   H206 5554   6.718   2.450   7.833 -0.0677  1.4722  0.6026
   15MOL   H207 5555   6.383   2.423   7.868  0.2792  0.2761 -0.4983
   15MOL   H208 5556   6.260   2.214   7.869 -0.0224  0.0016 -0.1255
   15MOL   H209 5557   6.524   1.871   7.881  1.5552  0.7207  3.2786
   15MOL   H210 5558   6.388   1.774   7.901 -2.1208  0.4339  0.8683
   15MOL   C211 5559   6.387   1.920   8.066  0.9544 -0.6187  0.5359
   15MOL   C212 5560   6.521   1.908   0.060  0.1980 -0.0842  0.1596
   15MOL   C213 5561   6.558   1.791   0.132 -0.0817 -0.3343  0.0813
   15MOL   C214 5562   6.687   1.787   0.185 -0.3535  0.4615 -0.3527
   15MOL   C215 5563   6.781   1.893   0.179 -0.4228 -0.1434  0.1568
   15MOL   C216 5564   6.915   1.875   0.254  0.7399 -0.3877 -0.2907
   15MOL   C217 5565   6.743   2.004   0.095  0.0229 -0.2895  0.0017
   15MOL   C218 5566   6.617   2.013   0.035 -0.2813  0.0696 -0.0377
   15MOL   C219 5567   6.270   1.843   0.050 -0.0129  0.2292 -1.3515
   15MOL   H220 5568   6.372   2.027   8.056  0.8266 -0.8879 -2.5734
   15MOL   H221 5569   6.488   1.714   0.160  2.4671 -1.8605  2.6061
   15MOL   H222 5570   6.705   1.703   0.249 -2.4652  0.2300 -0.0303
   15MOL   H223 5571   6.977   1.802   0.202  0.5318 -0.4458 -0.4594
   15MOL   H224 5572   6.982   1.962   0.254  2.5495 -1.7419  0.7658
   15MOL   H225 5573   6.899   1.838   0.355 -0.1425  0.7793  0.0111
   15MOL   H226 5574   6.808   2.090   0.085  0.1564 -0.5363 -1.2761
   15MOL   H227 5575   6.586   2.094   8.050 -0.3088  1.3299  1.5099
   15MOL   H228 5576   6.278   1.864   0.157 -0.3253 -0.4246 -1.1951
   15MOL   H229 5577   6.291   1.737   0.038  0.1788  0.1186 -0.0703
   15MOL   C230 5578   6.132   1.884   8.070 -0.1644 -0.3853 -0.0745
   15MOL   C231 5579   6.098   2.034   8.072  0.0617  0.1939  0.5694
   15MOL   C232 5580   6.018   2.094   7.972  0.3386 -0.6534  0.1372
   15MOL   C233 5581   5.977   2.226   7.990  0.2546 -0.8952  0.2704
   15MOL   C234 5582   6.022   2.299   0.027  0.6346 -0.1701  0.1786
   15MOL   C235 5583   5.963   2.437   0.063  0.1260  0.1925  0.2627
   15MOL   C236 5584   6.114   2.242   0.115  0.2265 -0.4924 -0.1880
   15MOL   C237 5585   6.150   2.110   0.100 -0.1544  0.4540  0.0759
   15MOL   C238 5586   6.023   1.803   0.065 -0.0914 -0.3785 -0.1183
   15MOL   H239 5587   6.125   1.847   7.968 -2.3114  3.1653 -1.3218
   15MOL   H240 5588   5.994   2.033   7.887 -0.4623  0.9922 -0.8422
   15MOL   H241 5589   5.910   2.271   7.918 -0.8831 -0.0523  1.8347
   15MOL   H242 5590   5.870   2.455   0.008  0.3973 -2.1304 -1.0232
   15MOL   H243 5591   5.939   2.441   0.169  2.7208 -0.2795  0.8960
   15MOL   H244 5592   6.023   2.524   0.037 -1.3721  1.2000  0.0751
   15MOL   H245 5593   6.141   2.297   0.205 -0.9208  0.3747 -0.3661
   15MOL   H246 5594   6.209   2.056   0.173 -0.6048  0.1112  0.1841
   15MOL   H247 5595   5.928   1.842   0.028  1.4774  2.8832 -0.8985
   15MOL   H248 5596   6.033   1.820   0.172 -2.6473 -2.4470  0.4927
   15MOL   C249 5597   6.021   1.651   0.042 -0.1159 -0.1612  0.2702
   15MOL   C250 5598   5.993   1.616   7.977 -0.2771  0.1529  0.1295
   15MOL   C251 5599   5.861   1.592   7.936  0.3700  0.2107 -0.5427
   15MOL   C252 5600   5.838   1.550   7.810  0.7108  0.1666  0.8965
   15MOL   C253 5601   5.938   1.526   7.717 -0.5501 -0.6930  0.5663
   15MOL   C254 5602   5.902   1.466   7.584 -0.1356  0.2975 -1.3330
   15MOL   C255 5603   6.076   1.539   7.758 -0.0997  0.9667 -0.1058
   15MOL   C256 5604   6.100   1.587   7.885  0.1121 -0.3243 -0.4289
   15MOL   C257 5605   5.933   1.567   0.138 -0.2544 -0.0580 -0.0277
   15MOL   H258 5606   6.120   1.608   0.058  0.5348  0.3942 -2.1151
   15MOL   H259 5607   5.778   1.605   8.004  0.9465  1.0468  0.0071
   15MOL   H260 5608   5.736   1.530   7.783  0.5740  0.2612  1.3371
   15MOL   H261 5609   5.969   1.383   7.567  0.1399  0.4714 -1.0943
   15MOL   H262 5610   5.803   1.419   7.581 -0.3983  0.6796  0.8102
   15MOL   H263 5611   5.907   1.536   7.500  0.4342  0.6228 -1.0278
   15MOL   H264 5612   6.160   1.520   7.694  2.0423  3.6317  1.7799
   15MOL   H265 5613   6.203   1.608   7.909  0.2264  0.4183 -1.5047
   15MOL   H266 5614   5.948   1.461   0.115  3.0188  0.2133  0.6594
   15MOL   H267 5615   5.827   1.580   0.119 -0.2491  0.1730  0.1036
   15MOL   C268 5616   5.953   1.585   0.285  0.6552  0.4907  0.2861
   15MOL   C269 5617   6.094   1.560   0.325 -0.3087  0.4980  0.3686
   15MOL   C270 5618   6.175   1.666   0.379  0.0414 -0.2339  0.5838
   15MOL   C271 5619   6.308   1.643   0.406  0.0291  0.1817 -0.1653
   15MOL   C272 5620   6.373   1.517   0.375  0.7864 -0.0191 -0.4879
   15MOL   C273 5621   6.525   1.499   0.396 -0.2052  0.2556  0.4726
   15MOL   C274 5622   6.293   1.405   0.333 -0.3843 -0.2136  0.3491
   15MOL   C275 5623   6.157   1.428   0.307 -0.2437 -0.0708  0.1033
   15MOL   C276 5624   5.854   1.482   0.348 -0.0310 -0.2098 -0.5168
   15MOL   H277 5625   5.916   1.685   0.305  0.3079  0.2443  0.8874
   15MOL   H278 5626   6.145   1.769   0.389 -1.3169 -0.5971  0.3444
   15MOL   H279 5627   6.375   1.724   0.432 -0.4200  0.7363 -0.7186
   15MOL   H280 5628   6.566   1.483   0.296  0.7827 -0.4093  0.9746
   15MOL   H281 5629   6.571   1.579   0.455 -0.3954 -0.0729  1.0628
   15MOL   H282 5630   6.528   1.404   0.450  0.8491  0.8132  1.4103
   15MOL   H283 5631   6.332   1.308   0.306  1.5955  0.5549  0.3716
   15MOL   H284 5632   6.097   1.342   0.283 -1.4823  0.3065  1.7360
   15MOL   H285 5633   5.867   1.378   0.319  3.9452 -0.3904  1.4855
   15MOL   H286 5634   5.749   1.506   0.335  0.2941  1.5865  0.0244
   15MOL   C287 5635   5.878   1.475   0.503 -0.3752 -0.5413 -0.1200
   15MOL   C288 5636   5.778   1.370   0.556 -0.0863  0.0045 -0.2238
   15MOL   C289 5637   5.646   1.397   0.582  0.1436  0.4233  0.3194
   15MOL   C290 5638   5.568   1.292   0.639  0.6869  0.0891  0.3179
   15MOL   C291 5639   5.624   1.164   0.666 -0.2225 -0.0914 -0.3865
   15MOL   C292 5640   5.553   1.061   0.747  0.5027 -0.6631 -0.3287
   15MOL   C293 5641   5.757   1.143   0.638  0.5006 -0.0286 -0.0472
   15MOL   C294 5642   5.836   1.248   0.587  0.7568  0.5273  0.1745
   15MOL   C295 5643   5.864   1.615   0.567 -0.5085  0.2462  1.1030
   15MOL   H296 5644   5.977   1.432   0.518  0.0980  0.5099 -0.2075
   15MOL   H297 5645   5.603   1.495   0.575  2.6289  1.8992  4.1309
   15MOL   H298 5646   5.461   1.306   0.650  0.7293  1.8702 -1.2316
   15MOL   H299 5647   5.608   1.043   0.839 -1.2788 -0.5721  0.7841
   15MOL   H300 5648   5.453   1.100   0.767  1.1824  1.3539 -0.7697
   15MOL   H301 5649   5.549   0.972   0.685 -0.7045 -0.7178 -0.1859
   15MOL   H302 5650   5.812   1.051   0.656  1.9668  0.7861 -0.2808
   15MOL   H303 5651   5.941   1.223   0.583  0.6695 -0.1458  1.9895
   15MOL   H304 5652   5.760   1.647   0.558 -0.8345 -1.6400 -2.7209
   15MOL   H305 5653   5.912   1.695   0.510  0.0442 -0.1554  1.0007
   15MOL   C306 5654   5.899   1.624   0.722 -0.6098  0.0157 -0.2503
   15MOL   C307 5655   5.852   1.757   0.786  0.0838  0.5558  0.0637
   15MOL   C308 5656   5.867   1.884   0.727 -0.3627  0.2413 -0.4855
   15MOL   C309 5657   5.809   1.997   0.788  0.7747 -0.3381 -0.3960
   15MOL   C310 5658   5.745   1.989   0.911 -0.1005 -0.4337 -0.4845
   15MOL   C311 5659   5.674   2.120   0.963 -0.1137 -0.2594 -0.0217
   15MOL   C312 5660   5.734   1.859   0.974  0.3020  0.1094  0.2320
   15MOL   C313 5661   5.792   1.743   0.915 -0.1915 -0.0704 -0.8697
   15MOL   C314 5662   6.051   1.599   0.741 -0.4806 -0.2142 -0.0547
   15MOL   H315 5663   5.843   1.544   0.770 -0.9358  0.0518 -0.5650
   15MOL   H316 5664   5.919   1.898   0.634  0.4306  0.2504 -0.0516
   15MOL   H317 5665   5.819   2.092   0.737  0.0940 -0.5607 -0.9340
   15MOL   H318 5666   5.704   2.125   1.068 -2.2029 -0.8065  0.6247
   15MOL   H319 5667   5.711   2.208   0.910  1.8054 -0.1507  1.4304
   15MOL   H320 5668   5.567   2.105   0.950  0.1292 -1.8941 -0.2445
   15MOL   H321 5669   5.673   1.843   1.062  1.6252  0.3420  1.1907
   15MOL   H322 5670   5.775   1.645   0.957  0.3575  0.2409  0.0884
   15MOL   H323 5671   6.102   1.692   0.719  0.0608 -0.1906  1.2656
   15MOL   H324 5672   6.078   1.515   0.676  2.1029  0.5802 -0.0249
   15MOL   C325 5673   6.101   1.548   0.875  0.4320  0.0420 -0.5095
   15MOL   C326 5674   6.254   1.560   0.883 -0.3219 -0.0468 -0.2271
   15MOL   C327 5675   6.313   1.647   0.981 -0.2928 -0.5804 -0.0419
   15MOL   C328 5676   6.451   1.646   1.001 -0.0406 -0.0074  0.4001
   15MOL   C329 5677   6.531   1.563   0.920  0.4753  0.2904 -0.5628
   15MOL   C330 5678   6.684   1.567   0.940  0.0249  0.1227  0.0991
   15MOL   C331 5679   6.475   1.480   0.821 -0.1478  0.5706 -0.0588
   15MOL   C332 5680   6.336   1.487   0.799  0.4236  0.3934  0.5140
   15MOL   C333 5681   6.056   1.400   0.900  0.5431  0.2742 -0.6237
   15MOL   H334 5682   6.042   1.607   0.945 -0.5464 -2.7701  1.1203
   15MOL   H335 5683   6.255   1.703   1.053 -0.7039  0.7008 -1.3585
   15MOL   H336 5684   6.492   1.702   1.084  0.3013  0.5578 -0.1411
   15MOL   H337 5685   6.719   1.466   0.959 -1.1100 -0.5721 -1.4594
   15MOL   H338 5686   6.721   1.616   0.850 -1.1337  0.7546 -0.0384
   15MOL   H339 5687   6.711   1.633   1.023 -1.1816  1.4019 -0.5051
   15MOL   H340 5688   6.548   1.424   0.764  1.5729  0.8233  1.8557
   15MOL   H341 5689   6.292   1.417   0.730  1.5153  0.8787 -0.6784
   15MOL   H342 5690   6.102   1.324   0.837  1.7032 -0.0737  0.6179
   15MOL   H343 5691   5.954   1.398   0.861 -0.3643  2.1263  1.5536
   15MOL   C344 5692   6.061   1.349   1.051 -0.1210 -0.0214 -0.0280
   15MOL   C345 5693   6.191   1.288   1.086 -0.9022 -0.6313 -0.3169
   15MOL   C346 5694   6.244   1.169   1.027 -0.4123  0.4000 -0.1334
   15MOL   C347 5695   6.376   1.131   1.046  0.1708  0.2640  0.7178
   15MOL   C348 5696   6.454   1.209   1.139  0.7452  0.3647 -0.9422
   15MOL   C349 5697   6.592   1.152   1.186 -0.9236 -0.2910 -0.1410
   15MOL   C350 5698   6.394   1.314   1.211 -0.6075  0.2582 -0.0131
   15MOL   C351 5699   6.262   1.361   1.180  0.1697 -0.2292 -0.3022
   15MOL   C352 5700   5.943   1.256   1.077  0.6299 -0.0092 -0.7946
   15MOL   H353 5701   6.044   1.432   1.119 -1.0073  0.9431 -1.3977
   15MOL   H354 5702   6.177   1.110   0.967 -2.7370  1.6812  1.1282
   15MOL   H355 5703   6.402   1.036   1.001 -0.4562 -0.2608  1.4553
   15MOL   H356 5704   6.613   1.183   1.288  2.0648 -2.6327  0.0131
   15MOL   H357 5705   6.597   1.046   1.163  0.0071 -0.5262  1.0871
   15MOL   H358 5706   6.674   1.190   1.125 -0.5360 -4.1303 -2.1718
   15MOL   H359 5707   6.461   1.365   1.279  0.5484 -0.7410 -0.3924
   15MOL   H360 5708   6.219   1.449   1.225 -1.5878 -0.7475 -0.9434
   15MOL   H361 5709   5.958   1.170   1.012  0.6129 -0.1539 -0.6063
   15MOL   H362 5710   5.864   1.323   1.044 -0.0973 -0.0174  0.9100
   15MOL   C363 5711   5.929   1.197   1.216 -0.5545  0.0398 -0.2248
   15MOL   C364 5712   5.827   1.090   1.221  0.4173  0.2714  0.0850
   15MOL   C365 5713   5.692   1.106   1.168 -0.8876  0.7018 -0.6570
   15MOL   C366 5714   5.599   1.004   1.174 -0.7103  0.6232 -0.1776
   15MOL   C367 5715   5.621   0.889   1.243 -1.1549 -0.1936  0.2367
   15MOL   C368 5716   5.514   0.789   1.252 -0.1921  0.1332  0.0960
   15MOL   C369 5717   5.750   0.866   1.303 -0.4859  0.5701 -0.0535
   15MOL   C370 5718   5.852   0.966   1.284  0.1049 -0.2477  0.1897
   15MOL   C371 5719   5.913   1.301   1.329  0.0704  0.2851 -0.0972
   15MOL   H372 5720   6.030   1.164   1.238 -0.3137  0.0267 -1.2969
   15MOL   H373 5721   5.676   1.197   1.111 -2.5161 -0.7828 -2.6312
   15MOL   H374 5722   5.511   1.022   1.114 -0.7158  3.3572  0.5911
   15MOL   H375 5723   5.541   0.689   1.286 -1.9540 -0.8414 -1.1991
   15MOL   H376 5724   5.431   0.825   1.312  0.2980 -0.9818  1.4661
   15MOL   H377 5725   5.489   0.765   1.148  3.1402  0.3051 -0.7918
   15MOL   H378 5726   5.776   0.773   1.351 -1.5173 -0.7569 -2.0100
   15MOL   H379 5727   5.951   0.944   1.321 -0.0320 -0.6318  0.3321
   15MOL   H380 5728   5.925   1.245   1.421 -1.6860 -0.4971 -0.3179
   15MOL   H381 5729   5.809   1.336   1.329 -0.6558 -1.8193 -0.0513
   15MOL   H382 5730   5.988   1.379   1.319  0.7414 -0.3907 -0.3943
   16MOL     C1 5731   2.129   4.662   5.753 -0.6332 -0.6204  0.2898
   16MOL     C2 5732   2.050   4.788   5.718  0.1941 -0.6508 -0.0196
   16MOL     C3 5733   1.955   4.836   5.810 -0.0367  0.2087 -1.1137
   16MOL     C4 5734   1.873   4.943   5.767  0.1353  0.1435 -0.6157
   16MOL     C5 5735   1.886   5.001   5.637 -0.5373 -0.4812  0.0717
   16MOL     C6 5736   1.796   5.112   5.587 -0.2203  0.0132 -0.4776
   16MOL     C7 5737   1.989   4.959   5.549 -0.0809 -0.3620  1.5427
   16MOL     C8 5738   2.069   4.851   5.592 -0.4339 -0.8490  0.2829
   16MOL     C9 5739   2.276   4.699   5.769 -0.0467  0.3024  0.5006
   16MOL    H10 5740   2.082   4.624   5.844  0.8881  0.3164  1.4854
   16MOL    H11 5741   1.941   4.800   5.911  1.9531  0.0425 -0.8815
   16MOL    H12 5742   1.794   4.979   5.831  0.6027 -0.4779  0.3172
   16MOL    H13 5743   1.832   5.181   5.510 -1.2746 -0.0450 -1.0364
   16MOL    H14 5744   1.695   5.086   5.553 -0.5128  1.2913 -0.6189
   16MOL    H15 5745   1.796   5.173   5.677  2.2399  0.7197 -0.9142
   16MOL    H16 5746   2.007   5.002   5.451  0.5146 -0.2084  1.7180
   16MOL    H17 5747   2.150   4.814   5.530 -0.3561 -1.3622  0.6853
   16MOL    H18 5748   2.279   4.726   5.875  0.9495 -1.0147  0.8299
   16MOL    H19 5749   2.300   4.783   5.704 -0.0831 -0.1899 -0.1541
   16MOL    H20 5750   2.111   4.590   5.673 -0.1107 -0.0162 -0.3737
   16MOL    C21 5751   2.382   4.584   5.761  0.4405 -0.1634 -0.2147
   16MOL    C22 5752   2.398   4.539   5.613  0.5644 -0.1039  0.3002
   16MOL    C23 5753   2.487   4.616   5.538  0.1716  0.2727  0.4971
   16MOL    C24 5754   2.510   4.591   5.402  0.6020  0.6014  0.1853
   16MOL    C25 5755   2.430   4.490   5.337 -0.1168 -0.8483 -1.1246
   16MOL    C26 5756   2.459   4.464   5.187 -0.0270  0.4828  0.0446
   16MOL    C27 5757   2.336   4.419   5.410  1.1915  0.0176  0.1387
   16MOL    C28 5758   2.316   4.445   5.546  0.0677  0.0563 -0.1186
   16MOL    C29 5759   2.356   4.473   5.865 -0.1810 -1.1169  0.4159
   16MOL    H30 5760   2.478   4.628   5.791  0.0715  0.6872 -0.2631
   16MOL    H31 5761   2.553   4.688   5.583  0.0702 -0.0610  1.1897
   16MOL    H32 5762   2.594   4.639   5.353  1.2752 -0.2274  0.5049
   16MOL    H33 5763   2.535   4.532   5.149  1.7916 -2.4316 -1.7033
   16MOL    H34 5764   2.487   4.362   5.159 -0.0768 -0.4228  3.1165
   16MOL    H35 5765   2.368   4.485   5.131  0.2717  0.8644 -0.2977
   16MOL    H36 5766   2.282   4.343   5.356  0.8832  1.7255 -2.0126
   16MOL    H37 5767   2.236   4.397   5.601  0.0293 -0.6357 -0.7702
   16MOL    H38 5768   2.258   4.436   5.833 -0.0023 -1.6678  0.5008
   16MOL    H39 5769   2.345   4.523   5.961 -2.3398  0.7171 -0.7557
   16MOL    C40 5770   2.452   4.350   5.859  0.2450  0.5858  0.4384
   16MOL    C41 5771   2.402   4.246   5.957  0.0948  0.1804  0.5240
   16MOL    C42 5772   2.374   4.114   5.919  0.3511 -0.1634 -0.2145
   16MOL    C43 5773   2.323   4.023   6.019  0.1193 -0.2135  0.4562
   16MOL    C44 5774   2.324   4.062   6.153 -0.2867 -0.1019 -0.1670
   16MOL    C45 5775   2.294   3.949   6.246 -0.5801 -0.1959  0.4720
   16MOL    C46 5776   2.369   4.190   6.192 -0.4686  0.1136 -0.0710
   16MOL    C47 5777   2.399   4.284   6.092 -0.1085  0.1498 -0.2904
   16MOL    C48 5778   2.598   4.380   5.879  0.7528 -0.3686 -0.3073
   16MOL    H49 5779   2.441   4.303   5.761  0.9623 -0.3801  0.8232
   16MOL    H50 5780   2.395   4.067   5.825  1.9209 -1.0305  0.5482
   16MOL    H51 5781   2.315   3.920   5.990 -2.5240  0.3253 -0.8274
   16MOL    H52 5782   2.187   3.956   6.267 -0.5025  2.2246  0.2121
   16MOL    H53 5783   2.312   3.851   6.202  1.6563  0.8658 -1.0743
   16MOL    H54 5784   2.347   3.959   6.341  1.0296 -0.9094 -0.3264
   16MOL    H55 5785   2.370   4.219   6.297  0.8145 -0.6953  0.1484
   16MOL    H56 5786   2.431   4.377   6.138  1.6331 -1.1203  1.1670
   16MOL    H57 5787   2.618   4.438   5.969  1.0724 -1.9146  0.6363
   16MOL    H58 5788   2.623   4.444   5.794 -1.2424  1.7219  0.6529
   16MOL    C59 5789   2.692   4.255   5.890  0.1938 -0.1124 -0.7421
   16MOL    C60 5790   2.809   4.284   5.986 -0.4524 -0.0276  0.4064
   16MOL    C61 5791   2.784   4.268   6.124  0.1392  0.2423  0.2964
   16MOL    C62 5792   2.888   4.285   6.218  0.3396  0.4609  0.5315
   16MOL    C63 5793   3.015   4.330   6.180  0.5417 -0.0360 -0.4803
   16MOL    C64 5794   3.134   4.329   6.272 -0.0781  0.6072 -0.4828
   16MOL    C65 5795   3.037   4.362   6.043 -0.5763  0.2342  0.5561
   16MOL    C66 5796   2.940   4.328   5.943  0.8710  0.4767  0.2832
   16MOL    C67 5797   2.727   4.219   5.748 -0.9602  0.0372  0.0312
   16MOL    H68 5798   2.639   4.173   5.939 -0.0573  0.8191  0.5759
   16MOL    H69 5799   2.688   4.242   6.166 -0.6979 -2.3556 -2.9991
   16MOL    H70 5800   2.879   4.261   6.323  0.3185  0.0172  0.4308
   16MOL    H71 5801   3.137   4.426   6.321 -0.7756  0.3664  0.0479
   16MOL    H72 5802   3.119   4.255   6.352  0.1385  0.4376 -0.5998
   16MOL    H73 5803   3.220   4.305   6.210  0.6642  2.6277 -0.2564
   16MOL    H74 5804   3.130   4.407   6.011 -0.8483  0.0546 -0.5322
   16MOL    H75 5805   2.946   4.363   5.841 -0.7832 -0.6086 -0.2139
   16MOL    H76 5806   2.794   4.295   5.707 -1.6093  0.9086  0.5650
   16MOL    H77 5807   2.645   4.230   5.676 -2.0881  0.8659  1.4182
   16MOL    C78 5808   2.782   4.070   5.718 -0.0047 -0.5278  0.1230
   16MOL    C79 5809   2.932   4.055   5.735 -0.3065 -0.0453 -0.1509
   16MOL    C80 5810   3.022   4.142   5.664  0.3318 -0.3519 -0.3692
   16MOL    C81 5811   3.158   4.123   5.694 -0.0703  0.0573 -0.0827
   16MOL    C82 5812   3.206   4.015   5.776  0.1825  0.0944  0.4186
   16MOL    C83 5813   3.351   3.968   5.788 -0.6103 -0.0669 -0.2351
   16MOL    C84 5814   3.112   3.930   5.843  0.3983  0.7056 -0.0473
   16MOL    C85 5815   2.978   3.957   5.825  0.5832 -0.1199  0.3708
   16MOL    C86 5816   2.745   4.025   5.574 -0.2570 -0.2966 -0.2547
   16MOL    H87 5817   2.726   3.996   5.774 -0.1041 -1.3721 -1.0732
   16MOL    H88 5818   2.990   4.218   5.594  1.4891 -0.8930 -1.5132
   16MOL    H89 5819   3.227   4.201   5.665 -0.4825  0.4642  0.0281
   16MOL    H90 5820   3.390   4.013   5.879  1.8093 -0.6451 -0.9559
   16MOL    H91 5821   3.343   3.860   5.800  1.3386 -0.2114 -0.0485
   16MOL    H92 5822   3.427   3.996   5.714  1.7251 -0.5053  1.9389
   16MOL    H93 5823   3.132   3.840   5.899 -0.1810 -0.3996 -1.5641
   16MOL    H94 5824   2.902   3.904   5.879  0.2278  0.5684  0.5517
   16MOL    H95 5825   2.799   4.085   5.500 -0.6217 -0.6412 -0.8035
   16MOL    H96 5826   2.639   4.050   5.565 -0.2542 -0.8900 -2.0916
   16MOL    C97 5827   2.743   3.868   5.551 -0.0324  0.3925 -0.2664
   16MOL    C98 5828   2.882   3.802   5.541  0.5111 -0.2199 -0.7013
   16MOL    C99 5829   2.925   3.693   5.623  0.1653 -0.2526  0.6825
   16MOL   C100 5830   3.056   3.646   5.618 -0.0711 -0.2075  1.1451
   16MOL   C101 5831   3.148   3.706   5.533  0.6656  0.4616 -0.3722
   16MOL   C102 5832   3.296   3.662   5.530  0.3131 -0.2617 -0.1053
   16MOL   C103 5833   3.106   3.809   5.446  0.2730 -0.2153  0.0603
   16MOL   C104 5834   2.973   3.855   5.454 -0.7375 -0.0956  0.2962
   16MOL   C105 5835   2.689   3.837   5.403 -0.0472  0.3679 -0.9019
   16MOL   H106 5836   2.696   3.810   5.630 -1.0990  1.0197 -0.4334
   16MOL   H107 5837   2.864   3.643   5.696 -1.7344  2.2125  0.8492
   16MOL   H108 5838   3.091   3.566   5.680  1.4351 -0.6572 -0.2556
   16MOL   H109 5839   3.295   3.566   5.581 -1.4816 -1.6191 -2.6065
   16MOL   H110 5840   3.335   3.656   5.429 -0.8499  0.7453 -0.6238
   16MOL   H111 5841   3.355   3.740   5.579  0.9785 -1.3597  0.8681
   16MOL   H112 5842   3.175   3.866   5.386 -1.5845  0.3723 -1.5675
   16MOL   H113 5843   2.947   3.935   5.386  1.8165 -2.0797 -3.1808
   16MOL   H114 5844   2.682   3.729   5.387  0.5030  0.0421  0.9482
   16MOL   H115 5845   2.760   3.877   5.331  1.8008 -3.0516 -1.1097
   16MOL   C116 5846   2.550   3.886   5.356  0.2316 -0.1852  0.0709
   16MOL   C117 5847   2.438   3.878   5.466 -0.3072  0.3653 -0.1550
   16MOL   C118 5848   2.397   3.751   5.522  0.4015 -0.4963 -0.3042
   16MOL   C119 5849   2.293   3.747   5.615 -0.0611  0.3896 -0.2852
   16MOL   C120 5850   2.224   3.863   5.650  0.2729  1.1775 -0.0812
   16MOL   C121 5851   2.099   3.862   5.746  0.1610  0.1649  0.4116
   16MOL   C122 5852   2.262   3.983   5.598  0.0590 -0.5366 -0.0587
   16MOL   C123 5853   2.368   3.999   5.507 -0.3502  0.0930 -0.4245
   16MOL   C124 5854   2.517   3.826   5.218 -0.5042  0.1380  0.2789
   16MOL   H125 5855   2.571   3.993   5.349 -1.9740  0.2786  0.0532
   16MOL   H126 5856   2.448   3.660   5.493 -0.5229 -0.9727 -0.4454
   16MOL   H127 5857   2.269   3.654   5.665 -0.6062  2.1681  2.8930
   16MOL   H128 5858   2.017   3.930   5.720  0.4633  0.3752  0.0140
   16MOL   H129 5859   2.061   3.761   5.762 -2.0237  1.0467  1.0803
   16MOL   H130 5860   2.119   3.902   5.846  1.2837  0.0532  0.2315
   16MOL   H131 5861   2.204   4.069   5.627  0.0967 -0.4361 -0.2807
   16MOL   H132 5862   2.390   4.095   5.463 -0.0463 -0.5869 -1.7863
   16MOL   H133 5863   2.525   3.717   5.210  2.4200  0.4353 -1.6888
   16MOL   H134 5864   2.594   3.863   5.150 -0.7377 -0.6789 -0.4408
   16MOL   C135 5865   2.381   3.866   5.155 -0.1465 -0.0173 -0.3523
   16MOL   C136 5866   2.332   3.749   5.073 -0.2374 -0.0845 -0.2759
   16MOL   C137 5867   2.285   3.633   5.141 -0.2417  1.1985  0.4300
   16MOL   C138 5868   2.243   3.519   5.064  0.4540 -0.7586  0.0123
   16MOL   C139 5869   2.231   3.536   4.925  0.1339  0.1247  0.0296
   16MOL   C140 5870   2.165   3.432   4.836  0.5441 -0.2760  0.4560
   16MOL   C141 5871   2.281   3.654   4.865 -0.3207  0.5791  0.3917
   16MOL   C142 5872   2.336   3.757   4.938  0.1805  0.3283  0.7065
   16MOL   C143 5873   2.388   4.008   5.082 -0.4049 -0.1286 -0.0584
   16MOL   H144 5874   2.304   3.874   5.232 -1.1036 -2.3691 -1.0222
   16MOL   H145 5875   2.277   3.625   5.248  0.4157  1.1527  0.4745
   16MOL   H146 5876   2.198   3.429   5.104  0.7403 -0.3666  1.2464
   16MOL   H147 5877   2.079   3.459   4.775  1.0390  0.2117 -0.0336
   16MOL   H148 5878   2.243   3.401   4.765 -1.0572 -0.9532 -1.0502
   16MOL   H149 5879   2.142   3.344   4.896 -0.0457 -1.0242 -0.8496
   16MOL   H150 5880   2.270   3.677   4.760  0.2329 -1.3137 -0.1028
   16MOL   H151 5881   2.370   3.843   4.882  1.4341  0.1156  1.1289
   16MOL   H152 5882   2.455   4.002   4.997 -0.5777  0.8989 -0.2697
   16MOL   H153 5883   2.442   4.084   5.137 -0.5817 -0.4204  0.5262
   16MOL   C154 5884   2.249   4.053   5.033 -1.3919  0.3117 -0.3343
   16MOL   C155 5885   2.252   4.140   4.909 -0.1540  0.4112  0.4464
   16MOL   C156 5886   2.197   4.093   4.785 -0.3405 -0.4528 -0.2158
   16MOL   C157 5887   2.197   4.179   4.666 -1.3480  0.0383 -0.0742
   16MOL   C158 5888   2.253   4.310   4.678  0.2966 -0.2809  0.1779
   16MOL   C159 5889   2.249   4.405   4.564 -0.7523 -0.5603  0.3658
   16MOL   C160 5890   2.309   4.355   4.804  1.3012  0.1183 -0.3488
   16MOL   C161 5891   2.311   4.269   4.917 -0.7139 -0.1537  0.5801
   16MOL   C162 5892   2.173   4.115   5.158 -0.0817 -0.3543  0.1715
   16MOL   H163 5893   2.190   3.969   4.996 -1.2138  0.3643 -0.7434
   16MOL   H164 5894   2.158   3.992   4.785 -2.2836  0.2610  1.3099
   16MOL   H165 5895   2.163   4.156   4.567  0.6329  0.8466 -0.9663
   16MOL   H166 5896   2.265   4.511   4.582 -1.7148 -0.6754  2.0384
   16MOL   H167 5897   2.318   4.369   4.488  0.5996  1.7034  0.4764
   16MOL   H168 5898   2.150   4.414   4.519 -0.8353  0.5136  0.7573
   16MOL   H169 5899   2.337   4.458   4.821  1.8100 -0.0452 -0.1795
   16MOL   H170 5900   2.345   4.318   5.007  0.4993  1.1543 -0.5682
   16MOL   H171 5901   2.223   4.200   5.204 -1.6998  0.3224  0.7095
   16MOL   H172 5902   2.157   4.034   5.231  0.8856  0.0118  0.7951
   16MOL   C173 5903   2.029   4.177   5.126 -0.4785 -0.1559 -0.1641
   16MOL   C174 5904   1.988   4.266   5.246 -0.1299  0.7254 -0.0053
   16MOL   C175 5905   1.994   4.406   5.239 -0.1045  0.3896  0.2232
   16MOL   C176 5906   1.952   4.488   5.344 -0.2948 -0.4517 -0.0875
   16MOL   C177 5907   1.899   4.436   5.460  0.1578 -0.3279  0.1160
   16MOL   C178 5908   1.865   4.528   5.576  0.7244  0.0230 -0.2589
   16MOL   C179 5909   1.900   4.293   5.476  0.3404  0.4635 -0.1021
   16MOL   C180 5910   1.940   4.211   5.371 -0.0238  0.5500  0.1129
   16MOL   C181 5911   1.923   4.074   5.085  0.7363 -0.2489 -0.2636
   16MOL   H182 5912   2.049   4.248   5.046  0.4487  0.8505  0.9433
   16MOL   H183 5913   2.024   4.452   5.146  0.8496 -0.7807 -0.0633
   16MOL   H184 5914   1.966   4.594   5.333 -0.6923 -0.1604  2.1392
   16MOL   H185 5915   1.911   4.505   5.672  0.8731  1.3655  0.0077
   16MOL   H186 5916   1.898   4.628   5.545  2.5969 -0.4193  0.2376
   16MOL   H187 5917   1.757   4.538   5.586  0.6008 -2.1425  0.8935
   16MOL   H188 5918   1.868   4.239   5.564 -0.1356  0.0104 -0.5558
   16MOL   H189 5919   1.944   4.104   5.379  2.0527  0.4072 -2.1178
   16MOL   H190 5920   1.907   4.007   5.169 -0.5508 -0.0690 -0.3472
   16MOL   H191 5921   1.959   4.006   5.007 -2.4059  0.0741 -2.0816
   16MOL   C192 5922   1.781   4.133   5.065 -0.3679 -0.2323  0.1133
   16MOL   C193 5923   1.676   4.023   5.058  0.2918 -0.6744  0.0444
   16MOL   C194 5924   1.584   4.010   5.166 -0.6326 -0.1289 -0.0466
   16MOL   C195 5925   1.492   3.901   5.160  0.3516  0.3288  0.5143
   16MOL   C196 5926   1.479   3.827   5.047  0.0378 -0.3769 -0.2514
   16MOL   C197 5927   1.359   3.727   5.047 -0.0103  0.4482  0.2184
   16MOL   C198 5928   1.563   3.841   4.937 -0.0134 -0.3278  0.7216
   16MOL   C199 5929   1.664   3.937   4.945  0.1031  0.1394 -0.1186
   16MOL   C200 5930   1.768   4.236   4.947 -0.4110 -0.3644 -0.1085
   16MOL   H201 5931   1.761   4.182   5.160 -1.3975  3.1169 -1.7596
   16MOL   H202 5932   1.586   4.075   5.253  0.0997 -1.6218  1.0939
   16MOL   H203 5933   1.416   3.889   5.236 -1.9107  0.0149 -1.7176
   16MOL   H204 5934   1.400   3.628   5.071  0.9527  0.5663 -0.9017
   16MOL   H205 5935   1.274   3.748   5.112 -1.4640 -2.3210 -0.7023
   16MOL   H206 5936   1.316   3.727   4.947  1.2290  0.0696 -0.3260
   16MOL   H207 5937   1.554   3.771   4.856  3.7795 -0.4743  0.3406
   16MOL   H208 5938   1.741   3.942   4.869  0.7555  2.3655  0.6507
   16MOL   H209 5939   1.780   4.175   4.857  2.0068  1.6581 -1.2280
   16MOL   H210 5940   1.856   4.297   4.927  0.8122 -1.1179  2.7400
   16MOL   C211 5941   1.640   4.327   4.955  0.1380  0.4601  0.5874
   16MOL   C212 5942   1.580   4.329   4.815  0.2628  0.5828  0.2606
   16MOL   C213 5943   1.629   4.414   4.714 -0.6911 -0.6409 -0.0765
   16MOL   C214 5944   1.589   4.388   4.584  0.7200  0.3328  0.2831
   16MOL   C215 5945   1.492   4.293   4.554  0.3694 -0.4715  0.0243
   16MOL   C216 5946   1.440   4.284   4.412 -0.1212 -0.2348 -0.4707
   16MOL   C217 5947   1.445   4.208   4.655 -0.1277  0.1491 -0.0413
   16MOL   C218 5948   1.487   4.228   4.784  0.2572  0.2383  0.0950
   16MOL   C219 5949   1.670   4.466   5.023 -0.0320  0.1658 -0.6502
   16MOL   H220 5950   1.575   4.270   5.021  1.1178  0.0247  1.2022
   16MOL   H221 5951   1.712   4.483   4.721  0.2396 -1.5810 -1.6200
   16MOL   H222 5952   1.627   4.448   4.503  0.7308 -0.9386 -0.6788
   16MOL   H223 5953   1.465   4.191   4.361 -4.0025  0.0781 -3.1794
   16MOL   H224 5954   1.332   4.299   4.407  0.2694  2.8405 -0.5958
   16MOL   H225 5955   1.478   4.365   4.351 -2.3303  1.5552  0.4463
   16MOL   H226 5956   1.371   4.134   4.628  0.0178 -0.6566  1.7244
   16MOL   H227 5957   1.452   4.166   4.865  1.3598  0.8184  1.0357
   16MOL   H228 5958   1.722   4.529   4.951 -0.1321  0.3634 -0.5490
   16MOL   H229 5959   1.746   4.450   5.099  0.6229  2.4855 -0.7674
   16MOL   C230 5960   1.560   4.543   5.092  1.0645 -0.1351  0.0915
   16MOL   C231 5961   1.607   4.673   5.138 -0.1420  0.0962 -0.1342
   16MOL   C232 5962   1.686   4.699   5.259  0.4065 -0.3999 -0.1142
   16MOL   C233 5963   1.725   4.832   5.286 -0.3390 -0.3983 -0.5052
   16MOL   C234 5964   1.694   4.937   5.194 -0.5217  0.4282  0.2624
   16MOL   C235 5965   1.751   5.076   5.213 -0.0497 -0.1179  0.0253
   16MOL   C236 5966   1.630   4.909   5.076 -0.3466  0.2111 -1.0701
   16MOL   C237 5967   1.584   4.779   5.052  0.5026 -0.0116 -0.8018
   16MOL   C238 5968   1.482   4.458   5.198 -0.0816  0.3258 -0.2816
   16MOL   H239 5969   1.488   4.562   5.013 -0.2981 -0.2970  1.2838
   16MOL   H240 5970   1.703   4.620   5.331 -0.6233 -0.5530 -0.0260
   16MOL   H241 5971   1.784   4.852   5.374  1.5610 -1.7798 -1.4039
   16MOL   H242 5972   1.693   5.147   5.272  2.7189  2.7076 -0.5294
   16MOL   H243 5973   1.849   5.059   5.258  0.0736 -0.4390 -0.3619
   16MOL   H244 5974   1.778   5.122   5.118  1.7983  1.1530  1.1290
   16MOL   H245 5975   1.610   4.988   5.005 -1.6936  0.1427 -0.7829
   16MOL   H246 5976   1.537   4.758   4.957  2.7031 -1.0955 -1.6907
   16MOL   H247 5977   1.563   4.413   5.256 -1.7523 -1.5827  0.6286
   16MOL   H248 5978   1.440   4.366   5.159  0.1532  0.4048 -0.7232
   16MOL   C249 5979   1.374   4.538   5.284 -0.8995  0.3905 -1.0638
   16MOL   C250 5980   1.360   4.447   5.409  0.5438 -0.5602 -0.2673
   16MOL   C251 5981   1.445   4.470   5.522 -0.2500  0.4518  0.4525
   16MOL   C252 5982   1.424   4.402   5.643  0.6104  0.2921 -0.0522
   16MOL   C253 5983   1.340   4.291   5.641 -0.5176 -0.4373  0.9634
   16MOL   C254 5984   1.320   4.205   5.767 -0.7320  0.3333 -0.2453
   16MOL   C255 5985   1.266   4.253   5.522  0.2165  0.3499  0.2809
   16MOL   C256 5986   1.274   4.335   5.409  0.9309  0.2816  0.4005
   16MOL   C257 5987   1.249   4.571   5.205  0.4057  0.0815  0.4554
   16MOL   H258 5988   1.412   4.635   5.317  0.7705 -0.6564  0.2048
   16MOL   H259 5989   1.518   4.549   5.517  1.2766 -0.9480 -0.0487
   16MOL   H260 5990   1.473   4.432   5.734  0.0545 -0.4493  0.5046
   16MOL   H261 5991   1.254   4.121   5.745  0.8754 -0.8424 -0.6031
   16MOL   H262 5992   1.412   4.153   5.795 -0.7880 -0.8556 -2.1668
   16MOL   H263 5993   1.281   4.269   5.846  1.9284  1.9167 -0.1365
   16MOL   H264 5994   1.194   4.172   5.524 -1.1827  1.5630  0.0343
   16MOL   H265 5995   1.218   4.313   5.320  2.6150  0.2692 -0.6740
   16MOL   H266 5996   1.161   4.533   5.258  0.0646 -1.5286 -1.2393
   16MOL   H267 5997   1.252   4.514   5.113 -0.4325  2.8921 -1.4039
   16MOL   C268 5998   1.238   4.718   5.153 -0.2292 -0.1497  0.0702
   16MOL   C269 5999   1.218   4.823   5.265 -0.8095  0.2382  0.4325
   16MOL   C270 6000   1.153   4.789   5.387  0.4570  0.3062  0.3489
   16MOL   C271 6001   1.118   4.889   5.478 -0.6289  0.6585 -0.6556
   16MOL   C272 6002   1.149   5.022   5.455  0.4752  0.5997  0.3031
   16MOL   C273 6003   1.086   5.130   5.541 -0.5113 -0.1099 -0.0696
   16MOL   C274 6004   1.226   5.054   5.344  0.3819 -0.5349  0.0039
   16MOL   C275 6005   1.261   4.960   5.251 -0.5125  0.2733  0.5744
   16MOL   C276 6006   1.141   4.741   5.040  0.1114 -0.3753  0.0771
   16MOL   H277 6007   1.342   4.738   5.129 -0.9326  0.4554 -2.6359
   16MOL   H278 6008   1.123   4.690   5.419 -0.9397  0.7875  0.5579
   16MOL   H279 6009   1.067   4.866   5.570  1.0906  1.0360  0.4144
   16MOL   H280 6010   1.112   5.113   5.646 -1.4884  0.4101  0.2615
   16MOL   H281 6011   1.123   5.231   5.525  0.0569 -0.3580 -0.3810
   16MOL   H282 6012   0.978   5.122   5.532 -0.3789 -3.3890  0.5505
   16MOL   H283 6013   1.253   5.157   5.324 -2.4012  0.4996  1.4029
   16MOL   H284 6014   1.313   4.998   5.165  0.2026  0.9542  1.3070
   16MOL   H285 6015   1.142   4.651   4.978 -0.0466  0.7208 -1.5512
   16MOL   H286 6016   1.168   4.811   4.961 -1.3738 -1.9500 -1.8960
   16MOL   C287 6017   0.993   4.770   5.086 -0.6760  0.7807  0.5077
   16MOL   C288 6018   0.905   4.664   5.026  0.5936 -0.5006 -0.5492
   16MOL   C289 6019   0.853   4.687   4.900 -0.4896 -0.6080  0.2344
   16MOL   C290 6020   0.769   4.592   4.843  0.1971 -0.2180  0.3532
   16MOL   C291 6021   0.760   4.466   4.904  1.0007  0.1215 -0.2956
   16MOL   C292 6022   0.673   4.360   4.837 -1.3304  0.2311  0.1602
   16MOL   C293 6023   0.824   4.435   5.017  0.3247 -0.3162 -0.7924
   16MOL   C294 6024   0.897   4.533   5.086 -0.8120 -0.4907  0.5568
   16MOL   C295 6025   0.947   4.912   5.082  0.0241  0.2895  0.3327
   16MOL   H296 6026   0.979   4.746   5.191 -1.3814 -0.5103  0.1227
   16MOL   H297 6027   0.863   4.783   4.853 -2.1708 -0.5888 -0.1267
   16MOL   H298 6028   0.729   4.594   4.743  0.3687 -1.3719  0.2447
   16MOL   H299 6029   0.728   4.315   4.754  1.5877  0.9063  1.6637
   16MOL   H300 6030   0.663   4.276   4.905 -0.1038 -0.5995 -0.6640
   16MOL   H301 6031   0.578   4.410   4.817 -0.5775  1.0831 -1.4189
   16MOL   H302 6032   0.819   4.339   5.068 -0.2436  0.3325  0.4019
   16MOL   H303 6033   0.944   4.507   5.180  1.3932 -1.0247 -0.6609
   16MOL   H304 6034   0.959   4.933   4.976  0.8801 -3.0271 -0.2770
   16MOL   H305 6035   1.027   4.965   5.134  0.8424 -0.1827 -0.4238
   16MOL   C306 6036   0.799   4.941   5.135 -0.2735 -0.7261 -0.8294
   16MOL   C307 6037   0.761   5.085   5.100 -0.4349  0.7448  0.1122
   16MOL   C308 6038   0.846   5.192   5.126 -0.1427 -0.5340 -0.2189
   16MOL   C309 6039   0.821   5.315   5.069  0.1300  0.1015  0.4681
   16MOL   C310 6040   0.713   5.341   4.987 -0.3535 -0.0392  0.2411
   16MOL   C311 6041   0.689   5.481   4.930  0.0749  0.3714  0.4882
   16MOL   C312 6042   0.622   5.233   4.973 -0.2770  0.6480 -0.8269
   16MOL   C313 6043   0.644   5.105   5.022  0.0251 -0.5944 -0.2530
   16MOL   C314 6044   0.787   4.925   5.285 -0.2686 -0.0054  0.0259
   16MOL   H315 6045   0.741   4.869   5.078 -0.2121 -1.9186  0.5785
   16MOL   H316 6046   0.937   5.191   5.184 -0.0742  0.6444 -0.2967
   16MOL   H317 6047   0.889   5.398   5.087 -0.7490  0.8511  0.3911
   16MOL   H318 6048   0.782   5.536   4.941  0.6031 -0.4282  0.1136
   16MOL   H319 6049   0.643   5.477   4.831 -1.0599 -0.8158  1.0385
   16MOL   H320 6050   0.635   5.550   4.995  1.7675  1.0040  1.2296
   16MOL   H321 6051   0.529   5.255   4.922 -1.0425 -1.9356 -0.6727
   16MOL   H322 6052   0.568   5.029   5.010 -0.8058  0.1157  0.4396
   16MOL   H323 6053   0.870   4.975   5.333 -0.5619  0.0857  0.4401
   16MOL   H324 6054   0.810   4.821   5.306 -3.2386 -0.7301 -0.0832
   16MOL   C325 6055   0.663   4.985   5.352 -0.0362  0.0955  0.5278
   16MOL   C326 6056   0.688   5.012   5.502  0.5323  0.1309 -0.2614
   16MOL   C327 6057   0.738   4.913   5.588 -0.0688  0.1523 -0.2112
   16MOL   C328 6058   0.748   4.940   5.726  0.5293 -0.0172 -0.3434
   16MOL   C329 6059   0.720   5.066   5.780 -0.3261 -0.3483  0.7515
   16MOL   C330 6060   0.742   5.101   5.929 -0.8391  0.4000  0.2102
   16MOL   C331 6061   0.689   5.170   5.692  0.1811 -0.2138 -0.2990
   16MOL   C332 6062   0.671   5.138   5.553  0.0034 -0.2730 -0.1235
   16MOL   C333 6063   0.542   4.896   5.325 -0.1839  0.3603 -0.8633
   16MOL   H334 6064   0.636   5.077   5.301 -4.0334 -1.0153  0.4976
   16MOL   H335 6065   0.761   4.815   5.551 -1.4880  0.2531 -1.4139
   16MOL   H336 6066   0.789   4.856   5.780  0.0574 -0.4736 -0.6950
   16MOL   H337 6067   0.836   5.053   5.956  0.4943  0.6866 -3.6804
   16MOL   H338 6068   0.752   5.208   5.948  1.7123  0.2938 -0.3814
   16MOL   H339 6069   0.660   5.075   5.997 -1.8903  2.5180 -0.1908
   16MOL   H340 6070   0.673   5.275   5.711 -1.3896 -0.3789 -0.6331
   16MOL   H341 6071   0.632   5.218   5.492 -1.3592 -2.4892 -2.2713
   16MOL   H342 6072   0.570   4.795   5.355  0.3520  1.0106  0.8932
   16MOL   H343 6073   0.534   4.892   5.216  4.5381  0.5202 -1.3009
   16MOL   C344 6074   0.409   4.942   5.385 -0.3014 -0.3018 -0.2074
   16MOL   C345 6075   0.316   4.825   5.353  0.9222 -0.5749  0.0736
   16MOL   C346 6076   0.314   4.714   5.440  0.2321  0.1080 -0.0221
   16MOL   C347 6077   0.212   4.616   5.426  0.1798 -0.1748 -0.4292
   16MOL   C348 6078   0.123   4.623   5.316 -0.8428 -0.0197  1.4567
   16MOL   C349 6079   0.020   4.509   5.288  0.1885  0.0269 -0.0583
   16MOL   C350 6080   0.139   4.722   5.215 -0.1931  0.3753 -0.1374
   16MOL   C351 6081   0.236   4.823   5.234 -0.5803  0.3159 -0.3998
   16MOL   C352 6082   0.367   5.083   5.330  0.1336  0.1618 -0.3188
   16MOL   H353 6083   0.422   4.949   5.493 -0.1272  0.3909 -0.2738
   16MOL   H354 6084   0.381   4.711   5.524  0.1400 -0.6956  0.0222
   16MOL   H355 6085   0.211   4.527   5.487 -1.9808 -1.4338 -2.2505
   16MOL   H356 6086   0.061   4.427   5.348 -0.3777  0.9003  1.5789
   16MOL   H357 6087   8.002   4.523   5.334 -0.6280 -0.8351 -1.4910
   16MOL   H358 6088   8.064   4.477   5.191  1.8342 -0.7389 -0.4270
   16MOL   H359 6089   0.082   4.721   5.124 -1.8704  2.0078  0.8715
   16MOL   H360 6090   0.244   4.887   5.147  1.4352  0.4756 -0.1145
   16MOL   H361 6091   0.346   5.095   5.224 -0.1672 -0.3739 -0.3191
   16MOL   H362 6092   0.444   5.157   5.353  3.2653 -3.2760  0.8520
   16MOL   C363 6093   0.241   5.140   5.387 -0.2185 -0.0455  0.1061
   16MOL   C364 6094   0.203   5.265   5.307 -0.3116 -0.4967  0.6157
   16MOL   C365 6095   0.289   5.376   5.287  0.0268  0.3815  0.4291
   16MOL   C366 6096   0.238   5.498   5.229  0.0091  1.0852 -0.4025
   16MOL   C367 6097   0.101   5.506   5.186  0.0869  0.7393 -0.0498
   16MOL   C368 6098   0.040   5.640   5.147  0.3474 -0.2344  1.0033
   16MOL   C369 6099   0.018   5.387   5.200 -0.2842 -0.3181  0.2163
   16MOL   C370 6100   0.073   5.267   5.255  0.6381  0.0285 -0.1037
   16MOL   C371 6101   0.260   5.187   5.537  0.3250 -0.4589 -0.3741
   16MOL   H372 6102   0.157   5.071   5.381  1.0462 -1.8219  2.0856
   16MOL   H373 6103   0.389   5.365   5.328 -0.4327  0.1212  1.5041
   16MOL   H374 6104   0.310   5.575   5.209  1.3699 -0.4362 -1.5506
   16MOL   H375 6105   8.053   5.682   5.223 -1.2897 -1.9586  0.5588
   16MOL   H376 6106   0.116   5.711   5.113 -1.9843  1.0039 -1.8518
   16MOL   H377 6107   8.053   5.620   5.064  0.5872 -0.7255  0.9301
   16MOL   H378 6108   7.996   5.393   5.167 -0.2315  1.1258  0.2789
   16MOL   H379 6109   0.003   5.187   5.274  0.4834  0.5424  1.4867
   16MOL   H380 6110   0.160   5.210   5.572  0.6543  0.3995  0.0247
   16MOL   H381 6111   0.329   5.270   5.552  0.5512 -0.3050 -2.1288
   16MOL   H382 6112   0.294   5.105   5.602  0.1770 -0.4924 -0.3400
   17MOL     C1 6113   2.424   2.438   0.142 -0.0001 -1.0169  0.1077
   17MOL     C2 6114   2.501   2.325   0.075 -0.3500 -0.6594  0.1269
   17MOL     C3 6115   2.592   2.351   8.052 -0.0220 -0.2348 -0.0774
   17MOL     C4 6116   2.657   2.245   7.990 -0.0224 -0.3026 -0.2769
   17MOL     C5 6117   2.632   2.111   8.023 -0.0121  0.1967  0.2580
   17MOL     C6 6118   2.689   2.001   7.939 -0.2507  0.6172 -0.0523
   17MOL     C7 6119   2.541   2.090   0.047  0.6824 -0.0966  0.9272
   17MOL     C8 6120   2.476   2.192   0.117  0.0837  0.0536  0.2067
   17MOL     C9 6121   2.520   2.532   0.226 -0.4964 -0.0282  0.1475
   17MOL    H10 6122   2.364   2.497   0.072  2.5545 -1.6569 -2.7146
   17MOL    H11 6123   2.621   2.450   8.021 -0.5459 -0.5307 -1.5418
   17MOL    H12 6124   2.731   2.260   7.913 -0.7662  0.3581 -0.8729
   17MOL    H13 6125   2.625   1.913   7.930 -1.5160  1.5935 -0.8621
   17MOL    H14 6126   2.715   2.033   7.838 -1.8416  2.3064  0.0393
   17MOL    H15 6127   2.782   1.958   7.975  0.1245 -0.1529 -1.8809
   17MOL    H16 6128   2.522   1.985   0.068 -1.5493 -0.2703 -1.6481
   17MOL    H17 6129   2.413   2.162   0.200 -0.7154 -0.4527 -0.5675
   17MOL    H18 6130   2.604   2.574   0.170 -0.8818  0.6741  0.0904
   17MOL    H19 6131   2.575   2.474   0.300 -2.3947 -1.1805  0.6698
   17MOL    H20 6132   2.366   2.384   0.216  1.4451  0.9105  2.7405
   17MOL    C21 6133   2.447   2.651   0.290  0.4785  0.0228  0.5168
   17MOL    C22 6134   2.385   2.749   0.186 -1.0351 -0.3461  0.0070
   17MOL    C23 6135   2.252   2.740   0.149 -0.4401  0.2590 -0.1500
   17MOL    C24 6136   2.193   2.821   0.051 -0.0204 -0.2486 -0.7236
   17MOL    C25 6137   2.273   2.925   8.076 -0.0005  0.2576  0.0129
   17MOL    C26 6138   2.218   3.016   7.972 -0.2632 -0.4187 -0.2029
   17MOL    C27 6139   2.401   2.949   0.043 -0.0820 -0.0533  0.6196
   17MOL    C28 6140   2.460   2.859   0.136 -0.1361 -0.0121 -0.6165
   17MOL    C29 6141   2.535   2.714   0.397  0.0991 -0.6704 -0.0745
   17MOL    H30 6142   2.365   2.602   0.343  0.5841 -0.2253  0.4551
   17MOL    H31 6143   2.189   2.670   0.203  1.4836 -0.1822  1.5876
   17MOL    H32 6144   2.091   2.799   0.024  0.4825 -1.5286 -1.5968
   17MOL    H33 6145   2.292   2.998   7.895 -0.7993  0.6069 -0.9614
   17MOL    H34 6146   2.117   2.995   7.935 -0.9397 -0.9154  1.8370
   17MOL    H35 6147   2.228   3.122   7.995  2.6020 -0.7210  0.1204
   17MOL    H36 6148   2.461   3.031   0.007 -0.8442 -0.3361 -1.3262
   17MOL    H37 6149   2.557   2.878   0.179 -0.5358  1.1156 -0.1808
   17MOL    H38 6150   2.631   2.741   0.352 -0.3579 -1.4130 -1.5387
   17MOL    H39 6151   2.569   2.640   0.470  0.9911 -0.0459  0.1494
   17MOL    C40 6152   2.481   2.852   0.463 -0.2168  0.0349 -1.0916
   17MOL    C41 6153   2.600   2.938   0.507 -0.0950  0.5740 -0.3196
   17MOL    C42 6154   2.711   2.888   0.574  0.1373  0.3976  0.1614
   17MOL    C43 6155   2.813   2.982   0.620  0.1368  0.2703  0.2155
   17MOL    C44 6156   2.807   3.121   0.595 -0.1056  0.3241 -0.3513
   17MOL    C45 6157   2.909   3.220   0.641 -0.1653  0.4700 -0.0816
   17MOL    C46 6158   2.689   3.163   0.531  0.3851  0.3460 -0.1701
   17MOL    C47 6159   2.595   3.077   0.479 -0.0861  0.1128 -0.3406
   17MOL    C48 6160   2.378   2.840   0.586  0.0520  0.3707  0.0499
   17MOL    H49 6161   2.430   2.913   0.388 -1.9565 -0.6049 -0.4474
   17MOL    H50 6162   2.723   2.784   0.600  1.4140  0.6945  0.7853
   17MOL    H51 6163   2.895   2.936   0.672  1.8181  2.5645 -0.3088
   17MOL    H52 6164   2.886   3.236   0.747 -0.0652  3.8240 -0.5224
   17MOL    H53 6165   3.014   3.193   0.627 -0.5154 -0.4603 -0.8926
   17MOL    H54 6166   2.890   3.315   0.591  0.0620  1.6989  2.0496
   17MOL    H55 6167   2.682   3.264   0.493 -1.6111 -0.1196 -1.1226
   17MOL    H56 6168   2.502   3.120   0.447 -0.4858 -0.5946 -0.1433
   17MOL    H57 6169   2.402   2.922   0.653 -1.1090 -0.3842  1.4011
   17MOL    H58 6170   2.403   2.754   0.648  0.6618  2.4453  2.7823
   17MOL    C59 6171   2.224   2.856   0.554 -0.1406  0.5099 -0.1517
   17MOL    C60 6172   2.185   2.964   0.455  0.5972  1.2149 -0.2723
   17MOL    C61 6173   2.090   2.941   0.355  0.3191  0.0864  0.4745
   17MOL    C62 6174   2.053   3.039   0.257  0.4574 -0.0305 -0.4775
   17MOL    C63 6175   2.111   3.170   0.277  0.7800 -0.1934 -0.3158
   17MOL    C64 6176   2.075   3.287   0.188 -0.4372  0.6924 -0.0296
   17MOL    C65 6177   2.199   3.194   0.384 -0.3704 -0.2365  0.0984
   17MOL    C66 6178   2.236   3.093   0.472  0.4843  0.4702 -0.0596
   17MOL    C67 6179   2.154   2.882   0.692 -0.2239  0.1205 -0.0605
   17MOL    H68 6180   2.181   2.763   0.517  0.1524 -0.4648  1.8633
   17MOL    H69 6181   2.050   2.842   0.342 -0.1259  0.3244  0.0361
   17MOL    H70 6182   1.987   3.022   0.173  0.9803  0.8367 -1.0626
   17MOL    H71 6183   1.975   3.279   0.146 -0.4102 -1.2608  0.2189
   17MOL    H72 6184   2.079   3.377   0.250 -1.0323  0.6664  0.0424
   17MOL    H73 6185   2.146   3.296   0.106  0.4032  0.4427  0.6578
   17MOL    H74 6186   2.239   3.291   0.411 -1.6758  0.1144  0.8337
   17MOL    H75 6187   2.302   3.124   0.552  0.1313  2.6472 -0.5947
   17MOL    H76 6188   2.174   2.983   0.728 -1.8637  0.9664 -1.4458
   17MOL    H77 6189   2.194   2.821   0.772  0.0291 -1.8295 -1.6318
   17MOL    C78 6190   1.996   2.865   0.692 -0.3907 -0.5753  0.2172
   17MOL    C79 6191   1.923   2.948   0.793 -0.1807  1.3358 -0.0133
   17MOL    C80 6192   1.948   2.949   0.932 -0.0377  0.4066 -0.2192
   17MOL    C81 6193   1.886   3.032   1.021  0.0025  0.1180  0.6386
   17MOL    C82 6194   1.778   3.115   0.974 -0.7596  0.7384  0.9284
   17MOL    C83 6195   1.711   3.213   1.069 -0.1844 -0.5610 -0.1363
   17MOL    C84 6196   1.744   3.119   0.837 -0.1037 -0.0483 -0.0003
   17MOL    C85 6197   1.811   3.029   0.752 -0.2481  0.4769 -0.2131
   17MOL    C86 6198   1.943   2.723   0.702  0.5240 -0.6186  0.3954
   17MOL    H87 6199   1.958   2.912   0.601  0.8407  0.1613  0.0843
   17MOL    H88 6200   2.019   2.879   0.974 -1.5487 -2.4695 -2.2488
   17MOL    H89 6201   1.914   3.035   1.125  2.4379  0.2280  0.0032
   17MOL    H90 6202   1.621   3.262   1.032 -0.5118 -0.6557  0.5435
   17MOL    H91 6203   1.689   3.164   1.163 -1.0048  1.8477  0.9665
   17MOL    H92 6204   1.779   3.297   1.082  0.2144 -1.1545  1.6470
   17MOL    H93 6205   1.659   3.182   0.813 -1.2037 -1.0627  1.1887
   17MOL    H94 6206   1.787   3.031   0.646 -1.2809  0.8100  0.0231
   17MOL    H95 6207   1.941   2.689   0.598  0.8485  1.7956 -0.4323
   17MOL    H96 6208   1.838   2.726   0.733  0.0981  1.4477 -1.0970
   17MOL    C97 6209   2.012   2.620   0.799  0.2638  0.8124  0.1715
   17MOL    C98 6210   2.125   2.544   0.722  0.2203 -0.1135 -0.2070
   17MOL    C99 6211   2.260   2.549   0.771  0.1932 -0.5578  0.7051
   17MOL   C100 6212   2.364   2.489   0.697 -0.7708 -0.2724  0.2920
   17MOL   C101 6213   2.333   2.412   0.579 -0.2275 -1.5873  0.2177
   17MOL   C102 6214   2.432   2.330   0.503  0.0629  0.0968 -0.2804
   17MOL   C103 6215   2.197   2.406   0.539  0.0185 -0.2892  0.1033
   17MOL   C104 6216   2.094   2.473   0.602  0.6556  0.7481  0.0614
   17MOL   C105 6217   1.918   2.513   0.860  0.5747  0.0027  0.3808
   17MOL   H106 6218   2.061   2.662   0.887 -1.0346 -0.9951  1.7912
   17MOL   H107 6219   2.280   2.589   0.870 -3.0843 -0.0268  1.2141
   17MOL   H108 6220   2.466   2.496   0.729  0.4501 -0.4204 -3.3170
   17MOL   H109 6221   2.524   2.388   0.492  0.1760  0.3419  1.8398
   17MOL   H110 6222   2.468   2.251   0.570  1.4217  0.9003 -0.0425
   17MOL   H111 6223   2.395   2.291   0.408  2.0643  0.2983 -1.1665
   17MOL   H112 6224   2.169   2.349   0.451  0.8495  1.3691 -1.2576
   17MOL   H113 6225   1.994   2.472   0.561  0.7882  1.2734 -0.2876
   17MOL   H114 6226   1.973   2.423   0.884  0.4668 -0.1485  0.0633
   17MOL   H115 6227   1.854   2.479   0.779  0.6736 -0.0542  0.3270
   17MOL   C116 6228   1.839   2.565   0.982 -0.3488 -0.6388  1.0246
   17MOL   C117 6229   1.936   2.588   1.098  0.0982 -0.2434 -0.7283
   17MOL   C118 6230   1.929   2.705   1.179  0.6415  0.2179  0.3213
   17MOL   C119 6231   2.007   2.717   1.293 -0.2184  0.7008 -0.0945
   17MOL   C120 6232   2.100   2.615   1.332  0.3327 -0.3290  0.6011
   17MOL   C121 6233   2.183   2.635   1.448 -0.0872 -0.3779  0.3371
   17MOL   C122 6234   2.098   2.496   1.262  0.0488 -0.4082 -0.3425
   17MOL   C123 6235   2.021   2.486   1.142 -0.2919 -0.5156  1.0732
   17MOL   C124 6236   1.732   2.465   1.030 -0.6346  0.2492 -0.4097
   17MOL   H125 6237   1.799   2.661   0.949  0.6016 -0.7161 -0.4301
   17MOL   H126 6238   1.865   2.787   1.151 -0.7457 -1.0427 -0.3080
   17MOL   H127 6239   1.998   2.799   1.363  0.9351  1.3018 -0.6295
   17MOL   H128 6240   2.179   2.536   1.494  1.4058 -0.5621  0.0643
   17MOL   H129 6241   2.281   2.671   1.418 -1.8733  4.7087  0.0893
   17MOL   H130 6242   2.154   2.716   1.516  1.8941 -0.8121  1.7262
   17MOL   H131 6243   2.153   2.411   1.299  0.3052 -0.5353 -1.0188
   17MOL   H132 6244   2.018   2.387   1.098 -2.8250 -0.6773  1.5777
   17MOL   H133 6245   1.741   2.462   1.139 -0.3709 -0.4129 -0.4511
   17MOL   H134 6246   1.772   2.365   1.019 -1.2062 -0.2764  1.9354
   17MOL   C135 6247   1.583   2.475   0.984  0.5022 -0.0106  0.4415
   17MOL   C136 6248   1.559   2.445   0.840 -0.2577  0.3881  0.2886
   17MOL   C137 6249   1.593   2.528   0.737 -0.0305  0.4125  0.6633
   17MOL   C138 6250   1.556   2.503   0.607  0.4798  0.2238 -0.8792
   17MOL   C139 6251   1.485   2.383   0.580 -0.4015 -0.3059  0.7252
   17MOL   C140 6252   1.441   2.353   0.442  0.1556  0.1957  0.3904
   17MOL   C141 6253   1.471   2.278   0.680  0.4127  0.3462 -0.4517
   17MOL   C142 6254   1.511   2.313   0.810 -0.3210  0.7943 -0.1527
   17MOL   C143 6255   1.523   2.608   1.025  0.2071  0.0234  0.1293
   17MOL   H144 6256   1.524   2.403   1.040 -2.4835  1.8441 -0.1836
   17MOL   H145 6257   1.649   2.615   0.765  1.0203  1.2537 -3.6529
   17MOL   H146 6258   1.580   2.579   0.534 -2.7454  2.2309  0.0417
   17MOL   H147 6259   1.368   2.273   0.436  0.4580  0.0360 -1.6832
   17MOL   H148 6260   1.391   2.442   0.404  0.6581  0.9750  1.5176
   17MOL   H149 6261   1.532   2.328   0.388 -0.0214  0.4411 -0.0266
   17MOL   H150 6262   1.433   2.179   0.662  0.0534  0.0783  1.6939
   17MOL   H151 6263   1.495   2.240   0.888 -1.3544 -0.5752 -1.6056
   17MOL   H152 6264   1.549   2.689   0.957  2.6369  0.0636  1.0346
   17MOL   H153 6265   1.572   2.646   1.115  0.5263  0.6652 -0.3080
   17MOL   C154 6266   1.369   2.596   1.049  0.4834 -0.1373  0.5728
   17MOL   C155 6267   1.286   2.721   1.017 -0.3343  1.0577 -0.4531
   17MOL   C156 6268   1.160   2.700   0.957  0.9181  0.1535 -0.6938
   17MOL   C157 6269   1.086   2.812   0.911  0.1632  0.2995 -0.4206
   17MOL   C158 6270   1.137   2.939   0.930  0.1808  0.0095 -0.2311
   17MOL   C159 6271   1.061   3.053   0.873  0.0445 -0.5345 -0.5372
   17MOL   C160 6272   1.260   2.957   0.995 -0.1933 -0.2812  0.0840
   17MOL   C161 6273   1.344   2.845   1.031 -0.5939 -0.2689  0.1757
   17MOL   C162 6274   1.347   2.554   1.195  0.1457 -0.4877 -0.1600
   17MOL   H163 6275   1.335   2.516   0.983  1.6798  1.0237 -1.4810
   17MOL   H164 6276   1.121   2.610   0.911  0.9744  0.8834 -2.2166
   17MOL   H165 6277   0.994   2.789   0.860 -0.4417 -2.3933  1.7866
   17MOL   H166 6278   0.959   3.032   0.839 -0.2331  2.0381 -1.3672
   17MOL   H167 6279   1.050   3.135   0.943 -2.2306 -1.0919 -0.1776
   17MOL   H168 6280   1.115   3.092   0.787 -0.1732 -0.2208 -0.5307
   17MOL   H169 6281   1.311   3.052   0.994 -2.2303  0.8525 -3.2963
   17MOL   H170 6282   1.443   2.850   1.074  0.0538 -0.7458 -1.2440
   17MOL   H171 6283   1.353   2.645   1.255 -1.0331  0.5046 -1.5178
   17MOL   H172 6284   1.435   2.497   1.226  1.4442  1.4595 -0.1177
   17MOL   C173 6285   1.224   2.455   1.222  0.3512 -0.0924  0.1196
   17MOL   C174 6286   1.200   2.444   1.372 -0.1530  0.4702  0.3779
   17MOL   C175 6287   1.289   2.381   1.459  0.5078  0.2037 -0.3495
   17MOL   C176 6288   1.265   2.380   1.598  0.4953  0.5271 -0.4341
   17MOL   C177 6289   1.151   2.442   1.655 -0.8162 -0.4163  0.1324
   17MOL   C178 6290   1.124   2.450   1.802  0.2491  0.1348 -0.2349
   17MOL   C179 6291   1.062   2.505   1.567  0.3304  0.7276 -0.1610
   17MOL   C180 6292   1.082   2.498   1.427  0.3552 -0.4266 -0.0437
   17MOL   C181 6293   1.233   2.319   1.152  0.3034  0.0455  0.1202
   17MOL   H182 6294   1.138   2.506   1.178  0.6243 -1.6452 -2.2894
   17MOL   H183 6295   1.370   2.326   1.413 -1.1304 -1.3773 -1.4061
   17MOL   H184 6296   1.333   2.330   1.665 -1.2880  0.7688  1.6036
   17MOL   H185 6297   1.204   2.414   1.867 -0.3373 -1.9331 -0.6213
   17MOL   H186 6298   1.115   2.553   1.838 -0.0638  0.1357 -0.3205
   17MOL   H187 6299   1.036   2.394   1.833  0.6403 -0.3545 -0.0097
   17MOL   H188 6300   0.983   2.557   1.619 -0.0970  0.6150 -0.6896
   17MOL   H189 6301   1.008   2.546   1.366  0.0768 -0.5702  0.1811
   17MOL   H190 6302   1.282   2.244   1.213  1.0389 -1.8761 -2.7511
   17MOL   H191 6303   1.294   2.331   1.063  0.7150  2.7627  0.7373
   17MOL   C192 6304   1.099   2.245   1.111 -0.0728 -0.4029 -0.2128
   17MOL   C193 6305   1.146   2.121   1.033  0.0293 -0.0384 -0.3188
   17MOL   C194 6306   1.124   1.999   1.096  0.1309  0.0327 -0.8857
   17MOL   C195 6307   1.145   1.881   1.022 -0.6030  0.1220 -0.8337
   17MOL   C196 6308   1.185   1.889   0.888 -1.0385 -0.3042  0.1904
   17MOL   C197 6309   1.187   1.762   0.808 -0.1428  0.2538 -0.0133
   17MOL   C198 6310   1.214   2.011   0.822 -0.3840 -0.7439 -0.1614
   17MOL   C199 6311   1.198   2.129   0.902 -0.1286  0.8102 -0.5623
   17MOL   C200 6312   0.998   2.336   1.033  0.7397 -0.0689 -0.4341
   17MOL   H201 6313   1.047   2.208   1.199  0.3193 -1.4543 -0.4193
   17MOL   H202 6314   1.086   2.008   1.197  1.5038 -1.1218 -0.2430
   17MOL   H203 6315   1.121   1.792   1.078  1.8573  0.0490  0.1554
   17MOL   H204 6316   1.097   1.756   0.747  0.1319  1.6633 -0.5804
   17MOL   H205 6317   1.277   1.752   0.749  0.0952 -0.2420  0.4375
   17MOL   H206 6318   1.195   1.676   0.875 -0.0058  0.9587  0.8945
   17MOL   H207 6319   1.249   2.008   0.720  0.5704 -1.1969  0.1764
   17MOL   H208 6320   1.216   2.224   0.852  1.4629  1.1980  0.7300
   17MOL   H209 6321   1.062   2.393   0.966  1.0520 -0.3224 -0.3548
   17MOL   H210 6322   0.958   2.408   1.104 -0.0300 -1.1068  0.1999
   17MOL   C211 6323   0.879   2.270   0.951 -0.2613 -0.5813  0.2990
   17MOL   C212 6324   0.807   2.367   0.864 -0.5879 -0.5418 -0.4867
   17MOL   C213 6325   0.806   2.352   0.721 -0.3122 -0.1269  0.4802
   17MOL   C214 6326   0.782   2.455   0.638 -0.1875 -0.3360 -0.5703
   17MOL   C215 6327   0.739   2.575   0.690  0.0202  0.3708 -1.0014
   17MOL   C216 6328   0.687   2.680   0.595 -0.6357  0.3301 -0.1493
   17MOL   C217 6329   0.726   2.597   0.829  0.6100  0.6432  0.2382
   17MOL   C218 6330   0.755   2.492   0.918  0.0615 -0.0985  0.2675
   17MOL   C219 6331   0.783   2.200   1.055 -0.3172 -0.5405 -0.1411
   17MOL   H220 6332   0.918   2.193   0.885 -1.0042  0.4301 -1.3701
   17MOL   H221 6333   0.825   2.253   0.683 -1.9853 -0.0911 -0.4946
   17MOL   H222 6334   0.770   2.434   0.532 -0.9579 -1.1233 -0.3266
   17MOL   H223 6335   0.596   2.727   0.632 -0.3644  0.4036  0.4433
   17MOL   H224 6336   0.765   2.754   0.575 -0.0257 -0.5357 -1.0056
   17MOL   H225 6337   0.651   2.639   0.501  1.7832 -2.0562 -0.0925
   17MOL   H226 6338   0.688   2.691   0.865  0.9218  0.5649  0.7829
   17MOL   H227 6339   0.745   2.484   1.026 -3.0905  2.1336  0.2092
   17MOL   H228 6340   0.687   2.251   1.050 -0.6486 -1.0902  0.5471
   17MOL   H229 6341   0.819   2.212   1.157 -0.5211  0.1215 -0.1462
   17MOL   C230 6342   0.773   2.041   1.036  0.0343 -1.0093 -0.1348
   17MOL   C231 6343   0.749   1.997   0.890  0.4874  0.3640  0.3796
   17MOL   C232 6344   0.851   1.931   0.819 -0.1397  0.5790  0.3137
   17MOL   C233 6345   0.840   1.914   0.684 -0.7210 -0.1805 -0.3604
   17MOL   C234 6346   0.724   1.955   0.613  0.7040 -0.0035  0.6928
   17MOL   C235 6347   0.711   1.919   0.468  0.2135 -0.3834  0.1805
   17MOL   C236 6348   0.622   2.022   0.685 -0.1688 -0.5821  0.1528
   17MOL   C237 6349   0.634   2.035   0.823  0.2456  0.7241  0.0706
   17MOL   C238 6350   0.662   1.984   1.134  0.2896 -0.3968  0.3584
   17MOL   H239 6351   0.869   1.996   1.060  0.1752 -1.9895 -2.4233
   17MOL   H240 6352   0.944   1.902   0.865  1.2614  2.9229 -0.9604
   17MOL   H241 6353   0.922   1.862   0.637  0.7865  1.5953  0.2541
   17MOL   H242 6354   0.811   1.917   0.425  0.3575 -1.8124  0.5427
   17MOL   H243 6355   0.672   1.817   0.464  0.2420 -0.3416 -1.8050
   17MOL   H244 6356   0.647   1.982   0.407 -1.4761 -1.1095  1.1672
   17MOL   H245 6357   0.527   2.050   0.644  0.8580  0.2959 -1.6850
   17MOL   H246 6358   0.551   2.081   0.874  1.0831  0.2536  1.8803
   17MOL   H247 6359   0.565   2.033   1.125  0.3653 -0.4027 -0.4561
   17MOL   H248 6360   0.697   2.008   1.235  1.3155 -1.9043  0.3804
   17MOL   C249 6361   0.633   1.833   1.116 -0.0847  0.0890 -0.4339
   17MOL   C250 6362   0.510   1.794   1.200  0.0231  0.5481  0.3879
   17MOL   C251 6363   0.389   1.778   1.131 -0.3424  0.3703 -0.4531
   17MOL   C252 6364   0.272   1.733   1.192 -0.5347  0.6095  0.3337
   17MOL   C253 6365   0.271   1.707   1.329  0.5543 -0.0244 -0.0582
   17MOL   C254 6366   0.149   1.640   1.390  0.2623  0.0351  0.1129
   17MOL   C255 6367   0.391   1.729   1.401 -0.2988  0.5456 -0.2607
   17MOL   C256 6368   0.511   1.775   1.335 -0.2387  0.2561  0.1079
   17MOL   C257 6369   0.761   1.750   1.146 -0.3938 -0.2818  0.2017
   17MOL   H258 6370   0.610   1.815   1.011  0.7023 -0.7183 -0.4720
   17MOL   H259 6371   0.386   1.789   1.024  0.8479  0.3219 -0.5060
   17MOL   H260 6372   0.190   1.712   1.125  1.0505  0.3549 -1.5818
   17MOL   H261 6373   0.102   1.582   1.310 -0.4004  1.5024 -0.5769
   17MOL   H262 6374   0.186   1.569   1.464  0.2751 -0.2180 -0.1322
   17MOL   H263 6375   0.077   1.715   1.423 -0.4969 -0.8884  0.6003
   17MOL   H264 6376   0.397   1.689   1.501  1.2770 -1.2696 -1.0246
   17MOL   H265 6377   0.597   1.789   1.398 -1.7636  0.0118  2.3123
   17MOL   H266 6378   0.810   1.784   1.237 -0.8158 -0.5965  0.5444
   17MOL   H267 6379   0.841   1.768   1.073 -0.1001  1.1340  0.8599
   17MOL   C268 6380   0.742   1.599   1.168 -0.4501  0.5298  0.4724
   17MOL   C269 6381   0.876   1.538   1.210 -0.1282  0.0409  0.1502
   17MOL   C270 6382   0.886   1.475   1.340  0.3086 -0.5247 -0.7450
   17MOL   C271 6383   1.010   1.426   1.385 -0.0545  0.4208  0.4847
   17MOL   C272 6384   1.129   1.441   1.309 -0.4540 -0.6207  0.3447
   17MOL   C273 6385   1.260   1.398   1.368 -0.4788 -0.2966 -0.2413
   17MOL   C274 6386   1.120   1.505   1.179  0.3139  0.7401 -0.2658
   17MOL   C275 6387   0.997   1.546   1.129  0.0745  0.6776  0.4848
   17MOL   C276 6388   0.700   1.531   1.032 -0.2445 -0.7512 -0.0273
   17MOL   H277 6389   0.672   1.573   1.247 -0.6438  1.9877  0.7827
   17MOL   H278 6390   0.799   1.463   1.402  1.0673 -1.2000  0.2096
   17MOL   H279 6391   1.016   1.387   1.485 -0.7088 -1.4955 -0.1867
   17MOL   H280 6392   1.298   1.345   1.280  1.0396 -1.4191  1.0678
   17MOL   H281 6393   1.319   1.488   1.386 -0.6451 -0.4922  1.2961
   17MOL   H282 6394   1.255   1.344   1.462  0.2131  0.3516  0.1734
   17MOL   H283 6395   1.205   1.503   1.112 -0.0902  1.2664 -0.7869
   17MOL   H284 6396   0.980   1.583   1.029 -1.5388  0.0171  0.5022
   17MOL   H285 6397   0.782   1.541   0.961 -0.1065  1.8482  0.4363
   17MOL   H286 6398   0.617   1.592   0.994 -0.7034 -1.0116  0.5553
   17MOL   C287 6399   0.650   1.385   1.036 -0.6167  0.5015 -0.4515
   17MOL   C288 6400   0.570   1.338   1.162  0.8677 -0.8885  0.8590
   17MOL   C289 6401   0.633   1.284   1.277  0.1429 -0.5831 -0.1016
   17MOL   C290 6402   0.569   1.261   1.397  0.7936 -0.3811  1.0446
   17MOL   C291 6403   0.426   1.270   1.394 -0.0072  0.1940  0.0727
   17MOL   C292 6404   0.340   1.225   1.513  0.1247  0.0560  0.1955
   17MOL   C293 6405   0.352   1.318   1.280  0.2448  0.7531  0.2028
   17MOL   C294 6406   0.426   1.349   1.165 -0.1574  0.1190  0.7121
   17MOL   C295 6407   0.760   1.285   1.000 -0.5443 -0.7540  0.8713
   17MOL   H296 6408   0.581   1.381   0.951  0.0739  0.9622 -1.0366
   17MOL   H297 6409   0.739   1.263   1.274  0.2574 -0.0458  0.2578
   17MOL   H298 6410   0.631   1.229   1.479  2.4576 -1.4732 -0.6086
   17MOL   H299 6411   0.282   1.312   1.544  1.1650  1.8303 -2.6305
   17MOL   H300 6412   0.288   1.132   1.489 -0.8065 -0.1713  3.0133
   17MOL   H301 6413   0.408   1.196   1.593  2.7871  0.8471 -1.7111
   17MOL   H302 6414   0.244   1.320   1.281  0.1699 -1.4725  1.6334
   17MOL   H303 6415   0.380   1.398   1.080 -0.6698  0.2983  1.0893
   17MOL   H304 6416   0.845   1.270   1.066 -0.5283 -1.6017  0.6719
   17MOL   H305 6417   0.806   1.329   0.912 -0.8171  0.1087  1.1567
   17MOL   C306 6418   0.715   1.149   0.953 -0.3612  0.0654 -0.1373
   17MOL   C307 6419   0.818   1.045   0.951  0.3977 -0.3132  0.1097
   17MOL   C308 6420   0.930   1.049   0.868 -0.1578 -0.4118  0.3069
   17MOL   C309 6421   1.022   0.944   0.870 -0.3170 -0.3494  0.3884
   17MOL   C310 6422   1.008   0.836   0.955  0.1205 -0.5745 -0.9328
   17MOL   C311 6423   1.114   0.723   0.952  0.3457  0.2949 -0.3279
   17MOL   C312 6424   0.894   0.829   1.038  0.0659 -0.2602 -1.1257
   17MOL   C313 6425   0.805   0.935   1.040 -0.5451  0.0761 -0.1678
   17MOL   C314 6426   0.632   1.146   0.815  0.1526  0.5984 -0.0604
   17MOL   H315 6427   0.645   1.110   1.027  1.9009 -0.6230  1.6908
   17MOL   H316 6428   0.951   1.129   0.797  2.1216  0.1637  1.5892
   17MOL   H317 6429   1.105   0.940   0.802 -0.6627 -2.8375  0.0775
   17MOL   H318 6430   1.134   0.697   0.848  0.3425  1.3694 -0.5935
   17MOL   H319 6431   1.212   0.740   0.996  0.4079 -2.9238  0.9837
   17MOL   H320 6432   1.080   0.628   0.994  2.0583  0.4757  1.5289
   17MOL   H321 6433   0.879   0.748   1.108  1.5813  0.3556 -0.0527
   17MOL   H322 6434   0.721   0.940   1.109 -2.0098  1.1423 -1.9897
   17MOL   H323 6435   0.695   1.183   0.734 -1.5812 -0.7709 -2.0642
   17MOL   H324 6436   0.538   1.201   0.805 -1.0190 -1.0963  1.3377
   17MOL   C325 6437   0.585   0.999   0.783  0.3744 -0.4718  0.0791
   17MOL   C326 6438   0.552   1.001   0.639 -0.6257 -0.4146  0.0829
   17MOL   C327 6439   0.441   1.071   0.583 -0.2630  0.2352  0.7079
   17MOL   C328 6440   0.405   1.068   0.442  0.2548 -0.5210 -0.1951
   17MOL   C329 6441   0.497   1.008   0.360 -1.1246 -0.4523  0.1761
   17MOL   C330 6442   0.473   1.013   0.209  0.1223  0.3078 -0.1519
   17MOL   C331 6443   0.606   0.940   0.410  0.4120  0.2927  0.1871
   17MOL   C332 6444   0.626   0.929   0.552 -0.8960  0.2867  0.3042
   17MOL   C333 6445   0.472   0.934   0.868 -0.5630 -0.1109 -0.6601
   17MOL   H334 6446   0.667   0.927   0.790  0.6694 -0.5718 -3.6763
   17MOL   H335 6447   0.357   1.107   0.640 -1.7355 -1.8505 -0.0772
   17MOL   H336 6448   0.319   1.114   0.395  0.0765 -0.9793 -0.3210
   17MOL   H337 6449   0.386   1.073   0.182 -0.7431 -0.4974  0.8507
   17MOL   H338 6450   0.567   1.045   0.162  1.2454 -3.3259 -0.5452
   17MOL   H339 6451   0.445   0.913   0.178  0.1898 -0.4422  2.1846
   17MOL   H340 6452   0.678   0.893   0.344 -1.0005  0.1198 -1.2662
   17MOL   H341 6453   0.709   0.872   0.592 -2.0383 -0.5097  1.5778
   17MOL   H342 6454   0.379   0.985   0.844 -0.6585  0.8527  1.6769
   17MOL   H343 6455   0.465   0.951   0.975  1.2673 -1.2803 -0.3404
   17MOL   C344 6456   0.464   0.783   0.836  0.2970 -0.1561 -0.1100
   17MOL   C345 6457   0.321   0.735   0.819 -0.1966  0.4593  0.3363
   17MOL   C346 6458   0.279   0.660   0.703  0.5063 -0.1547 -0.7027
   17MOL   C347 6459   0.154   0.596   0.703  0.2787  0.0992 -0.1275
   17MOL   C348 6460   0.065   0.619   0.809  0.3201  0.1849  0.5173
   17MOL   C349 6461   8.006   0.573   0.785 -0.1163  0.2084 -0.2599
   17MOL   C350 6462   0.106   0.697   0.922 -0.0962 -0.7808  0.0150
   17MOL   C351 6463   0.233   0.752   0.929  0.1850 -0.3995 -0.1518
   17MOL   C352 6464   0.536   0.689   0.935 -0.1908 -0.2136  0.2996
   17MOL   H353 6465   0.514   0.774   0.740 -1.0497  0.3319 -0.8587
   17MOL   H354 6466   0.347   0.657   0.619  0.1709  1.1686 -1.0360
   17MOL   H355 6467   0.133   0.543   0.612  1.2114  0.2603 -0.4375
   17MOL   H356 6468   7.989   0.466   0.793 -0.3899  0.3907  1.9884
   17MOL   H357 6469   7.930   0.620   0.848 -2.1141 -0.8470 -1.8129
   17MOL   H358 6470   7.988   0.608   0.683 -0.0297  1.7518  0.2479
   17MOL   H359 6471   0.034   0.713   1.000 -1.1852  0.4076 -1.2134
   17MOL   H360 6472   0.269   0.805   1.015  0.0457  0.1236 -0.4101
   17MOL   H361 6473   0.474   0.664   1.020  0.3444 -2.9669 -0.0764
   17MOL   H362 6474   0.627   0.743   0.962  0.2363 -1.3869  1.2551
   17MOL   C363 6475   0.569   0.547   0.867  0.1713  0.0970  0.2455
   17MOL   C364 6476   0.610   0.446   0.968 -0.1025 -0.4832 -0.8791
   17MOL   C365 6477   0.732   0.460   1.032 -0.5121 -0.1789 -0.0823
   17MOL   C366 6478   0.783   0.360   1.111 -0.4060 -0.4021  0.2057
   17MOL   C367 6479   0.706   0.241   1.133 -0.5113 -0.1532  0.0809
   17MOL   C368 6480   0.763   0.139   1.236 -0.2062  0.0555 -0.2624
   17MOL   C369 6481   0.584   0.220   1.069  0.7443 -0.4060  0.1464
   17MOL   C370 6482   0.538   0.329   0.986 -0.1895  0.3877 -0.6103
   17MOL   C371 6483   0.674   0.566   0.755  0.9349  0.1413  0.0648
   17MOL   H372 6484   0.484   0.512   0.809  1.4856  0.4025 -1.9320
   17MOL   H373 6485   0.792   0.549   1.022  1.0183 -1.0831  0.7914
   17MOL   H374 6486   0.881   0.372   1.154 -0.1844  1.8820 -0.9053
   17MOL   H375 6487   0.712   0.044   1.249  0.7039 -0.2105  1.5032
   17MOL   H376 6488   0.871   0.129   1.228  0.0186 -0.3052  2.8572
   17MOL   H377 6489   0.758   0.167   1.341 -1.3974  0.7311 -0.4853
   17MOL   H378 6490   0.519   0.135   1.077  0.2201 -0.1032 -0.7591
   17MOL   H379 6491   0.450   0.306   0.928 -1.1321 -0.8335  1.2500
   17MOL   H380 6492   0.634   0.616   0.667  1.0034  0.4847  0.2245
   17MOL   H381 6493   0.712   0.472   0.717  2.5839  1.1004 -0.7219
   17MOL   H382 6494   0.756   0.618   0.805  3.0462 -3.0861  0.0907
   18MOL     C1 6495   7.560   7.632   2.167  0.5960  0.1532  0.6729
   18MOL     C2 6496   7.710   7.632   2.151  0.5094  0.4251 -0.0378
   18MOL     C3 6497   7.786   7.512   2.143 -0.9582 -0.7432 -0.2954
   18MOL     C4 6498   7.920   7.518   2.119 -0.3261  0.3553  0.0045
   18MOL     C5 6499   7.991   7.643   2.110  0.2477 -0.0111  0.8127
   18MOL     C6 6500   0.060   7.632   2.095 -0.0198 -0.0552 -0.0392
   18MOL     C7 6501   7.924   7.764   2.129  0.0694  0.2571  0.9271
   18MOL     C8 6502   7.781   7.757   2.139  0.3621 -0.4532 -0.2207
   18MOL     C9 6503   7.494   7.546   2.061  0.6330 -0.4637  0.1424
   18MOL    H10 6504   7.535   7.597   2.267  3.6340 -1.7170  0.8391
   18MOL    H11 6505   7.735   7.417   2.158 -2.6622  0.1234 -0.4565
   18MOL    H12 6506   7.973   7.427   2.094  0.3744  0.5075  0.9369
   18MOL    H13 6507   0.101   7.728   2.063  1.6721 -0.7838 -0.1104
   18MOL    H14 6508   0.102   7.613   2.194  0.2047 -2.2110 -0.5113
   18MOL    H15 6509   0.099   7.550   2.034 -0.6908 -0.7346  0.4318
   18MOL    H16 6510   7.970   7.861   2.115 -1.4003  0.7281 -0.9138
   18MOL    H17 6511   7.734   7.853   2.156  0.5435 -0.2443 -0.9086
   18MOL    H18 6512   7.503   7.439   2.082  0.6511 -0.3633  0.6448
   18MOL    H19 6513   7.541   7.547   1.963  0.2840 -1.8939 -0.0493
   18MOL    H20 6514   7.529   7.734   2.147  0.3413  0.4161  2.3582
   18MOL    C21 6515   7.348   7.583   2.036 -0.6724 -0.0791  0.4451
   18MOL    C22 6516   7.271   7.577   2.163  0.9733  0.1181 -0.1984
   18MOL    C23 6517   7.244   7.450   2.221  0.3576 -0.0467 -0.1119
   18MOL    C24 6518   7.157   7.450   2.335 -0.1179  0.1193 -0.1035
   18MOL    C25 6519   7.113   7.570   2.396  0.7132  0.0813 -0.2339
   18MOL    C26 6520   7.026   7.574   2.518  0.2594 -0.0178  0.1611
   18MOL    C27 6521   7.159   7.692   2.349 -0.2022 -0.7715 -0.4661
   18MOL    C28 6522   7.228   7.695   2.228 -0.2352 -0.1126  0.0667
   18MOL    C29 6523   7.282   7.499   1.926 -0.2031 -0.2799  0.0491
   18MOL    H30 6524   7.348   7.686   2.003  0.4229 -0.5883 -1.2344
   18MOL    H31 6525   7.268   7.360   2.167 -0.0073  1.2815 -2.5316
   18MOL    H32 6526   7.115   7.354   2.362  4.0527 -1.4753  1.1139
   18MOL    H33 6527   6.928   7.527   2.510  0.3624 -0.0598 -0.8597
   18MOL    H34 6528   7.068   7.530   2.609 -1.6932 -0.9853  0.6108
   18MOL    H35 6529   7.012   7.681   2.537  1.6285  0.1729  0.1545
   18MOL    H36 6530   7.136   7.782   2.402  1.4337 -0.8331  0.3985
   18MOL    H37 6531   7.244   7.790   2.179 -0.9510  0.1311  0.2883
   18MOL    H38 6532   7.182   7.541   1.934 -0.5425 -1.1281  0.3171
   18MOL    H39 6533   7.265   7.394   1.949 -1.6147 -0.2506 -0.8367
   18MOL    C40 6534   7.337   7.508   1.779 -0.0485  0.1785 -0.2798
   18MOL    C41 6535   7.306   7.634   1.704 -0.2673 -0.2273 -0.2958
   18MOL    C42 6536   7.188   7.647   1.621 -0.4859 -0.1633  0.5189
   18MOL    C43 6537   7.157   7.765   1.553  0.1749 -0.6935 -0.7869
   18MOL    C44 6538   7.232   7.880   1.581  0.6063  0.4953 -0.6335
   18MOL    C45 6539   7.206   8.018   1.517 -0.2166  0.5997  0.0158
   18MOL    C46 6540   7.340   7.869   1.662  0.6066  0.2624 -0.8821
   18MOL    C47 6541   7.383   7.748   1.715  0.3029 -0.3706 -0.3840
   18MOL    C48 6542   7.298   7.380   1.710  0.2885  0.4452 -0.4551
   18MOL    H49 6543   7.443   7.486   1.779 -0.5571 -2.5570  2.2721
   18MOL    H50 6544   7.127   7.561   1.596 -0.2284 -0.2453  0.1608
   18MOL    H51 6545   7.074   7.783   1.486 -1.6121 -2.6415  0.7989
   18MOL    H52 6546   7.268   0.016   1.560 -2.7185  1.8915  1.3705
   18MOL    H53 6547   7.225   8.023   1.410 -0.4119  0.7583 -0.0113
   18MOL    H54 6548   7.106   8.055   1.537  0.5143  0.4313  4.6166
   18MOL    H55 6549   7.398   7.958   1.681 -3.0161  2.2494  1.4507
   18MOL    H56 6550   7.474   7.739   1.773 -1.0444  0.0680  1.8326
   18MOL    H57 6551   7.326   7.383   1.605 -0.9244 -0.6289 -0.8259
   18MOL    H58 6552   7.189   7.376   1.702  0.1333  1.2284  1.0421
   18MOL    C59 6553   7.349   7.237   1.763  1.4858 -0.6269  0.2214
   18MOL    C60 6554   7.501   7.222   1.791 -0.5331 -0.4304 -0.3245
   18MOL    C61 6555   7.545   7.153   1.909  0.6397  0.0633 -0.0667
   18MOL    C62 6556   7.678   7.121   1.930  0.5114 -0.8362 -0.1027
   18MOL    C63 6557   7.776   7.172   1.841 -0.1228  0.4259  0.4327
   18MOL    C64 6558   7.923   7.144   1.859 -0.4526  0.6848  0.0605
   18MOL    C65 6559   7.737   7.240   1.723 -0.1389  0.2331 -0.0492
   18MOL    C66 6560   7.601   7.252   1.692  0.1940  0.3551 -0.5824
   18MOL    C67 6561   7.311   7.120   1.671  1.1295 -0.0457 -0.3879
   18MOL    H68 6562   7.298   7.220   1.858 -2.1573  0.8432 -1.3985
   18MOL    H69 6563   7.475   7.126   1.987  0.5988  0.4863  0.0426
   18MOL    H70 6564   7.706   7.074   2.024 -0.9964 -0.4107  0.5609
   18MOL    H71 6565   7.954   7.065   1.791  1.9693  1.7393 -0.1013
   18MOL    H72 6566   7.983   7.233   1.838  2.3833 -1.0343  0.7108
   18MOL    H73 6567   7.945   7.107   1.959 -0.4065  0.8519  0.1120
   18MOL    H74 6568   7.823   7.260   1.660 -0.0775  1.1406  0.3106
   18MOL    H75 6569   7.577   7.294   1.596  2.6774  2.1958 -0.4242
   18MOL    H76 6570   7.358   7.027   1.703  0.4690 -0.7063 -1.2918
   18MOL    H77 6571   7.341   7.136   1.568 -1.6903  0.1385 -1.2276
   18MOL    C78 6572   7.154   7.094   1.665 -1.1231 -0.8750 -0.2577
   18MOL    C79 6573   7.094   7.051   1.801 -0.1560  0.4798  0.3997
   18MOL    C80 6574   7.095   6.920   1.841 -0.4662  0.0862 -0.5789
   18MOL    C81 6575   7.034   6.891   1.962 -0.1999  0.6944  0.2286
   18MOL    C82 6576   6.981   6.990   2.047 -0.0382  0.0451  0.3392
   18MOL    C83 6577   6.919   6.952   2.183  0.4043  0.7116 -0.0177
   18MOL    C84 6578   6.991   7.123   2.009  0.3122 -0.1387 -0.4329
   18MOL    C85 6579   7.041   7.151   1.879  0.4989  0.7625 -0.1653
   18MOL    C86 6580   7.115   6.996   1.546  0.3749  0.8043  0.0274
   18MOL    H87 6581   7.102   7.184   1.633  0.0462 -0.4634 -1.0538
   18MOL    H88 6582   7.143   6.841   1.785 -2.3367 -0.2624 -1.7522
   18MOL    H89 6583   7.043   6.791   2.002  1.9874  0.8753  0.2203
   18MOL    H90 6584   6.883   7.044   2.231 -1.4247 -0.7265  1.4613
   18MOL    H91 6585   6.847   6.871   2.174 -1.2652  1.9572  1.6958
   18MOL    H92 6586   7.002   6.909   2.239 -1.3736 -0.9221  1.4449
   18MOL    H93 6587   6.945   7.199   2.070  0.2400 -0.8789  0.4626
   18MOL    H94 6588   7.038   7.254   1.849 -0.7647  1.1265  1.1905
   18MOL    H95 6589   7.169   6.902   1.563 -0.2909  0.8289  2.5946
   18MOL    H96 6590   7.147   7.037   1.451 -1.2366 -0.3981 -1.0627
   18MOL    C97 6591   6.968   6.949   1.536  0.6637  0.0959 -0.6833
   18MOL    C98 6592   6.962   6.811   1.465 -0.1403  0.0514 -0.3633
   18MOL    C99 6593   6.925   6.701   1.547 -0.3256  0.8645 -0.0064
   18MOL   C100 6594   6.926   6.573   1.485 -0.2162 -0.1016 -0.8215
   18MOL   C101 6595   6.958   6.560   1.349 -0.6347 -0.2106  0.4362
   18MOL   C102 6596   6.949   6.427   1.271  0.6501 -0.3211  0.6519
   18MOL   C103 6597   6.994   6.675   1.271  0.1117  0.1962 -0.5938
   18MOL   C104 6598   7.002   6.801   1.330 -0.4733  0.2869 -0.2580
   18MOL   C105 6599   6.877   7.059   1.470  0.2822  0.0252 -0.4362
   18MOL   H106 6600   6.923   6.918   1.631  0.4355 -1.4674 -1.2729
   18MOL   H107 6601   6.890   6.710   1.649  0.1276 -2.9752  0.5980
   18MOL   H108 6602   6.905   6.486   1.545 -0.4634  0.5329  0.0307
   18MOL   H109 6603   6.852   6.381   1.286  0.4139  0.6071  2.1090
   18MOL   H110 6604   6.964   6.424   1.163  0.3755 -1.1355  0.6346
   18MOL   H111 6605   7.014   6.352   1.316  0.6173 -1.0423 -0.5015
   18MOL   H112 6606   7.023   6.653   1.169  0.9264 -0.9928 -0.1181
   18MOL   H113 6607   7.045   6.885   1.277  1.8202  1.4320  3.2154
   18MOL   H114 6608   6.801   7.020   1.402  0.8924  1.4651 -1.9887
   18MOL   H115 6609   6.929   7.127   1.403  4.0483 -2.9847 -0.7284
   18MOL   C116 6610   6.806   7.144   1.583  0.1341  0.1860  0.4941
   18MOL   C117 6611   6.676   7.091   1.636 -0.2522 -0.3434  0.2957
   18MOL   C118 6612   6.671   7.005   1.746  0.0264  0.1125  0.1778
   18MOL   C119 6613   6.552   6.970   1.807 -0.2019  0.7736 -0.1819
   18MOL   C120 6614   6.432   7.004   1.739  0.5724 -0.2275 -0.2715
   18MOL   C121 6615   6.299   6.950   1.790  0.3260 -0.1677  0.3889
   18MOL   C122 6616   6.428   7.096   1.627 -0.1503  0.1253  0.5294
   18MOL   C123 6617   6.557   7.132   1.577 -0.9049  0.3027  0.0078
   18MOL   C124 6618   6.804   7.293   1.531 -0.0788 -0.9036  0.8495
   18MOL   H125 6619   6.879   7.152   1.664  0.2928  1.2559  0.2552
   18MOL   H126 6620   6.765   6.985   1.796 -0.8447  1.3165  2.3692
   18MOL   H127 6621   6.549   6.912   1.898 -0.5158  0.7946 -0.1788
   18MOL   H128 6622   6.275   7.016   1.873  1.6949  1.7956 -0.7262
   18MOL   H129 6623   6.234   6.951   1.703 -0.2596 -1.0430  0.8068
   18MOL   H130 6624   6.306   6.848   1.829 -2.4052 -0.6834 -0.3299
   18MOL   H131 6625   6.336   7.124   1.577 -0.0710  1.3467  1.0476
   18MOL   H132 6626   6.559   7.202   1.495 -0.8782  1.3399  0.8818
   18MOL   H133 6627   6.774   7.305   1.426  0.0585  3.4413  1.2310
   18MOL   H134 6628   6.903   7.331   1.508 -0.2915 -1.0479 -0.3988
   18MOL   C135 6629   6.737   7.405   1.618  0.2303 -0.1423 -0.2389
   18MOL   C136 6630   6.776   7.549   1.565  0.5610 -0.0613 -0.5429
   18MOL   C137 6631   6.762   7.580   1.429 -0.7455  0.2109  0.2872
   18MOL   C138 6632   6.792   7.710   1.379  0.1716 -0.6715 -0.3610
   18MOL   C139 6633   6.818   7.812   1.469 -0.5483 -0.2663  0.3234
   18MOL   C140 6634   6.837   7.959   1.434 -0.0588  0.1899 -0.3179
   18MOL   C141 6635   6.837   7.783   1.603 -0.0947  0.4030  0.9144
   18MOL   C142 6636   6.815   7.652   1.655  0.1591 -0.2517  0.0207
   18MOL   C143 6637   6.756   7.379   1.776 -0.5691  0.2962 -0.6055
   18MOL   H144 6638   6.632   7.391   1.595 -0.2088 -0.9043  2.1261
   18MOL   H145 6639   6.721   7.501   1.368  0.7572  0.0484 -0.5345
   18MOL   H146 6640   6.759   7.731   1.278 -0.4295  1.5577  0.2652
   18MOL   H147 6641   6.747   7.998   1.387 -0.0158 -0.2740 -0.7881
   18MOL   H148 6642   6.880   8.023   1.511  0.4093 -0.6715  0.1445
   18MOL   H149 6643   6.909   7.976   1.354  1.6635  1.8563  1.5243
   18MOL   H150 6644   6.867   7.854   1.677  0.9899 -0.3417  1.1987
   18MOL   H151 6645   6.840   7.636   1.759 -0.9910 -2.3576 -0.0153
   18MOL   H152 6646   6.860   7.409   1.786 -0.8182  1.0726 -0.3165
   18MOL   H153 6647   6.763   7.273   1.802  2.5790  0.5699 -0.1889
   18MOL   C154 6648   6.644   7.436   1.866 -0.3577  0.5544 -0.3658
   18MOL   C155 6649   6.677   7.392   2.011 -0.1830 -0.0985 -0.8412
   18MOL   C156 6650   6.716   7.494   2.107 -0.2063  0.5402  0.0636
   18MOL   C157 6651   6.743   7.463   2.237 -0.3401 -0.0937  0.2607
   18MOL   C158 6652   6.729   7.331   2.273  0.7814  0.5334 -0.1694
   18MOL   C159 6653   6.756   7.288   2.415  0.3018 -1.1012  0.1689
   18MOL   C160 6654   6.676   7.231   2.191  0.4298  0.1825 -0.5004
   18MOL   C161 6655   6.646   7.266   2.059  0.0389  0.1918 -0.4233
   18MOL   C162 6656   6.494   7.418   1.828 -0.2246 -0.0462  0.6809
   18MOL   H163 6657   6.650   7.545   1.861  1.5684  0.5198  0.8777
   18MOL   H164 6658   6.725   7.594   2.068  0.7536  0.4153 -0.0381
   18MOL   H165 6659   6.774   7.540   2.307 -2.4625 -0.3851  1.5830
   18MOL   H166 6660   6.772   7.376   2.478 -1.9949  1.0202 -2.0389
   18MOL   H167 6661   6.664   7.241   2.449 -0.9059  1.4564  0.5428
   18MOL   H168 6662   6.832   7.211   2.404  2.1914  0.6874  0.2708
   18MOL   H169 6663   6.661   7.129   2.225 -2.5444  0.8018  0.1880
   18MOL   H170 6664   6.605   7.188   1.996 -1.3090 -0.1997  0.9218
   18MOL   H171 6665   6.492   7.316   1.790 -0.4232  0.4472 -0.6749
   18MOL   H172 6666   6.466   7.473   1.737  0.8684 -1.4657 -0.5185
   18MOL   C173 6667   6.392   7.449   1.940 -0.4467 -0.1225  0.6427
   18MOL   C174 6668   6.252   7.405   1.905  0.7645 -0.5910 -0.5702
   18MOL   C175 6669   6.154   7.492   1.842 -0.2553  0.5132  0.0389
   18MOL   C176 6670   6.017   7.447   1.827  0.1582  0.5712  0.4399
   18MOL   C177 6671   5.987   7.313   1.859 -0.6088 -0.3606  0.0646
   18MOL   C178 6672   5.841   7.258   1.846  0.5061  0.5806  0.1539
   18MOL   C179 6673   6.088   7.221   1.901 -0.0956 -0.0673  0.3982
   18MOL   C180 6674   6.216   7.270   1.933 -0.5158 -0.3037  0.1763
   18MOL   C181 6675   6.403   7.587   1.998 -0.1961  0.5206  0.4198
   18MOL   H182 6676   6.413   7.378   2.020  0.0579 -1.2361 -0.4623
   18MOL   H183 6677   6.187   7.589   1.809 -0.8611  0.3945 -0.9442
   18MOL   H184 6678   5.943   7.511   1.781  2.9617  2.0531 -2.2130
   18MOL   H185 6679   5.785   7.312   1.769  2.5583  0.4036 -1.5039
   18MOL   H186 6680   5.833   7.150   1.834  1.4296  0.3520  1.5647
   18MOL   H187 6681   5.797   7.277   1.944 -0.7569 -1.6274  0.0414
   18MOL   H188 6682   6.071   7.116   1.924  1.4426  0.1038  2.3889
   18MOL   H189 6683   6.288   7.204   1.979 -1.5699 -2.0039 -0.5315
   18MOL   H190 6684   6.360   7.653   1.923  1.9168 -0.5619 -1.7840
   18MOL   H191 6685   6.505   7.621   2.012 -0.4554  2.1254 -1.3351
   18MOL   C192 6686   6.319   7.604   2.131  0.0358  0.0166  0.9863
   18MOL   C193 6687   6.266   7.747   2.148  0.0365 -0.0231 -0.3507
   18MOL   C194 6688   6.355   7.860   2.147 -0.9903  0.8234 -0.3399
   18MOL   C195 6689   6.309   7.983   2.184 -0.3543  0.1530 -0.4922
   18MOL   C196 6690   6.173   8.009   2.221  0.3026 -0.0474 -0.2262
   18MOL   C197 6691   6.119   0.068   2.260  0.2084  0.6845  0.1819
   18MOL   C198 6692   6.079   7.902   2.209  0.5937 -0.4309 -0.1266
   18MOL   C199 6693   6.128   7.773   2.172  0.2391 -0.6103 -0.2806
   18MOL   C200 6694   6.391   7.564   2.258  0.6828 -0.3771  0.1817
   18MOL   H201 6695   6.228   7.551   2.101  0.4858  0.1723 -0.6713
   18MOL   H202 6696   6.460   7.844   2.126 -1.4088 -2.3191 -0.3764
   18MOL   H203 6697   6.385   8.059   2.194 -1.2510  1.0646 -0.5752
   18MOL   H204 6698   6.196   0.138   2.294 -1.0186  0.3626  3.8225
   18MOL   H205 6699   6.060   0.120   2.184 -0.2165  0.8243  0.6009
   18MOL   H206 6700   6.065   0.042   2.351  0.0663  0.8986  0.1606
   18MOL   H207 6701   5.973   7.911   2.230  0.3082 -4.5910  0.5359
   18MOL   H208 6702   6.052   7.697   2.157 -1.0764  0.1581  2.1483
   18MOL   H209 6703   6.471   7.628   2.294  0.8041 -1.6820  2.3093
   18MOL   H210 6704   6.448   7.474   2.235  1.1660  0.3541 -1.5875
   18MOL   C211 6705   6.297   7.524   2.380  0.1618 -0.0992 -0.1403
   18MOL   C212 6706   6.359   7.533   2.514  0.2638  0.0987 -0.0390
   18MOL   C213 6707   6.301   7.611   2.615 -0.2656  0.8404  0.0391
   18MOL   C214 6708   6.360   7.623   2.745 -0.1629  0.1475 -0.0602
   18MOL   C215 6709   6.485   7.549   2.773 -0.3142  0.3782 -0.1682
   18MOL   C216 6710   6.542   7.546   2.914  0.4351 -0.0466  0.2903
   18MOL   C217 6711   6.538   7.472   2.666  0.1675  0.1157  0.0565
   18MOL   C218 6712   6.477   7.471   2.538 -0.3902  0.2039 -0.3349
   18MOL   C219 6713   6.240   7.388   2.356 -0.0142  0.0626  0.5912
   18MOL   H220 6714   6.228   7.608   2.382  1.5241  1.0788 -1.4241
   18MOL   H221 6715   6.210   7.663   2.590 -1.0979 -1.1361 -1.0761
   18MOL   H222 6716   6.308   7.681   2.820  0.8859  2.3169 -0.9758
   18MOL   H223 6717   6.649   7.527   2.913  0.4508 -0.0437  1.5559
   18MOL   H224 6718   6.541   7.633   2.979  1.0231 -0.3247  0.6712
   18MOL   H225 6719   6.484   7.464   2.957  0.1163 -1.1830 -2.2006
   18MOL   H226 6720   6.621   7.403   2.675 -0.3316 -0.8734 -2.4691
   18MOL   H227 6721   6.510   7.404   2.461 -0.5234  1.4663 -1.4983
   18MOL   H228 6722   6.322   7.317   2.344  0.5161  1.0532 -2.0348
   18MOL   H229 6723   6.208   7.381   2.252  2.9748  0.3419 -0.4015
   18MOL   C230 6724   6.135   7.325   2.452  0.4739 -0.2337  0.4724
   18MOL   C231 6725   6.095   7.188   2.406 -0.3884 -0.3767  0.1056
   18MOL   C232 6726   6.035   7.159   2.278  0.3000 -0.3669  0.2359
   18MOL   C233 6727   5.978   7.030   2.256 -0.1675 -0.4723 -0.1329
   18MOL   C234 6728   5.987   6.927   2.347 -0.0073  0.5413  0.2574
   18MOL   C235 6729   5.923   6.786   2.326 -0.5379  0.0575  0.1663
   18MOL   C236 6730   6.063   6.953   2.468 -0.3268  0.1145  0.0347
   18MOL   C237 6731   6.120   7.076   2.487  0.1410  0.3991 -0.6232
   18MOL   C238 6732   6.007   7.414   2.482  0.6144  1.1078  0.6249
   18MOL   H239 6733   6.189   7.322   2.546 -0.4625 -1.9557  0.9728
   18MOL   H240 6734   6.021   7.246   2.215  2.5316 -0.2978 -0.2142
   18MOL   H241 6735   5.928   7.018   2.161 -1.5686 -1.2403  0.6800
   18MOL   H242 6736   5.820   6.788   2.364 -0.6833 -0.2100 -0.2061
   18MOL   H243 6737   5.917   6.767   2.218 -0.9604  1.6560 -0.1102
   18MOL   H244 6738   5.979   6.703   2.368  2.0422  1.3414 -0.6194
   18MOL   H245 6739   6.071   6.879   2.546 -1.3249 -0.9370 -0.8372
   18MOL   H246 6740   6.172   7.071   2.581  0.8132 -2.2641 -1.1048
   18MOL   H247 6741   5.977   7.453   2.385 -0.1042  0.7244  0.6931
   18MOL   H248 6742   6.045   7.498   2.541  1.3970 -0.1109  1.8949
   18MOL   C249 6743   5.886   7.351   2.559  0.1995  0.0162  0.0797
   18MOL   C250 6744   5.758   7.425   2.536 -0.1696 -0.2007  0.2270
   18MOL   C251 6745   5.661   7.381   2.442 -0.1000 -0.6278  0.3462
   18MOL   C252 6746   5.538   7.447   2.437  0.2549 -0.8541 -0.7717
   18MOL   C253 6747   5.511   7.567   2.516 -0.1390 -0.1369  0.6622
   18MOL   C254 6748   5.379   7.638   2.512  0.4980  0.3068  0.9666
   18MOL   C255 6749   5.614   7.611   2.602 -0.1329  0.7031  0.3368
   18MOL   C256 6750   5.733   7.536   2.614 -0.5291  0.1606 -0.8209
   18MOL   C257 6751   5.908   7.304   2.710 -0.5951 -0.4938 -0.2709
   18MOL   H258 6752   5.861   7.257   2.509 -2.2182  0.3105  0.6711
   18MOL   H259 6753   5.691   7.300   2.377  1.5798  2.5268 -2.9961
   18MOL   H260 6754   5.465   7.407   2.368 -1.4279 -1.0783  1.0985
   18MOL   H261 6755   5.314   7.597   2.589  0.5441 -2.1608 -0.2823
   18MOL   H262 6756   5.397   7.746   2.514 -0.4977  0.6406 -3.4395
   18MOL   H263 6757   5.330   7.613   2.418  0.8932 -1.1115  1.1264
   18MOL   H264 6758   5.587   7.695   2.664  0.6018  0.0762  1.5391
   18MOL   H265 6759   5.812   7.558   2.684 -0.8901 -1.6147  0.1902
   18MOL   H266 6760   5.908   7.383   2.785  1.1400  1.4760 -2.2787
   18MOL   H267 6761   6.008   7.264   2.718 -0.9355 -1.4410 -0.6753
   18MOL   C268 6762   5.798   7.197   2.762 -0.4038  0.7300 -0.2916
   18MOL   C269 6763   5.706   7.251   2.871 -0.9121 -0.2444 -0.6824
   18MOL   C270 6764   5.730   7.251   3.013 -0.3537  0.4341  0.0787
   18MOL   C271 6765   5.637   7.286   3.104 -0.1310  0.2197 -0.3003
   18MOL   C272 6766   5.525   7.357   3.061 -0.0066  0.3407 -0.2388
   18MOL   C273 6767   5.443   7.425   3.170 -0.4198 -0.7549 -0.0508
   18MOL   C274 6768   5.501   7.375   2.925  1.1923  0.2037 -0.1882
   18MOL   C275 6769   5.586   7.313   2.830  0.6409 -0.0656  0.8963
   18MOL   C276 6770   5.869   7.060   2.788 -0.2403 -0.2968  0.0210
   18MOL   H277 6771   5.729   7.177   2.680 -0.6996 -3.9530  0.9426
   18MOL   H278 6772   5.822   7.206   3.048 -0.7419 -0.2158  0.2780
   18MOL   H279 6773   5.658   7.267   3.208  0.2053 -2.7861 -0.8684
   18MOL   H280 6774   5.359   7.477   3.123 -2.0326 -2.8646  0.4282
   18MOL   H281 6775   5.409   7.350   3.241 -1.2729  0.0083  0.3666
   18MOL   H282 6776   5.496   7.495   3.235 -0.7633  0.1606 -0.7431
   18MOL   H283 6777   5.420   7.434   2.884 -0.8578 -1.2704  1.5771
   18MOL   H284 6778   5.562   7.314   2.725  1.8924 -2.2724  0.5511
   18MOL   H285 6779   5.954   7.071   2.855 -0.3940 -1.1652  0.3630
   18MOL   H286 6780   5.917   7.026   2.696 -1.1928 -1.8246  0.0886
   18MOL   C287 6781   5.787   6.934   2.846 -0.5395 -0.3822 -0.9131
   18MOL   C288 6782   5.867   6.802   2.844  0.2348 -0.1347 -0.4916
   18MOL   C289 6783   5.899   6.742   2.720  0.8425  0.0357 -0.4888
   18MOL   C290 6784   5.965   6.614   2.714  0.1467  0.1536  0.6061
   18MOL   C291 6785   5.994   6.553   2.835 -0.4222  0.1840  0.1350
   18MOL   C292 6786   6.057   6.416   2.825  0.6110 -0.2043 -0.4642
   18MOL   C293 6787   5.960   6.616   2.954  0.6422 -0.4793  0.0728
   18MOL   C294 6788   5.902   6.741   2.965 -0.3213 -0.0321  0.2007
   18MOL   C295 6789   5.650   6.909   2.781  0.2058 -0.4645 -0.5202
   18MOL   H296 6790   5.766   6.962   2.950 -0.5614 -0.5483 -0.8729
   18MOL   H297 6791   5.862   6.774   2.624 -0.8353  0.2751  0.2312
   18MOL   H298 6792   6.007   6.570   2.625 -0.4985  0.7158  0.0190
   18MOL   H299 6793   5.986   6.348   2.779 -0.4676  0.5700  0.0460
   18MOL   H300 6794   6.138   6.432   2.754 -0.4940 -0.1560 -1.7247
   18MOL   H301 6795   6.085   6.386   2.927 -0.8114  0.5161  0.1458
   18MOL   H302 6796   5.969   6.567   3.050  0.9987  0.1084  0.3380
   18MOL   H303 6797   5.866   6.782   3.058  0.4805 -1.2004  1.0274
   18MOL   H304 6798   5.658   6.867   2.680 -0.4846 -0.4390 -0.5854
   18MOL   H305 6799   5.603   7.006   2.768 -0.6661 -0.7211  0.6355
   18MOL   C306 6800   5.541   6.823   2.854 -0.8458 -0.2061  0.1044
   18MOL   C307 6801   5.426   6.778   2.766 -0.4673 -0.3574  0.0367
   18MOL   C308 6802   5.364   6.653   2.774 -0.1950 -0.0014  0.4213
   18MOL   C309 6803   5.249   6.623   2.698  0.2652 -0.1160 -0.4097
   18MOL   C310 6804   5.189   6.723   2.624 -0.6736 -0.1213 -0.3141
   18MOL   C311 6805   5.061   6.691   2.551 -0.2352 -0.2957  0.1970
   18MOL   C312 6806   5.247   6.849   2.614 -0.2007  0.2699  0.1687
   18MOL   C313 6807   5.378   6.874   2.673 -0.5104 -0.3395  0.0478
   18MOL   C314 6808   5.486   6.898   2.975  0.0109  0.3274  0.0804
   18MOL   H315 6809   5.588   6.727   2.872  1.0172  0.7118  0.2908
   18MOL   H316 6810   5.402   6.584   2.847  2.2737 -0.2582 -1.0660
   18MOL   H317 6811   5.196   6.531   2.719 -2.8750  1.9133  0.9010
   18MOL   H318 6812   5.027   6.782   2.501  2.4016  0.5259 -0.1727
   18MOL   H319 6813   5.081   6.619   2.472  0.3521  0.6306 -0.5114
   18MOL   H320 6814   4.982   6.646   2.611 -0.5720  2.5759  1.9575
   18MOL   H321 6815   5.193   6.916   2.550 -0.9033  0.4850  0.9769
   18MOL   H322 6816   5.426   6.971   2.667  0.1028 -0.6655 -0.4170
   18MOL   H323 6817   5.378   6.880   2.975  0.2610 -1.4552 -3.0440
   18MOL   H324 6818   5.492   7.006   2.961  1.3511  0.2450 -0.0240
   18MOL   C325 6819   5.536   6.848   3.121 -0.0564 -0.1849 -0.9670
   18MOL   C326 6820   5.477   6.707   3.142  0.3882  0.4481  0.4553
   18MOL   C327 6821   5.566   6.595   3.148  0.1046  0.2089 -0.2439
   18MOL   C328 6822   5.507   6.470   3.161 -0.2337  0.0367  0.2608
   18MOL   C329 6823   5.364   6.448   3.156  0.1842  0.0929 -0.2323
   18MOL   C330 6824   5.308   6.311   3.162 -0.2681 -0.6824 -0.2385
   18MOL   C331 6825   5.281   6.565   3.153  0.0162  0.2834  0.3121
   18MOL   C332 6826   5.339   6.693   3.149  0.2143  0.1997  1.0973
   18MOL   C333 6827   5.491   6.948   3.233 -0.4100  0.3312 -0.3718
   18MOL   H334 6828   5.642   6.830   3.110 -0.5273 -3.2049 -0.8046
   18MOL   H335 6829   5.673   6.600   3.147  0.0649  1.0502 -1.5071
   18MOL   H336 6830   5.571   6.382   3.166  1.2606  1.1069  0.3890
   18MOL   H337 6831   5.283   6.280   3.263 -0.4239 -3.3128 -1.0412
   18MOL   H338 6832   5.220   6.308   3.098 -0.8681  2.6283  0.3768
   18MOL   H339 6833   5.370   6.241   3.105  3.1915  0.9764  1.3323
   18MOL   H340 6834   5.174   6.550   3.148  0.2765 -1.5053 -0.4684
   18MOL   H341 6835   5.271   6.774   3.127  2.2765  1.2263 -1.9483
   18MOL   H342 6836   5.382   6.956   3.229 -0.4602 -0.0164  0.3879
   18MOL   H343 6837   5.539   7.043   3.208 -3.0580  2.3924  2.0145
   18MOL   C344 6838   5.531   6.914   3.374 -0.5541 -0.3701  0.9353
   18MOL   C345 6839   5.441   6.990   3.465 -0.1663  0.6209 -0.0179
   18MOL   C346 6840   5.346   6.922   3.547 -0.2848  0.6560 -0.2727
   18MOL   C347 6841   5.251   6.994   3.617 -0.4510  0.0325 -0.0483
   18MOL   C348 6842   5.242   7.133   3.603 -0.0162  0.2200 -0.4716
   18MOL   C349 6843   5.145   7.203   3.691 -0.5075 -0.3503  0.7186
   18MOL   C350 6844   5.345   7.203   3.532 -0.6066 -0.4783  0.1425
   18MOL   C351 6845   5.445   7.130   3.461 -0.1251  0.0469 -0.1661
   18MOL   C352 6846   5.680   6.949   3.399  0.2971  1.2581 -0.2848
   18MOL   H353 6847   5.521   6.806   3.384  0.5491 -0.6141 -0.4398
   18MOL   H354 6848   5.330   6.815   3.543 -0.7689  0.6847  0.5731
   18MOL   H355 6849   5.177   6.935   3.668 -0.1592  0.3150  0.7060
   18MOL   H356 6850   5.174   7.259   3.780 -0.4744  0.9047 -0.0696
   18MOL   H357 6851   5.090   7.270   3.624  0.4693 -0.6756 -0.4467
   18MOL   H358 6852   5.067   7.132   3.716 -1.6507  0.3100 -0.8318
   18MOL   H359 6853   5.337   7.310   3.519 -0.2949 -0.3460  1.0237
   18MOL   H360 6854   5.511   7.192   3.403 -1.8388  2.4803  0.4362
   18MOL   H361 6855   5.702   7.044   3.350 -0.4369  2.0858  0.9729
   18MOL   H362 6856   5.749   6.875   3.359 -1.2012 -0.5974  0.5157
   18MOL   C363 6857   5.715   6.962   3.548  0.1607 -0.1002  0.4704
   18MOL   C364 6858   5.843   7.042   3.570  0.3218  0.2056 -0.1143
   18MOL   C365 6859   5.965   6.979   3.580  0.0667 -0.3926  1.1340
   18MOL   C366 6860   6.086   7.045   3.623  0.0355  0.0851 -0.2928
   18MOL   C367 6861   6.074   7.181   3.658  0.4225  0.2355 -0.6092
   18MOL   C368 6862   6.187   7.245   3.727 -0.2504 -0.6408 -0.4776
   18MOL   C369 6863   5.949   7.244   3.638 -0.2642  0.2015 -0.1379
   18MOL   C370 6864   5.836   7.180   3.588  0.1088  0.6881 -0.6861
   18MOL   C371 6865   5.714   6.827   3.621 -0.0970  0.5027  0.0211
   18MOL   H372 6866   5.643   7.031   3.591 -0.1923 -0.3456  0.2686
   18MOL   H373 6867   5.975   6.872   3.575 -0.9946 -0.3582 -2.8322
   18MOL   H374 6868   6.177   6.987   3.628 -0.7354 -1.2007 -1.1146
   18MOL   H375 6869   6.212   7.205   3.825  2.2835  1.8889 -0.0339
   18MOL   H376 6870   6.273   7.215   3.668 -0.6523  1.2875 -2.0899
   18MOL   H377 6871   6.180   7.353   3.742  0.3458 -0.6706  0.0089
   18MOL   H378 6872   5.937   7.350   3.649  2.4068  0.3742  1.7232
   18MOL   H379 6873   5.744   7.234   3.569  0.4347  0.6137 -2.5688
   18MOL   H380 6874   5.700   6.854   3.725 -0.0625  0.7756 -0.0457
   18MOL   H381 6875   5.803   6.769   3.599  0.8223  2.2111 -0.8595
   18MOL   H382 6876   5.628   6.769   3.586  1.4723 -0.6674 -2.0536
   19MOL     C1 6877   4.705   6.788   2.924  0.7072 -0.2643  0.5647
   19MOL     C2 6878   4.825   6.875   2.967  0.2647  0.1578 -0.5161
   19MOL     C3 6879   4.808   6.979   3.057  0.1601  0.2306  0.1667
   19MOL     C4 6880   4.916   7.060   3.098  0.1945 -0.4053  0.3696
   19MOL     C5 6881   5.045   7.037   3.046  0.3276  0.8303 -0.1582
   19MOL     C6 6882   5.171   7.131   3.076 -0.3660  0.2551  0.3195
   19MOL     C7 6883   5.058   6.935   2.949 -0.0585  1.2289 -0.4401
   19MOL     C8 6884   4.954   6.853   2.915  0.7144  0.5822 -0.3346
   19MOL     C9 6885   4.651   6.831   2.785 -0.7728  0.4188  0.8767
   19MOL    H10 6886   4.735   6.684   2.937  2.9114 -0.1715 -3.2330
   19MOL    H11 6887   4.707   6.989   3.096 -0.2728 -0.7722 -0.6575
   19MOL    H12 6888   4.908   7.148   3.159 -1.2464 -0.6574  0.5743
   19MOL    H13 6889   5.150   7.231   3.038  0.4502  0.1596 -0.4021
   19MOL    H14 6890   5.195   7.138   3.182 -1.6944 -0.1453  0.6580
   19MOL    H15 6891   5.254   7.085   3.022 -0.0511  0.3850  0.6977
   19MOL    H16 6892   5.154   6.916   2.904 -0.3641 -0.4921 -0.3680
   19MOL    H17 6893   4.983   6.777   2.844  0.4337  0.3917 -0.2452
   19MOL    H18 6894   4.727   6.802   2.712  0.7416  0.9366  2.2143
   19MOL    H19 6895   4.645   6.940   2.787 -1.6185  0.5000 -2.4017
   19MOL    H20 6896   4.625   6.791   2.998  0.0972 -2.7148  0.0496
   19MOL    C21 6897   4.512   6.775   2.760  0.7591  0.5132 -0.4271
   19MOL    C22 6898   4.492   6.622   2.793 -0.5615 -0.6497 -0.1446
   19MOL    C23 6899   4.587   6.525   2.751  0.3150  0.0362  0.6708
   19MOL    C24 6900   4.566   6.388   2.774  0.3991 -0.0746  0.0449
   19MOL    C25 6901   4.454   6.346   2.849  0.5210 -0.3159 -0.9845
   19MOL    C26 6902   4.446   6.196   2.878  0.1149 -0.4572 -0.5694
   19MOL    C27 6903   4.358   6.441   2.887 -0.6584  0.0406  0.0490
   19MOL    C28 6904   4.376   6.582   2.852  0.9184 -0.2088 -0.4777
   19MOL    C29 6905   4.461   6.811   2.618  0.1136  0.5188 -0.3706
   19MOL    H30 6906   4.444   6.826   2.828  1.2604  0.5746  0.0364
   19MOL    H31 6907   4.682   6.557   2.710  0.2317 -0.2016  0.2864
   19MOL    H32 6908   4.628   6.305   2.743 -0.8755 -1.2892  0.6814
   19MOL    H33 6909   4.543   6.147   2.890  0.2133 -0.6581 -2.0607
   19MOL    H34 6910   4.377   6.178   2.960 -1.2744 -2.3193 -2.1074
   19MOL    H35 6911   4.399   6.161   2.787 -1.6658  0.9550 -0.2143
   19MOL    H36 6912   4.266   6.414   2.937  0.0770  0.1505  1.4791
   19MOL    H37 6913   4.306   6.661   2.876  1.8705  0.5056 -0.0289
   19MOL    H38 6914   4.397   6.733   2.577  0.4134 -0.5157  1.0690
   19MOL    H39 6915   4.556   6.795   2.567  1.0952  1.5562  1.0620
   19MOL    C40 6916   4.403   6.946   2.599 -0.4030 -0.1694 -0.4295
   19MOL    C41 6917   4.269   6.962   2.672 -0.3035 -0.3516 -0.3085
   19MOL    C42 6918   4.254   7.073   2.752 -0.0035  0.6941 -0.2179
   19MOL    C43 6919   4.136   7.084   2.831  0.1884  0.0057  0.2407
   19MOL    C44 6920   4.035   6.994   2.803 -0.0986 -0.0075 -0.2906
   19MOL    C45 6921   3.904   7.016   2.882  0.0403  0.0665  0.2400
   19MOL    C46 6922   4.045   6.882   2.719 -0.4050 -0.6745 -0.1128
   19MOL    C47 6923   4.170   6.866   2.659  0.0586 -0.1422 -0.2092
   19MOL    C48 6924   4.381   6.971   2.445 -0.1430 -0.3819 -0.1886
   19MOL    H49 6925   4.473   7.019   2.640 -1.2471  0.3502  0.1080
   19MOL    H50 6926   4.336   7.140   2.768  1.1676 -0.3452 -1.7390
   19MOL    H51 6927   4.125   7.172   2.893  0.5995  1.2909 -1.4486
   19MOL    H52 6928   3.827   7.054   2.816  0.7230  3.4015  1.2802
   19MOL    H53 6929   3.856   6.932   2.932 -2.7173  1.7022  0.4362
   19MOL    H54 6930   3.930   7.096   2.952  0.8935  0.9170 -1.0101
   19MOL    H55 6931   3.967   6.811   2.701 -0.7686 -1.0407  2.7151
   19MOL    H56 6932   4.188   6.775   2.603 -0.7617  0.6567 -1.7990
   19MOL    H57 6933   4.344   7.074   2.440  0.0086 -0.4116 -2.3455
   19MOL    H58 6934   4.308   6.913   2.389  0.6846  1.6684 -3.6019
   19MOL    C59 6935   4.511   6.978   2.362 -0.2798 -0.1592 -0.4214
   19MOL    C60 6936   4.622   7.062   2.423 -0.0592 -0.4994 -0.8322
   19MOL    C61 6937   4.607   7.202   2.428 -0.1691  0.1580 -0.2150
   19MOL    C62 6938   4.726   7.282   2.460 -0.0981  0.1818 -0.6434
   19MOL    C63 6939   4.846   7.215   2.499 -0.5355 -0.4790  0.0280
   19MOL    C64 6940   4.979   7.283   2.544  0.4379  0.0043  0.3883
   19MOL    C65 6941   4.855   7.080   2.486 -0.1661 -0.2537  0.0740
   19MOL    C66 6942   4.745   7.004   2.455  0.5587  0.0397  0.0498
   19MOL    C67 6943   4.515   7.013   2.208  0.1359 -0.7668  0.2883
   19MOL    H68 6944   4.550   6.876   2.365  2.1461  0.7940  2.1914
   19MOL    H69 6945   4.517   7.249   2.390  0.6939  0.5553 -1.7766
   19MOL    H70 6946   4.728   7.387   2.487 -0.1819  0.3704 -1.3446
   19MOL    H71 6947   5.060   7.214   2.566  0.1188 -0.6533 -0.4317
   19MOL    H72 6948   5.021   7.342   2.462  0.3368 -0.6763 -0.1647
   19MOL    H73 6949   4.956   7.353   2.624  0.3673  1.1777 -0.6392
   19MOL    H74 6950   4.950   7.037   2.515 -0.0044  0.2262  0.2619
   19MOL    H75 6951   4.752   6.897   2.456 -0.6315 -0.0427  0.3730
   19MOL    H76 6952   4.619   7.012   2.177 -0.0184 -0.3154 -0.2531
   19MOL    H77 6953   4.488   7.117   2.187 -1.8659 -1.0570  1.2758
   19MOL    C78 6954   4.420   6.929   2.116  0.2764 -0.0095 -0.7026
   19MOL    C79 6955   4.448   6.784   2.130 -0.4042  0.1974  0.1216
   19MOL    C80 6956   4.366   6.685   2.187  0.5180 -0.3608  0.3789
   19MOL    C81 6957   4.400   6.540   2.176  0.4916 -0.1909 -0.6575
   19MOL    C82 6958   4.526   6.502   2.125  0.6600 -0.2732 -0.2066
   19MOL    C83 6959   4.568   6.356   2.126  0.1452  0.3854  0.1826
   19MOL    C84 6960   4.607   6.603   2.077  0.6595 -0.7525 -0.3815
   19MOL    C85 6961   4.572   6.738   2.088 -0.4831  0.3681  0.2419
   19MOL    C86 6962   4.406   6.967   1.968 -0.0872 -0.7411 -0.4968
   19MOL    H87 6963   4.317   6.935   2.152 -0.1621  2.5586 -2.2798
   19MOL    H88 6964   4.276   6.709   2.243  0.0408 -0.7581 -0.2126
   19MOL    H89 6965   4.327   6.468   2.209  0.7115 -0.1786 -0.1306
   19MOL    H90 6966   4.579   6.318   2.025 -0.8817  0.9397 -0.1437
   19MOL    H91 6967   4.661   6.357   2.182  0.5100 -0.8546 -0.4033
   19MOL    H92 6968   4.502   6.291   2.183 -0.3192 -0.7453 -1.6106
   19MOL    H93 6969   4.712   6.587   2.054  0.7694  0.6637 -0.8560
   19MOL    H94 6970   4.651   6.807   2.060  0.5237 -0.7690  0.2310
   19MOL    H95 6971   4.336   6.895   1.926 -0.4109 -0.6363 -0.1382
   19MOL    H96 6972   4.497   6.943   1.912  0.5851  1.4752 -0.4114
   19MOL    C97 6973   4.360   7.113   1.934 -0.4210 -0.5568  0.0262
   19MOL    C98 6974   4.224   7.155   1.984  0.2329 -0.3204 -0.0341
   19MOL    C99 6975   4.114   7.077   1.952 -0.0069  0.1406 -0.6024
   19MOL   C100 6976   3.987   7.097   2.000 -0.2772  0.1027 -0.3146
   19MOL   C101 6977   3.960   7.207   2.086 -0.1761  0.3605 -0.3209
   19MOL   C102 6978   3.823   7.247   2.138  0.4958 -0.3580 -0.7724
   19MOL   C103 6979   4.068   7.287   2.118 -0.7226 -0.0577 -0.2133
   19MOL   C104 6980   4.200   7.268   2.064 -0.5925 -0.0374 -0.2295
   19MOL   C105 6981   4.373   7.135   1.782  0.1560  0.0695  0.3872
   19MOL   H106 6982   4.432   7.179   1.983  0.7742 -0.3067 -2.0240
   19MOL   H107 6983   4.133   6.989   1.892  1.2155  0.3295 -0.5015
   19MOL   H108 6984   3.905   7.032   1.972  0.1784 -0.1150 -1.1787
   19MOL   H109 6985   3.816   7.355   2.139 -2.8723 -0.5378  0.5699
   19MOL   H110 6986   3.742   7.220   2.070  0.0811  2.3365 -1.3834
   19MOL   H111 6987   3.803   7.216   2.241  2.8113  1.0025  0.1168
   19MOL   H112 6988   4.051   7.373   2.181 -0.5285  0.2913 -0.6340
   19MOL   H113 6989   4.270   7.347   2.087 -0.4272 -0.6416  1.4019
   19MOL   H114 6990   4.337   7.237   1.766 -2.5009 -0.9763 -0.5521
   19MOL   H115 6991   4.301   7.074   1.727  0.4134 -0.2453  0.3986
   19MOL   C116 6992   4.516   7.122   1.714 -0.3859 -0.5721 -0.9288
   19MOL   C117 6993   4.622   7.188   1.793  0.0098  0.5269  0.6744
   19MOL   C118 6994   4.635   7.326   1.796  0.2434  0.3752 -0.3502
   19MOL   C119 6995   4.733   7.392   1.874  0.6941  0.0334  0.9108
   19MOL   C120 6996   4.812   7.313   1.957  0.4114 -0.6416 -0.1845
   19MOL   C121 6997   4.918   7.371   2.050 -0.8132 -0.3750  0.5599
   19MOL   C122 6998   4.801   7.172   1.945 -0.4811  0.0615 -0.1132
   19MOL   C123 6999   4.710   7.108   1.866  0.5240  0.7425  0.5019
   19MOL   C124 7000   4.521   7.162   1.567  0.2742  0.0767 -0.2348
   19MOL   H125 7001   4.538   7.016   1.727  0.2646 -0.9198 -4.2563
   19MOL   H126 7002   4.578   7.383   1.723  4.0767  3.4847 -1.0969
   19MOL   H127 7003   4.741   7.500   1.869 -1.5069  0.2335  1.2115
   19MOL   H128 7004   4.909   7.479   2.059  2.0767  0.0084 -0.5631
   19MOL   H129 7005   4.907   7.329   2.150  0.2200 -0.9022  0.4570
   19MOL   H130 7006   5.018   7.343   2.016 -1.1851 -1.1555  0.0778
   19MOL   H131 7007   4.874   7.120   2.005 -0.9263  2.3889  2.5203
   19MOL   H132 7008   4.709   7.000   1.858 -0.7406  0.6285  2.0060
   19MOL   H133 7009   4.626   7.174   1.540  0.6870  0.9901  1.6919
   19MOL   H134 7010   4.468   7.257   1.557  0.7632  0.2764 -0.9539
   19MOL   C135 7011   4.470   7.039   1.483  0.2319  0.8243 -0.3482
   19MOL   C136 7012   4.573   6.924   1.498 -0.1135 -0.3723 -0.4194
   19MOL   C137 7013   4.537   6.812   1.573  0.3234 -0.9718 -0.4773
   19MOL   C138 7014   4.612   6.697   1.576 -0.1902  0.0676  0.9040
   19MOL   C139 7015   4.738   6.702   1.507 -0.3096  0.1819  0.1253
   19MOL   C140 7016   4.829   6.580   1.494  0.3669  0.8564 -1.0910
   19MOL   C141 7017   4.782   6.822   1.442  0.7978 -0.9117 -0.1372
   19MOL   C142 7018   4.697   6.936   1.434  0.1142  0.7965  0.1633
   19MOL   C143 7019   4.461   7.077   1.332 -0.2759 -0.1556  0.2540
   19MOL   H144 7020   4.368   7.007   1.508 -0.0541  0.8126 -1.4891
   19MOL   H145 7021   4.439   6.828   1.615  0.5708 -1.0416  0.1338
   19MOL   H146 7022   4.574   6.610   1.629 -1.0842 -0.9346 -1.3170
   19MOL   H147 7023   4.918   6.599   1.555 -1.2457  2.0125  0.9655
   19MOL   H148 7024   4.771   6.496   1.532 -1.2919  2.3736 -0.1936
   19MOL   H149 7025   4.849   6.566   1.388 -0.5287 -2.8328 -0.8169
   19MOL   H150 7026   4.882   6.828   1.404  0.3778  0.8539 -1.0155
   19MOL   H151 7027   4.736   7.023   1.385 -0.2851  0.5859 -0.5366
   19MOL   H152 7028   4.480   6.989   1.270 -0.5570 -1.8038  2.4663
   19MOL   H153 7029   4.548   7.142   1.318  1.6950 -3.0121 -1.1882
   19MOL   C154 7030   4.333   7.150   1.283 -0.2254 -0.3992 -0.0405
   19MOL   C155 7031   4.205   7.058   1.277 -0.0986  0.6071 -0.1009
   19MOL   C156 7032   4.086   7.112   1.322  0.4442 -0.4665  0.6426
   19MOL   C157 7033   3.966   7.042   1.309  0.0133  0.3527  0.6128
   19MOL   C158 7034   3.964   6.916   1.244  0.0912  0.5120 -0.3033
   19MOL   C159 7035   3.830   6.842   1.230 -0.0220 -0.3118  0.4589
   19MOL   C160 7036   4.085   6.863   1.196 -0.0161  0.0119  0.3398
   19MOL   C161 7037   4.211   6.930   1.216 -0.0369  0.1617  0.0934
   19MOL   C162 7038   4.351   7.213   1.143  0.1274 -0.2007 -0.1618
   19MOL   H163 7039   4.302   7.224   1.357  2.6811  0.2582  0.5608
   19MOL   H164 7040   4.090   7.216   1.350  2.1989 -1.0291  2.6210
   19MOL   H165 7041   3.876   7.088   1.346 -0.0749  1.0684 -0.4763
   19MOL   H166 7042   3.739   6.898   1.250 -0.4007 -0.3416 -1.1132
   19MOL   H167 7043   3.826   6.820   1.123 -0.9597 -1.7688  0.7780
   19MOL   H168 7044   3.835   6.743   1.276  0.3837 -0.7519 -0.5087
   19MOL   H169 7045   4.083   6.763   1.155 -0.7193  0.1495  0.0130
   19MOL   H170 7046   4.297   6.883   1.172 -0.8364 -1.9668  0.7531
   19MOL   H171 7047   4.253   7.236   1.100  1.0266 -0.3673 -2.3474
   19MOL   H172 7048   4.389   7.138   1.073 -0.1028 -0.4829  0.0098
   19MOL   C173 7049   4.427   7.346   1.135 -0.4423 -0.0156 -0.3542
   19MOL   C174 7050   4.346   7.451   1.214  0.1714 -0.0727  0.7067
   19MOL   C175 7051   4.396   7.500   1.338  0.5901  0.1470 -0.0329
   19MOL   C176 7052   4.313   7.574   1.420  0.4154  0.3243  0.2394
   19MOL   C177 7053   4.182   7.612   1.371 -0.3483  0.1555  0.2827
   19MOL   C178 7054   4.108   7.701   1.463 -0.7061  0.3296  0.2266
   19MOL   C179 7055   4.134   7.569   1.249  0.9374 -0.4538 -0.7992
   19MOL   C180 7056   4.219   7.493   1.165  0.1416  0.5568 -0.5662
   19MOL   C181 7057   4.461   7.386   0.993  0.0901 -0.4926  0.1980
   19MOL   H182 7058   4.524   7.332   1.182  0.1702 -1.2266 -1.9273
   19MOL   H183 7059   4.494   7.474   1.375  0.1754 -0.7772  0.4425
   19MOL   H184 7060   4.351   7.608   1.515  2.8400 -1.8471  0.1014
   19MOL   H185 7061   4.064   7.630   1.534  1.5099  0.1778  1.4752
   19MOL   H186 7062   4.179   7.762   1.518  2.2200 -1.1136 -1.8595
   19MOL   H187 7063   4.030   7.766   1.424 -2.7240 -0.3162  2.9908
   19MOL   H188 7064   4.032   7.590   1.221  0.6017 -1.2132 -0.1570
   19MOL   H189 7065   4.183   7.457   1.070  0.2198 -0.9406 -0.0532
   19MOL   H190 7066   4.375   7.421   0.936  0.0230 -3.6142 -1.7634
   19MOL   H191 7067   4.483   7.297   0.935 -1.4955  0.0673 -1.3064
   19MOL   C192 7068   4.581   7.477   0.979  0.3431 -0.1715 -0.3551
   19MOL   C193 7069   4.538   7.623   0.986  0.3942  0.5951  0.5798
   19MOL   C194 7070   4.625   7.704   1.063 -0.0307  0.1099 -0.1459
   19MOL   C195 7071   4.601   7.838   1.084 -0.1437 -0.1773 -0.2124
   19MOL   C196 7072   4.490   7.897   1.017 -0.0866  0.2401  0.0852
   19MOL   C197 7073   4.450   8.044   1.040 -0.9687  0.1469 -0.4248
   19MOL   C198 7074   4.401   7.822   0.944  0.1713 -0.2389 -0.0444
   19MOL   C199 7075   4.425   7.685   0.926 -1.0956  0.3735  0.0552
   19MOL   C200 7076   4.680   7.452   0.864 -0.0952 -0.3517 -0.6205
   19MOL   H201 7077   4.655   7.462   1.057  1.5297 -2.4298 -1.8509
   19MOL   H202 7078   4.710   7.651   1.104 -0.9326  0.3038  2.0448
   19MOL   H203 7079   4.660   7.894   1.155 -0.3767  1.0744 -0.9811
   19MOL   H204 7080   4.402   0.001   0.950  1.0051 -0.3386 -1.7137
   19MOL   H205 7081   4.382   8.060   1.124  0.7800 -0.6997  1.2191
   19MOL   H206 7082   4.535   0.030   1.057 -1.7903  1.2016 -0.4300
   19MOL   H207 7083   4.312   7.868   0.904  2.3153  2.6804 -1.6209
   19MOL   H208 7084   4.355   7.632   0.863 -1.6983  0.1692  0.8895
   19MOL   H209 7085   4.723   7.354   0.886  0.3817  0.0951  0.4959
   19MOL   H210 7086   4.754   7.531   0.872  0.5773 -0.9049 -1.2539
   19MOL   C211 7087   4.621   7.456   0.720 -0.5812 -0.3451 -0.3308
   19MOL   C212 7088   4.547   7.326   0.683 -0.1873  0.1757 -0.2095
   19MOL   C213 7089   4.406   7.320   0.680 -0.4069 -0.2052  0.0679
   19MOL   C214 7090   4.340   7.201   0.640 -0.4656  0.8149 -0.6866
   19MOL   C215 7091   4.418   7.089   0.598 -0.5357  0.6062 -0.1086
   19MOL   C216 7092   4.352   6.964   0.551 -0.1498  0.1891  0.2102
   19MOL   C217 7093   4.556   7.093   0.605 -0.3984 -0.6393  0.2067
   19MOL   C218 7094   4.618   7.213   0.638 -0.2191  0.1627 -0.6936
   19MOL   C219 7095   4.724   7.499   0.615 -0.1023  0.5144 -0.4382
   19MOL   H220 7096   4.541   7.530   0.715 -1.7451 -1.6749 -1.9523
   19MOL   H221 7097   4.345   7.405   0.707 -1.0869 -0.8282  0.5217
   19MOL   H222 7098   4.233   7.192   0.642 -0.5058  1.4544  0.9676
   19MOL   H223 7099   4.244   6.967   0.565 -0.0807  1.3179  0.5580
   19MOL   H224 7100   4.373   6.944   0.445  3.2242  0.2025  0.8133
   19MOL   H225 7101   4.374   6.877   0.612 -0.3384 -0.9721 -1.3405
   19MOL   H226 7102   4.618   7.008   0.580 -2.5560 -1.8786 -1.0394
   19MOL   H227 7103   4.725   7.205   0.632 -0.2281 -0.8335  0.3118
   19MOL   H228 7104   4.705   7.445   0.522 -0.9881  0.6579 -0.3443
   19MOL   H229 7105   4.817   7.452   0.647  0.4037  0.5275 -1.8164
   19MOL   C230 7106   4.744   7.653   0.604  0.2136  0.1847 -0.5033
   19MOL   C231 7107   4.620   7.714   0.538 -0.5966  0.7221 -0.0715
   19MOL   C232 7108   4.549   7.808   0.611  0.0056 -0.2380  0.0563
   19MOL   C233 7109   4.433   7.869   0.561 -0.4350  0.3322 -0.2011
   19MOL   C234 7110   4.386   7.835   0.432  1.0552  0.0950  0.2137
   19MOL   C235 7111   4.259   7.895   0.377 -0.2163  0.1791 -0.8527
   19MOL   C236 7112   4.467   7.742   0.356 -0.0636 -0.0662 -0.6447
   19MOL   C237 7113   4.579   7.681   0.406 -0.0544 -0.0691 -0.1032
   19MOL   C238 7114   4.867   7.705   0.533 -0.2011 -0.3775 -0.1165
   19MOL   H239 7115   4.737   7.693   0.705  3.9530  1.0565 -0.5390
   19MOL   H240 7116   4.580   7.834   0.710 -4.4854  0.2367  1.4683
   19MOL   H241 7117   4.392   7.947   0.623  2.0919  0.5876  1.2414
   19MOL   H242 7118   4.276   7.954   0.287 -1.1575 -0.1300 -1.2400
   19MOL   H243 7119   4.183   7.817   0.369  0.8401 -1.1758  1.8738
   19MOL   H244 7120   4.230   7.969   0.451 -0.3276  1.0383 -1.7399
   19MOL   H245 7121   4.430   7.713   0.259  1.2814 -0.9429 -0.9088
   19MOL   H246 7122   4.636   7.606   0.353 -0.4159 -2.4708  2.7700
   19MOL   H247 7123   4.867   7.813   0.547  2.8587 -0.4029  0.3926
   19MOL   H248 7124   4.859   7.693   0.425  0.2825  2.4665 -0.4901
   19MOL   C249 7125   5.006   7.657   0.587  0.4162 -0.5071  0.4669
   19MOL   C250 7126   5.017   7.653   0.738 -0.2563  0.6060 -0.9624
   19MOL   C251 7127   5.090   7.550   0.796 -0.4451  0.3066  0.1240
   19MOL   C252 7128   5.110   7.546   0.936  0.4663 -0.4898  0.4710
   19MOL   C253 7129   5.051   7.648   1.020  0.0085 -0.1185 -0.1839
   19MOL   C254 7130   5.062   7.643   1.169  0.5405 -0.4387  0.1738
   19MOL   C255 7131   4.971   7.745   0.966 -0.3722 -0.2560  0.0521
   19MOL   C256 7132   4.963   7.755   0.826  0.1867  0.0367 -0.1722
   19MOL   C257 7133   5.122   7.748   0.532 -1.1717 -0.7217  0.1429
   19MOL   H258 7134   5.014   7.556   0.545  0.2460 -0.9611  1.5303
   19MOL   H259 7135   5.130   7.472   0.733  1.7954 -1.2162  3.2291
   19MOL   H260 7136   5.160   7.464   0.985  0.4386 -1.1108 -0.5282
   19MOL   H261 7137   4.970   7.605   1.215 -0.0026  0.1615 -0.4095
   19MOL   H262 7138   5.144   7.574   1.184 -1.8178 -3.7175 -1.3522
   19MOL   H263 7139   5.080   7.745   1.202 -0.9523  0.2039 -0.9476
   19MOL   H264 7140   4.913   7.812   1.028 -2.2919  0.3433 -2.2860
   19MOL   H265 7141   4.915   7.840   0.781  2.2603  0.3315 -1.9615
   19MOL   H266 7142   5.215   7.722   0.584 -1.2123 -2.4400 -0.6148
   19MOL   H267 7143   5.101   7.849   0.567  3.8063  0.2580  0.7475
   19MOL   C268 7144   5.128   7.765   0.379  0.0803  0.2409  0.1097
   19MOL   C269 7145   5.196   7.648   0.311  0.0654 -0.2604 -0.4567
   19MOL   C270 7146   5.323   7.601   0.348 -0.0926 -0.0901 -0.1837
   19MOL   C271 7147   5.384   7.498   0.278 -0.2238  0.1625  0.1728
   19MOL   C272 7148   5.324   7.438   0.171  0.3603 -0.3701  0.8337
   19MOL   C273 7149   5.405   7.340   0.089 -0.2369 -0.2041 -0.1517
   19MOL   C274 7150   5.196   7.480   0.138 -0.2340 -0.4241  0.0114
   19MOL   C275 7151   5.130   7.584   0.202 -0.5381 -0.1568 -0.1796
   19MOL   C276 7152   5.178   7.901   0.330 -0.1417 -0.2351 -0.1830
   19MOL   H277 7153   5.025   7.767   0.342 -0.0367 -0.0410  0.4263
   19MOL   H278 7154   5.353   7.629   0.448 -0.2577 -2.0022  0.4158
   19MOL   H279 7155   5.481   7.457   0.305 -0.5825  0.6216  2.2232
   19MOL   H280 7156   5.378   7.236   0.107 -0.9895 -0.0608 -0.4534
   19MOL   H281 7157   5.381   7.364   8.065  0.2173  2.9240  0.4282
   19MOL   H282 7158   5.511   7.352   0.111 -0.8223  2.4307  1.4105
   19MOL   H283 7159   5.148   7.443   0.049  1.2100 -1.0967 -0.5166
   19MOL   H284 7160   5.036   7.627   0.170 -0.6269 -0.8595 -0.8607
   19MOL   H285 7161   5.203   7.889   0.225 -2.8019  0.2362 -0.9069
   19MOL   H286 7162   5.274   7.911   0.382 -0.3448  1.0648 -0.0478
   19MOL   C287 7163   5.088   8.020   0.347  0.6493 -0.3241  0.3061
   19MOL   C288 7164   4.962   8.016   0.249 -0.0718 -0.3751 -0.1763
   19MOL   C289 7165   4.979   8.004   0.110  1.0165  0.8147 -0.2165
   19MOL   C290 7166   4.872   7.986   0.021  0.3858  0.3909  0.7865
   19MOL   C291 7167   4.740   7.975   0.071 -0.5323 -0.1292 -0.0456
   19MOL   C292 7168   4.624   7.965   8.055 -0.3544 -0.1291  0.2375
   19MOL   C293 7169   4.723   7.964   0.215 -0.7725 -0.1197 -0.8024
   19MOL   C294 7170   4.831   7.998   0.304  0.6163 -0.1177 -0.3704
   19MOL   C295 7171   5.166   0.070   0.319  0.0863 -0.2044 -0.0261
   19MOL   H296 7172   5.046   8.021   0.447  0.8265 -1.9361  0.4061
   19MOL   H297 7173   5.084   8.007   0.085  0.8102 -0.4708 -1.3071
   19MOL   H298 7174   4.900   7.976   7.997  0.2275 -0.0728  0.7878
   19MOL   H299 7175   4.534   7.929   0.024  1.7159 -2.1628  2.7269
   19MOL   H300 7176   4.602   8.059   8.004 -2.7531  0.0894  1.5847
   19MOL   H301 7177   4.650   7.883   7.988  0.2949  0.1197  0.1766
   19MOL   H302 7178   4.626   7.955   0.263 -0.3574  1.8137  0.4932
   19MOL   H303 7179   4.821   8.012   0.411 -1.5240 -0.4733 -0.5088
   19MOL   H304 7180   5.099   0.152   0.291 -1.0374 -1.0274  0.2244
   19MOL   H305 7181   5.235   0.054   0.236 -0.2273  1.3924 -0.6271
   19MOL   C306 7182   5.246   0.118   0.438  0.4016 -0.4076  0.0681
   19MOL   C307 7183   5.169   0.120   0.571 -0.0533  0.2705  0.0141
   19MOL   C308 7184   5.185   0.027   0.674  0.4432  0.5031 -0.3578
   19MOL   C309 7185   5.091   0.021   0.784 -0.2291 -0.2977 -0.4019
   19MOL   C310 7186   4.995   0.118   0.803 -0.0156  0.3145 -0.4791
   19MOL   C311 7187   4.896   0.110   0.914 -0.1515  0.1449 -0.7644
   19MOL   C312 7188   4.994   0.225   0.707  0.3799  0.5892 -0.6310
   19MOL   C313 7189   5.080   0.227   0.591  0.0064  0.4423  0.2805
   19MOL   C314 7190   5.320   0.246   0.393  0.2675 -0.7644 -0.2043
   19MOL   H315 7191   5.323   0.042   0.447 -0.2210 -1.0361  0.1302
   19MOL   H316 7192   5.272   8.042   0.675  0.7662  0.9398 -0.0665
   19MOL   H317 7193   5.107   8.024   0.858 -0.5678  0.5664  0.5765
   19MOL   H318 7194   4.823   0.190   0.908  0.8591  1.0538 -1.1472
   19MOL   H319 7195   4.845   0.014   0.921  0.9985 -0.4634 -0.6561
   19MOL   H320 7196   4.946   0.115   1.011 -0.0072  2.2630 -0.9255
   19MOL   H321 7197   4.921   0.302   0.727  0.0461  0.1297 -0.0645
   19MOL   H322 7198   5.061   0.298   0.512 -2.5646 -0.8047 -0.2807
   19MOL   H323 7199   5.252   0.317   0.347  1.0249  0.1061  0.0242
   19MOL   H324 7200   5.390   0.218   0.314  0.7169  3.2017 -1.2794
   19MOL   C325 7201   5.383   0.323   0.512 -0.3859  0.2815  0.1968
   19MOL   C326 7202   5.433   0.463   0.464 -0.0401  0.1372 -0.0861
   19MOL   C327 7203   5.557   0.483   0.402  0.0472 -0.7462  0.7717
   19MOL   C328 7204   5.607   0.618   0.377  0.5965 -0.0604  0.1815
   19MOL   C329 7205   5.522   0.728   0.411 -0.0513 -0.6702 -0.5207
   19MOL   C330 7206   5.569   0.881   0.397 -0.5064  0.0324  0.1828
   19MOL   C331 7207   5.393   0.706   0.465 -0.4882  0.1816  0.0522
   19MOL   C332 7208   5.354   0.574   0.494  0.0332  0.4213 -0.9822
   19MOL   C333 7209   5.494   0.241   0.577  0.2703 -0.7315  0.1374
   19MOL   H334 7210   5.309   0.355   0.585 -1.1826 -1.3564  0.1388
   19MOL   H335 7211   5.630   0.406   0.383  0.8534 -0.4957  2.8007
   19MOL   H336 7212   5.707   0.627   0.339  0.3212 -1.3277 -0.8569
   19MOL   H337 7213   5.633   0.913   0.479 -0.5136  0.4721  0.0187
   19MOL   H338 7214   5.615   0.893   0.298 -0.1340 -0.3851  0.3015
   19MOL   H339 7215   5.485   0.950   0.401 -1.8442 -1.5446 -0.0110
   19MOL   H340 7216   5.320   0.780   0.495 -0.3793 -0.6793  2.5759
   19MOL   H341 7217   5.268   0.563   0.559  0.5845  2.7686  0.1917
   19MOL   H342 7218   5.556   0.204   0.495  1.8134 -0.1290  1.0084
   19MOL   H343 7219   5.440   0.156   0.618  0.1438 -1.3742 -1.2968
   19MOL   C344 7220   5.579   0.311   0.684  0.1244 -0.0066 -0.2014
   19MOL   C345 7221   5.679   0.207   0.738 -0.6938  0.0540 -0.0293
   19MOL   C346 7222   5.815   0.230   0.732  0.0863  0.1589  0.6761
   19MOL   C347 7223   5.905   0.136   0.791 -1.0633 -0.7729  0.5767
   19MOL   C348 7224   5.859   0.020   0.853 -0.0360  0.1998 -0.3283
   19MOL   C349 7225   5.964   8.011   0.918 -0.6464 -0.1070 -0.3647
   19MOL   C350 7226   5.720   8.073   0.859  0.3012  0.0225 -0.6356
   19MOL   C351 7227   5.631   0.084   0.792  1.2748  0.6958 -0.4891
   19MOL   C352 7228   5.498   0.378   0.793  0.0535 -0.1261 -0.4616
   19MOL   H353 7229   5.638   0.392   0.640 -1.8884  1.3332 -0.4806
   19MOL   H354 7230   5.847   0.317   0.677 -2.0185  0.7246  0.3258
   19MOL   H355 7231   6.008   0.166   0.788 -2.0310  2.9830  1.8725
   19MOL   H356 7232   5.936   7.914   0.878  1.1846  0.0859 -2.1731
   19MOL   H357 7233   6.069   8.031   0.897 -0.4071  0.9230  1.6233
   19MOL   H358 7234   5.937   8.008   1.024 -2.2184 -1.1712 -0.7757
   19MOL   H359 7235   5.683   7.980   0.900  0.4148  1.0992  2.0413
   19MOL   H360 7236   5.526   0.060   0.801  1.1687 -0.1000 -3.3146
   19MOL   H361 7237   5.442   0.299   0.844  1.1865  0.6675  2.1196
   19MOL   H362 7238   5.419   0.439   0.751 -1.7934 -1.9339  0.2960
   19MOL   C363 7239   5.581   0.448   0.899  0.7305 -0.7613  0.8453
   19MOL   C364 7240   5.511   0.439   1.037  0.3528 -0.1761  0.6269
   19MOL   C365 7241   5.377   0.472   1.051  0.3642  0.9363 -0.3550
   19MOL   C366 7242   5.308   0.475   1.176  0.0471 -0.1818  0.1044
   19MOL   C367 7243   5.386   0.450   1.291  0.5643 -0.3592 -0.5047
   19MOL   C368 7244   5.320   0.467   1.420 -0.0926  0.0846 -0.2510
   19MOL   C369 7245   5.525   0.421   1.281  0.1464  0.1000  0.1023
   19MOL   C370 7246   5.593   0.423   1.154 -0.2234 -0.6704  0.0519
   19MOL   C371 7247   5.609   0.598   0.853 -0.5733 -0.7152  0.4032
   19MOL   H372 7248   5.679   0.401   0.911 -0.0051 -1.8883  2.7475
   19MOL   H373 7249   5.315   0.487   0.964 -0.4463  0.2661  0.1043
   19MOL   H374 7250   5.209   0.516   1.184  0.2902  0.3643  0.3501
   19MOL   H375 7251   5.313   0.379   1.484 -0.7609  1.1683  1.1858
   19MOL   H376 7252   5.359   0.548   1.481  0.8801  0.1334 -0.9270
   19MOL   H377 7253   5.213   0.487   1.415  0.0327  0.4176 -1.8099
   19MOL   H378 7254   5.577   0.407   1.374 -0.7878 -0.0120  0.6089
   19MOL   H379 7255   5.698   0.406   1.141  0.1065 -0.1319  1.9000
   19MOL   H380 7256   5.655   0.648   0.938  0.7496  0.3694 -0.9316
   19MOL   H381 7257   5.512   0.648   0.853 -0.6181 -0.7750  2.0555
   19MOL   H382 7258   5.663   0.600   0.759 -2.6051  2.6552 -0.7951
   20MOL     C1 7259   0.164   0.482   5.369 -0.0656  0.2626 -0.2907
   20MOL     C2 7260   0.201   0.631   5.348 -0.2959  0.0306 -0.2613
   20MOL     C3 7261   0.338   0.663   5.335  0.5514  0.0427 -0.0376
   20MOL     C4 7262   0.381   0.797   5.340  0.9664  0.5967 -0.0186
   20MOL     C5 7263   0.285   0.901   5.359 -0.7036 -0.3872  0.0617
   20MOL     C6 7264   0.331   1.045   5.374 -0.0498 -0.1402  0.9753
   20MOL     C7 7265   0.145   0.865   5.378  0.5670 -0.7582  0.3146
   20MOL     C8 7266   0.101   0.732   5.370 -0.0341 -0.0009 -0.6656
   20MOL     C9 7267   0.082   0.426   5.250  0.3342 -0.3064 -0.1255
   20MOL    H10 7268   0.259   0.429   5.382 -0.7281 -0.6911  0.7089
   20MOL    H11 7269   0.416   0.588   5.329  2.2042  1.6355  1.0648
   20MOL    H12 7270   0.488   0.812   5.349  1.1234  0.3531 -1.4227
   20MOL    H13 7271   0.257   1.122   5.396 -0.7842 -0.4740 -0.2889
   20MOL    H14 7272   0.420   1.053   5.436  0.8438  0.4623 -0.3516
   20MOL    H15 7273   0.363   1.083   5.277 -2.6957  1.1081  0.5410
   20MOL    H16 7274   0.066   0.938   5.391  0.6832 -0.6461  0.4043
   20MOL    H17 7275   8.077   0.704   5.375 -0.0584 -0.2605 -2.2523
   20MOL    H18 7276   0.146   0.350   5.205  2.3207 -2.0469  5.2349
   20MOL    H19 7277   0.060   0.514   5.190 -1.4465  0.5270  1.6962
   20MOL    H20 7278   0.110   0.468   5.463 -0.8985  0.9404 -0.6598
   20MOL    C21 7279   8.024   0.365   5.289 -0.1796  0.1475 -0.1106
   20MOL    C22 7280   7.936   0.473   5.359 -0.1176 -0.2904  0.2792
   20MOL    C23 7281   7.917   0.465   5.497 -0.8849  0.6788  0.0695
   20MOL    C24 7282   7.818   0.547   5.553  0.3039 -0.5844 -0.4911
   20MOL    C25 7283   7.751   0.638   5.469 -0.1244 -0.7475 -0.7467
   20MOL    C26 7284   7.651   0.733   5.526 -0.0463  0.8722 -0.1148
   20MOL    C27 7285   7.777   0.646   5.328 -0.6647 -0.2251 -0.3219
   20MOL    C28 7286   7.874   0.564   5.273 -0.0424  0.3868  0.0328
   20MOL    C29 7287   8.026   0.226   5.363  0.4170 -0.0868  0.2206
   20MOL    H30 7288   7.965   0.359   5.197  0.0732 -2.4745 -0.1412
   20MOL    H31 7289   7.977   0.402   5.560 -0.7478  0.7108 -0.0299
   20MOL    H32 7290   7.801   0.563   5.659 -1.4690  1.6993 -1.0709
   20MOL    H33 7291   7.601   0.695   5.615 -2.4140 -0.9486 -2.1601
   20MOL    H34 7292   7.702   0.821   5.565  1.3589  0.6362 -1.3660
   20MOL    H35 7293   7.572   0.754   5.454 -0.1342  3.2533  0.6381
   20MOL    H36 7294   7.730   0.730   5.278 -1.3539 -1.1546 -1.2534
   20MOL    H37 7295   7.893   0.573   5.167 -2.6779  2.8506 -0.3104
   20MOL    H38 7296   8.072   0.230   5.461  0.9498  0.1136 -0.0359
   20MOL    H39 7297   0.003   0.161   5.297  0.3355 -1.6374  1.6707
   20MOL    C40 7298   7.887   0.164   5.378  0.6633  0.5258  0.4254
   20MOL    C41 7299   7.844   0.130   5.520 -0.0373  0.0952 -0.1176
   20MOL    C42 7300   7.720   0.162   5.570 -0.8216 -0.9975  0.5318
   20MOL    C43 7301   7.686   0.139   5.704 -0.0977 -0.0199 -0.0875
   20MOL    C44 7302   7.776   0.086   5.796 -0.2226  0.2221  0.2171
   20MOL    C45 7303   7.732   0.064   5.942 -0.3218  0.4399 -0.6777
   20MOL    C46 7304   7.905   0.052   5.747  0.0810 -0.4246  0.5552
   20MOL    C47 7305   7.937   0.075   5.614 -0.7011 -0.6086 -0.5343
   20MOL    C48 7306   7.864   0.039   5.288 -0.2189 -0.3616 -0.1740
   20MOL    H49 7307   7.811   0.235   5.345 -0.7236 -0.8753  0.5338
   20MOL    H50 7308   7.653   0.207   5.498  0.7941  1.1165  0.3084
   20MOL    H51 7309   7.588   0.178   5.725 -1.3593 -1.5540 -2.8782
   20MOL    H52 7310   7.785   0.144   5.994 -1.9801  2.0679 -1.4263
   20MOL    H53 7311   7.624   0.073   5.955 -0.4567  0.4372 -1.7828
   20MOL    H54 7312   7.767   8.054   5.992 -1.9558  0.2441  0.1614
   20MOL    H55 7313   7.981   0.019   5.816 -0.5702  0.2403  1.5945
   20MOL    H56 7314   8.034   0.045   5.580  0.1999  2.4916 -0.7964
   20MOL    H57 7315   7.772   8.071   5.321 -1.3331  1.1616 -1.0240
   20MOL    H58 7316   7.946   8.052   5.315  0.9822  1.2868  0.3512
   20MOL    C59 7317   7.843   0.066   5.135  0.3063  0.6877  0.3840
   20MOL    C60 7318   7.725   0.157   5.099  0.3051  0.1808  0.2556
   20MOL    C61 7319   7.735   0.263   5.008 -0.5098 -0.1669  0.8913
   20MOL    C62 7320   7.622   0.332   4.971  0.0742  0.2272 -0.4698
   20MOL    C63 7321   7.495   0.301   5.028  0.0879 -0.2743  0.0239
   20MOL    C64 7322   7.378   0.391   4.992 -0.1866  0.4797 -0.5524
   20MOL    C65 7323   7.478   0.193   5.114  0.4930 -0.2071  0.4916
   20MOL    C66 7324   7.595   0.129   5.159 -0.3306  0.4055  0.7668
   20MOL    C67 7325   7.868   8.017   5.051 -0.0380 -0.0221 -0.5680
   20MOL    H68 7326   7.917   0.139   5.103 -0.0326  2.1078  2.7605
   20MOL    H69 7327   7.825   0.282   4.951  0.0733 -1.9814  1.1650
   20MOL    H70 7328   7.641   0.414   4.903 -1.4402  1.0221  0.0387
   20MOL    H71 7329   7.295   0.345   4.938 -0.2859 -0.5974  0.5081
   20MOL    H72 7330   7.336   0.426   5.086 -0.5701 -1.9749  0.2100
   20MOL    H73 7331   7.415   0.482   4.946 -0.6589  2.7826  3.4020
   20MOL    H74 7332   7.380   0.168   5.152  0.6902 -1.0829  0.4285
   20MOL    H75 7333   7.578   0.044   5.224  0.8928 -0.7193 -0.3565
   20MOL    H76 7334   7.783   8.019   4.982 -0.1049 -3.0453 -0.6597
   20MOL    H77 7335   7.852   7.928   5.112  0.1799 -2.0281 -3.3127
   20MOL    C78 7336   8.006   7.993   4.985  0.2676  0.2217 -0.5562
   20MOL    C79 7337   8.056   0.035   4.913  0.0370 -0.4582 -0.3488
   20MOL    C80 7338   7.971   0.093   4.816  0.3814 -0.1011  0.6073
   20MOL    C81 7339   8.015   0.212   4.746 -0.0121  0.3736  0.0480
   20MOL    C82 7340   0.058   0.268   4.778 -0.6891 -0.9129  0.2309
   20MOL    C83 7341   0.092   0.402   4.717 -0.6530 -0.2220  0.6060
   20MOL    C84 7342   0.147   0.209   4.876  1.1189  0.3106  0.6107
   20MOL    C85 7343   0.105   0.090   4.938 -0.3058 -0.3040  0.2635
   20MOL    C86 7344   8.005   7.866   4.897  0.2261  0.2834  0.6122
   20MOL    H87 7345   8.075   7.976   5.067  1.4686  1.3139 -1.3246
   20MOL    H88 7346   7.867   0.062   4.809  0.7551 -0.8260 -1.8848
   20MOL    H89 7347   7.954   0.262   4.671 -0.2734 -1.8029 -1.2261
   20MOL    H90 7348   0.008   0.471   4.728 -0.7051 -0.1046 -0.4031
   20MOL    H91 7349   0.182   0.437   4.765 -0.7639 -0.2177  0.8104
   20MOL    H92 7350   0.107   0.387   4.610  1.5914  1.0381  0.7278
   20MOL    H93 7351   0.242   0.257   4.894  1.7876 -0.6085 -0.4070
   20MOL    H94 7352   0.169   0.045   5.013  1.5338 -1.0237 -1.6917
   20MOL    H95 7353   0.025   7.851   4.855 -0.2792  0.0000 -0.5262
   20MOL    H96 7354   7.944   7.906   4.816  0.0506 -0.6326  0.2720
   20MOL    C97 7355   7.959   7.728   4.944  0.5292 -0.0369  0.2718
   20MOL    C98 7356   8.067   7.656   5.035  0.2997  0.0660  0.3499
   20MOL    C99 7357   8.047   7.645   5.179 -0.8416  0.4548  0.4008
   20MOL   C100 7358   0.066   7.579   5.259 -0.4453 -0.3458 -0.3142
   20MOL   C101 7359   0.181   7.532   5.202 -0.4681  0.2574 -0.4103
   20MOL   C102 7360   0.286   7.459   5.286 -0.1669 -0.0482 -0.3732
   20MOL   C103 7361   0.201   7.544   5.062  0.3802  0.1283  0.2893
   20MOL   C104 7362   0.105   7.599   4.978  0.0581  0.0836 -0.0956
   20MOL   C105 7363   7.916   7.632   4.834 -0.0904  0.0286  0.6353
   20MOL   H106 7364   7.873   7.730   5.011  0.4524 -0.5887  0.1932
   20MOL   H107 7365   7.960   7.691   5.223 -1.5110  0.3101 -0.7404
   20MOL   H108 7366   0.047   7.556   5.363 -0.0358  2.0056  0.3133
   20MOL   H109 7367   0.244   7.364   5.319  0.1207 -0.1142 -0.1956
   20MOL   H110 7368   0.361   7.435   5.211  1.6155  0.2325  1.2597
   20MOL   H111 7369   0.321   7.515   5.373  0.4379 -0.0700 -0.6017
   20MOL   H112 7370   0.292   7.505   5.019  0.4431 -0.4024  0.8950
   20MOL   H113 7371   0.117   7.587   4.872 -4.3778  0.1053 -0.7066
   20MOL   H114 7372   7.884   7.542   4.885 -0.1578 -0.4414 -0.2225
   20MOL   H115 7373   8.000   7.602   4.771 -0.3933 -0.3898  0.4284
   20MOL   C116 7374   7.795   7.669   4.743  0.2647 -0.2143  0.1807
   20MOL   C117 7375   7.678   7.729   4.827  0.1328  0.3244  0.5875
   20MOL   C118 7376   7.625   7.859   4.807 -0.1187 -0.5839 -0.5969
   20MOL   C119 7377   7.524   7.909   4.890 -0.7404  0.5550  0.0296
   20MOL   C120 7378   7.474   7.830   4.996 -0.2801  0.6132 -0.1243
   20MOL   C121 7379   7.371   7.891   5.091 -0.0278  0.7494  0.3040
   20MOL   C122 7380   7.521   7.697   5.015 -0.3036  0.0659  0.0090
   20MOL   C123 7381   7.621   7.649   4.932 -0.2258  0.6418 -0.4653
   20MOL   C124 7382   7.747   7.565   4.650 -0.0994  0.0504  0.2301
   20MOL   H125 7383   7.839   7.745   4.679  1.3242 -1.1343 -0.1855
   20MOL   H126 7384   7.664   7.932   4.738 -1.9141  2.9460  1.9686
   20MOL   H127 7385   7.487   8.009   4.869  1.4797  1.0529 -1.7818
   20MOL   H128 7386   7.301   7.818   5.132 -0.1122  1.2182  0.9986
   20MOL   H129 7387   7.428   7.935   5.173  2.9683 -1.1291 -0.6760
   20MOL   H130 7388   7.295   7.959   5.054 -1.1763  0.0637  1.3767
   20MOL   H131 7389   7.474   7.636   5.091 -0.0214 -0.3010 -0.1151
   20MOL   H132 7390   7.660   7.550   4.949  0.1534  0.8531 -0.1188
   20MOL   H133 7391   7.702   7.478   4.699 -1.1028 -0.7786 -2.1020
   20MOL   H134 7392   7.836   7.526   4.602 -0.9667  0.4130 -1.7161
   20MOL   C135 7393   7.651   7.619   4.543 -0.4783 -0.0745 -0.0250
   20MOL   C136 7394   7.513   7.552   4.553  0.0197  0.1834  0.7100
   20MOL   C137 7395   7.499   7.411   4.528  0.2520  0.4547 -0.6141
   20MOL   C138 7396   7.377   7.358   4.493  0.4203 -0.1501  0.5130
   20MOL   C139 7397   7.262   7.440   4.475  0.6533 -0.4353  0.8663
   20MOL   C140 7398   7.125   7.387   4.427  0.0571 -0.1805 -0.2871
   20MOL   C141 7399   7.271   7.580   4.496  0.1137  0.0820  0.0332
   20MOL   C142 7400   7.399   7.635   4.539 -0.5289 -0.4337 -0.2106
   20MOL   C143 7401   7.715   7.598   4.404 -0.1069 -0.0433  0.0804
   20MOL   H144 7402   7.624   7.725   4.553  1.7627  0.3695  1.9211
   20MOL   H145 7403   7.588   7.349   4.525 -0.1744 -0.1292 -1.5817
   20MOL   H146 7404   7.382   7.252   4.473  2.0135  0.1069 -0.5418
   20MOL   H147 7405   7.126   7.279   4.446  1.3026 -0.7307 -3.2434
   20MOL   H148 7406   7.043   7.435   4.482  0.4489 -1.5170  1.5255
   20MOL   H149 7407   7.115   7.397   4.319  1.5677  1.1961 -0.3007
   20MOL   H150 7408   7.187   7.647   4.485  1.3258  1.4970 -0.8352
   20MOL   H151 7409   7.403   7.739   4.569  1.7856 -0.6361  0.2513
   20MOL   H152 7410   7.634   7.613   4.334  0.2312  2.2682  0.1516
   20MOL   H153 7411   7.750   7.495   4.393 -0.8876 -0.2298 -0.6540
   20MOL   C154 7412   7.829   7.690   4.375 -0.4160  0.0690  0.0837
   20MOL   C155 7413   7.790   7.838   4.383  0.4176 -0.2115  0.1494
   20MOL   C156 7414   7.866   7.931   4.459  0.4273 -0.1291  0.5103
   20MOL   C157 7415   7.834   8.071   4.449 -0.1891 -0.1098  0.7414
   20MOL   C158 7416   7.730   0.041   4.368 -0.4327  0.8115 -0.1310
   20MOL   C159 7417   7.685   0.188   4.359  0.1592 -0.8076 -0.3119
   20MOL   C160 7418   7.657   8.021   4.299  0.1384 -0.1404 -0.5467
   20MOL   C161 7419   7.685   7.885   4.303  0.6720 -0.1157 -0.5849
   20MOL   C162 7420   7.900   7.658   4.247  0.5746  0.4784  0.1676
   20MOL   H163 7421   7.899   7.677   4.458  1.4787 -0.7960 -1.6294
   20MOL   H164 7422   7.944   7.899   4.526 -0.9073 -1.7249  1.3189
   20MOL   H165 7423   7.884   0.067   4.506 -1.1193  1.8914 -1.0550
   20MOL   H166 7424   7.588   0.193   4.309 -0.2537  0.4716  0.5959
   20MOL   H167 7425   7.670   0.238   4.455  1.5051  1.2619 -1.1621
   20MOL   H168 7426   7.751   0.243   4.292  0.6605 -1.3380 -0.2576
   20MOL   H169 7427   7.566   8.046   4.247 -0.2517 -1.0614 -0.3139
   20MOL   H170 7428   7.620   7.813   4.256  0.1704 -0.3402  0.4516
   20MOL   H171 7429   7.836   7.689   4.165 -0.7316 -0.1297  0.9503
   20MOL   H172 7430   7.923   7.552   4.244  0.9407  0.5505  0.3479
   20MOL   C173 7431   8.033   7.733   4.228 -0.4276 -0.1856  0.3162
   20MOL   C174 7432   8.073   7.702   4.082 -0.0240  0.1427 -0.5691
   20MOL   C175 7433   0.045   7.576   4.052 -0.1948 -0.0392 -0.4674
   20MOL   C176 7434   0.106   7.555   3.927 -0.0499  0.0142  0.2394
   20MOL   C177 7435   0.096   7.648   3.818  0.7948 -0.4239 -0.3085
   20MOL   C178 7436   0.150   7.621   3.683  0.3350  0.3252  0.0140
   20MOL   C179 7437   0.027   7.767   3.850  0.1180  0.4108 -0.1567
   20MOL   C180 7438   8.058   7.792   3.976 -0.1448 -0.1845 -0.5028
   20MOL   C181 7439   0.065   7.694   4.331  1.2613 -0.4640 -0.4692
   20MOL   H182 7440   8.015   7.840   4.234 -1.6889 -0.2930 -1.0845
   20MOL   H183 7441   0.058   7.511   4.137  0.1199 -0.3148 -0.7249
   20MOL   H184 7442   0.156   7.462   3.907 -0.2263 -0.0233 -0.0203
   20MOL   H185 7443   0.167   7.711   3.624 -1.6221  0.7644  0.0859
   20MOL   H186 7444   0.241   7.561   3.683 -0.7986 -1.3932 -0.2125
   20MOL   H187 7445   0.074   7.563   3.631  1.7246 -1.0502 -0.5378
   20MOL   H188 7446   0.012   7.845   3.777 -1.9948 -0.2696 -0.4914
   20MOL   H189 7447   8.018   7.890   3.995 -0.5040 -0.8755  2.5898
   20MOL   H190 7448   0.056   7.585   4.330 -1.2958 -0.3046  1.3395
   20MOL   H191 7449   0.030   7.716   4.432 -2.0336 -2.0648 -1.2017
   20MOL   C192 7450   0.211   7.745   4.308 -0.7787  0.5160  0.2832
   20MOL   C193 7451   0.307   7.668   4.388 -0.0047 -0.4187  0.5781
   20MOL   C194 7452   0.396   7.579   4.325  0.3618 -0.5163 -0.1196
   20MOL   C195 7453   0.479   7.494   4.402  0.0288 -0.5683  0.5172
   20MOL   C196 7454   0.482   7.498   4.544 -0.1103 -0.3457 -0.7337
   20MOL   C197 7455   0.573   7.405   4.621  0.1528 -0.9839 -0.0224
   20MOL   C198 7456   0.389   7.581   4.604 -0.2507  1.1530  0.1221
   20MOL   C199 7457   0.302   7.671   4.532  0.4419 -0.1406 -0.4632
   20MOL   C200 7458   0.225   7.893   4.327 -0.8185 -0.3035  0.0909
   20MOL   H201 7459   0.233   7.728   4.203 -1.3067  0.8713  0.1191
   20MOL   H202 7460   0.400   7.578   4.217 -0.2042 -0.6847 -0.1359
   20MOL   H203 7461   0.541   7.419   4.355  0.7086 -1.2211  2.4305
   20MOL   H204 7462   0.652   7.383   4.550  1.2855 -1.6115  1.4027
   20MOL   H205 7463   0.619   7.463   4.701  0.2718 -0.1753 -0.6722
   20MOL   H206 7464   0.530   7.311   4.655 -0.2062 -0.2769  1.5428
   20MOL   H207 7465   0.403   7.583   4.712  0.2533  0.9444  0.0654
   20MOL   H208 7466   0.241   7.733   4.595  0.0061 -0.1602 -0.8657
   20MOL   H209 7467   0.219   7.915   4.433  0.0599  2.0063 -0.3071
   20MOL   H210 7468   0.139   7.943   4.283 -0.3871  1.4062  1.1802
   20MOL   C211 7469   0.356   7.948   4.274 -0.3992 -0.0399 -0.5978
   20MOL   C212 7470   0.394   8.079   4.352  0.1769  0.5207 -0.5574
   20MOL   C213 7471   0.296   0.094   4.365 -0.3261  0.4802  0.8259
   20MOL   C214 7472   0.318   0.204   4.450 -0.3321 -0.5013  0.5883
   20MOL   C215 7473   0.438   0.216   4.515 -0.5323 -0.5978 -0.2929
   20MOL   C216 7474   0.449   0.335   4.612  0.6082 -0.1024 -0.1151
   20MOL   C217 7475   0.543   0.121   4.500  0.4579  0.2971  0.2309
   20MOL   C218 7476   0.518   0.015   4.413 -0.0218  0.0286 -0.3470
   20MOL   C219 7477   0.345   7.973   4.125  0.7271  0.6982 -0.3145
   20MOL   H220 7478   0.427   7.867   4.290  0.3830  0.3991 -1.7422
   20MOL   H221 7479   0.197   0.080   4.323  0.0566  0.5386 -0.0999
   20MOL   H222 7480   0.235   0.273   4.462 -0.3091 -0.0233 -1.7325
   20MOL   H223 7481   0.505   0.412   4.559 -0.1734 -1.1863 -2.5499
   20MOL   H224 7482   0.361   0.394   4.637  0.0685 -0.0850 -2.0204
   20MOL   H225 7483   0.507   0.317   4.703  2.5265 -2.7286 -1.8266
   20MOL   H226 7484   0.639   0.129   4.548  0.6960 -0.8498 -0.0327
   20MOL   H227 7485   0.597   8.023   4.399 -0.4544 -0.2916 -1.2003
   20MOL   H228 7486   0.286   8.064   4.115  0.3468  0.1628 -3.4185
   20MOL   H229 7487   0.271   7.911   4.074  0.3557 -0.7430  1.9063
   20MOL   C230 7488   0.461   7.969   4.025 -0.7766  0.0657  0.7972
   20MOL   C231 7489   0.514   7.827   4.015 -0.0597  0.1871 -0.1436
   20MOL   C232 7490   0.630   7.789   4.085 -0.2488  0.5249 -0.7548
   20MOL   C233 7491   0.671   7.653   4.083  0.4698  0.8401  0.1183
   20MOL   C234 7492   0.602   7.559   3.997 -0.6465  0.0498  0.0850
   20MOL   C235 7493   0.637   7.409   4.002  0.0861 -0.0326  0.2969
   20MOL   C236 7494   0.494   7.606   3.918  0.3962 -0.1352  0.2469
   20MOL   C237 7495   0.447   7.742   3.934  0.2862  0.8887 -0.6377
   20MOL   C238 7496   0.571   8.071   4.046  0.2963 -0.1966  0.5638
   20MOL   H239 7497   0.416   7.998   3.930 -0.3533 -0.9046  0.2910
   20MOL   H240 7498   0.696   7.853   4.142 -1.3025  2.9747 -2.2162
   20MOL   H241 7499   0.744   7.613   4.151 -1.5385 -1.3036  1.0825
   20MOL   H242 7500   0.538   7.364   3.986  0.5964 -0.6687 -1.1906
   20MOL   H243 7501   0.703   7.383   3.919 -1.9103 -1.0421 -1.0360
   20MOL   H244 7502   0.690   7.366   4.086  1.5185  2.0103  0.4774
   20MOL   H245 7503   0.446   7.549   3.840 -0.4741 -1.3941  1.6631
   20MOL   H246 7504   0.362   7.776   3.877 -0.4928  1.0136  0.5982
   20MOL   H247 7505   0.644   8.040   3.972  1.0711 -0.8075  1.5697
   20MOL   H248 7506   0.624   8.054   4.140  0.8042 -1.0923  0.1224
   20MOL   C249 7507   0.543   0.142   4.027  0.1559 -0.4123 -0.2642
   20MOL   C250 7508   0.497   0.169   3.885  0.4227 -0.2326  0.2444
   20MOL   C251 7509   0.593   0.197   3.779  0.3173 -0.4160  0.0150
   20MOL   C252 7510   0.538   0.231   3.652  0.0026 -0.6393 -0.2337
   20MOL   C253 7511   0.402   0.246   3.630  0.5359  0.0856  0.0711
   20MOL   C254 7512   0.344   0.302   3.500 -0.2090  0.2825  0.5334
   20MOL   C255 7513   0.311   0.210   3.731  0.0986 -0.1425  0.0990
   20MOL   C256 7514   0.360   0.174   3.857  0.9647  0.0757 -0.5036
   20MOL   C257 7515   0.660   0.233   4.075  0.3727  0.8011  0.6080
   20MOL   H258 7516   0.472   0.168   4.104  1.6900  0.5951  0.8344
   20MOL   H259 7517   0.696   0.179   3.806  0.9023  2.4437 -0.1125
   20MOL   H260 7518   0.611   0.240   3.573  1.9939  1.9897  1.8088
   20MOL   H261 7519   0.260   0.367   3.524  0.8034  1.8643 -0.1350
   20MOL   H262 7520   0.408   0.370   3.444  0.0672  2.0749  2.9670
   20MOL   H263 7521   0.302   0.224   3.436  0.6156  0.5529 -0.3553
   20MOL   H264 7522   0.204   0.219   3.722  0.2661  2.5075  0.2994
   20MOL   H265 7523   0.282   0.167   3.930  1.3722  0.2432 -0.0496
   20MOL   H266 7524   0.751   0.196   4.028  0.9210  3.1770 -0.3044
   20MOL   H267 7525   0.679   0.228   4.182  1.3462  1.1263  0.4598
   20MOL   C268 7526   0.643   0.389   4.054 -0.5729  0.3891 -0.1095
   20MOL   C269 7527   0.778   0.464   4.046  0.4229 -0.3713  0.1796
   20MOL   C270 7528   0.767   0.588   3.980 -0.9785 -0.0165 -0.3770
   20MOL   C271 7529   0.883   0.656   3.933  0.0871 -0.1108  0.4157
   20MOL   C272 7530   1.008   0.602   3.961 -0.2024  0.2777  0.0403
   20MOL   C273 7531   1.132   0.680   3.926  0.0030 -0.3603 -0.2985
   20MOL   C274 7532   1.020   0.478   4.037 -1.1495 -0.0536 -0.2538
   20MOL   C275 7533   0.900   0.407   4.081  0.5138 -0.0850 -0.0074
   20MOL   C276 7534   0.532   0.451   4.142 -0.3332  0.0306 -0.5335
   20MOL   H277 7535   0.620   0.402   3.949  2.6522 -0.0147 -0.8965
   20MOL   H278 7536   0.668   0.614   3.947 -0.8411  1.2696  0.1922
   20MOL   H279 7537   0.872   0.748   3.877  0.6262 -0.2754  0.0395
   20MOL   H280 7538   1.190   0.647   3.840  1.0772  1.7308 -0.4177
   20MOL   H281 7539   1.114   0.788   3.920 -2.4047 -0.6231  1.5343
   20MOL   H282 7540   1.209   0.661   4.001  0.1046 -3.4069 -1.1200
   20MOL   H283 7541   1.114   0.439   4.072 -0.6870  0.1113 -1.2980
   20MOL   H284 7542   0.895   0.308   4.123 -0.5463  0.0291  0.1649
   20MOL   H285 7543   0.562   0.551   4.174 -0.5736 -0.1264  0.2063
   20MOL   H286 7544   0.516   0.391   4.232  1.0776  1.0164  0.4079
   20MOL   C287 7545   0.391   0.471   4.078  0.0542  0.1227 -0.2886
   20MOL   C288 7546   0.384   0.594   3.992 -0.4464 -0.4108 -0.8956
   20MOL   C289 7547   0.402   0.725   4.048 -0.5131  0.0946  0.1756
   20MOL   C290 7548   0.397   0.838   3.963 -0.4844 -0.1811 -0.3002
   20MOL   C291 7549   0.374   0.822   3.825  0.1051  0.3608  0.8046
   20MOL   C292 7550   0.366   0.942   3.731 -0.2162  0.0574 -0.1782
   20MOL   C293 7551   0.353   0.693   3.767 -0.0972  0.2229  0.1162
   20MOL   C294 7552   0.364   0.578   3.854 -0.0172  0.3400  0.1334
   20MOL   C295 7553   0.276   0.467   4.180  0.2316 -0.0404  0.1546
   20MOL   H296 7554   0.376   0.387   4.010  2.9085  0.8234 -1.8757
   20MOL   H297 7555   0.427   0.742   4.152 -0.6011  1.4866 -0.0200
   20MOL   H298 7556   0.407   0.937   4.005 -3.1680 -0.8389  2.0404
   20MOL   H299 7557   0.415   1.018   3.792  1.7383 -1.1379 -0.2230
   20MOL   H300 7558   0.420   0.929   3.638 -0.0922 -1.9799  0.1402
   20MOL   H301 7559   0.263   0.973   3.714 -0.5590  0.5992  2.6073
   20MOL   H302 7560   0.324   0.681   3.664  3.2014  1.0679 -0.9667
   20MOL   H303 7561   0.345   0.482   3.808  3.3813  0.1772 -1.1088
   20MOL   H304 7562   0.299   0.543   4.255  0.2746  1.1153 -0.9987
   20MOL   H305 7563   0.277   0.370   4.228  0.0447 -1.1020 -1.9487
   20MOL   C306 7564   0.134   0.500   4.121 -0.3032 -1.1664  0.2687
   20MOL   C307 7565   0.047   0.525   4.243 -0.3355  0.2959  0.4471
   20MOL   C308 7566   0.014   0.659   4.283 -0.3628  0.5748 -0.0501
   20MOL   C309 7567   8.001   0.678   4.386 -0.5590 -0.2787 -0.3158
   20MOL   C310 7568   7.945   0.566   4.451 -0.3400  0.4638 -0.2450
   20MOL   C311 7569   7.845   0.597   4.556 -0.1447  0.1155 -0.1035
   20MOL   C312 7570   7.976   0.435   4.410  0.3373  0.3059  0.8556
   20MOL   C313 7571   8.072   0.414   4.309 -0.2625 -0.3467  0.1536
   20MOL   C314 7572   0.078   0.392   4.027 -0.2738  0.0245  0.2346
   20MOL   H315 7573   0.143   0.588   4.059 -1.1081 -0.5872  0.9666
   20MOL   H316 7574   0.049   0.747   4.231  2.6110 -0.7375 -0.3208
   20MOL   H317 7575   7.985   0.784   4.400  0.9083  0.1824 -1.9829
   20MOL   H318 7576   7.821   0.515   4.623  3.4457  0.6950  1.9649
   20MOL   H319 7577   7.882   0.680   4.616  0.2782 -0.4401  0.3947
   20MOL   H320 7578   7.753   0.637   4.512  1.0511  1.1287 -1.7353
   20MOL   H321 7579   7.926   0.350   4.456 -0.7075  1.3685  1.7042
   20MOL   H322 7580   0.022   0.313   4.283 -0.8849 -0.3671 -0.5141
   20MOL   H323 7581   0.083   0.296   4.077  1.5626  0.2080  0.4506
   20MOL   H324 7582   0.145   0.382   3.941 -0.2270 -0.5669  0.3381
   20MOL   C325 7583   8.018   0.399   3.985 -0.2124  0.3301 -0.3419
   20MOL   C326 7584   7.965   0.266   3.930  0.3396  0.3856 -0.4329
   20MOL   C327 7585   8.030   0.202   3.824  0.3685  0.5057  0.4274
   20MOL   C328 7586   7.988   0.069   3.779 -0.1843 -0.4467  0.3959
   20MOL   C329 7587   7.885   0.008   3.846 -0.0598  0.0006  0.9906
   20MOL   C330 7588   7.825   7.955   3.804  0.3240  0.2145  0.0979
   20MOL   C331 7589   7.819   0.076   3.950  0.4757  0.0518 -0.0727
   20MOL   C332 7590   7.860   0.197   3.996 -0.4436  0.1439  0.9029
   20MOL   C333 7591   7.987   0.512   3.883  0.0816 -0.2361  0.7311
   20MOL   H334 7592   7.957   0.413   4.074  0.7530 -1.2245  0.5866
   20MOL   H335 7593   0.040   0.248   3.787  1.0434  0.3570  1.8207
   20MOL   H336 7594   8.052   0.019   3.708 -1.9317 -0.5091 -1.1725
   20MOL   H337 7595   7.895   7.888   3.754  0.1293 -1.0907  1.5252
   20MOL   H338 7596   7.769   7.905   3.884  1.2109 -0.6610  0.1789
   20MOL   H339 7597   7.752   7.983   3.728 -0.7674 -0.0021  1.0426
   20MOL   H340 7598   7.744   0.022   4.005  1.4037 -0.7053  0.4553
   20MOL   H341 7599   7.811   0.238   4.083  0.4764  3.6292 -0.1644
   20MOL   H342 7600   7.920   0.488   3.801  1.3259  1.8748 -0.9584
   20MOL   H343 7601   0.002   0.544   3.841 -0.3952  1.5296  0.9407
   20MOL   C344 7602   7.912   0.634   3.939 -0.2827 -0.4974 -0.7620
   20MOL   C345 7603   7.777   0.594   4.003 -0.2196  0.2210  0.2852
   20MOL   C346 7604   7.760   0.623   4.135  0.6375 -0.5748 -0.3879
   20MOL   C347 7605   7.635   0.596   4.194  0.3799 -0.1815 -0.5420
   20MOL   C348 7606   7.529   0.543   4.118 -0.9272  0.0959 -0.3170
   20MOL   C349 7607   7.390   0.532   4.169  0.8517 -0.7637  0.0179
   20MOL   C350 7608   7.557   0.499   3.992  0.0204 -0.9016  0.2029
   20MOL   C351 7609   7.677   0.527   3.925 -0.2167 -0.2107 -0.2547
   20MOL   C352 7610   7.892   0.745   3.820  0.0623  0.4804 -0.6892
   20MOL   H353 7611   7.990   0.677   4.002  0.0920  0.6381 -1.9732
   20MOL   H354 7612   7.833   0.675   4.195  0.2527  2.0917 -2.1318
   20MOL   H355 7613   7.613   0.628   4.295 -1.3839 -0.1661 -0.9028
   20MOL   H356 7614   7.373   0.427   4.192  0.3900 -0.3753  1.4758
   20MOL   H357 7615   7.382   0.600   4.253  3.0166 -1.4364  0.7927
   20MOL   H358 7616   7.324   0.571   4.091  0.0295  0.7565  1.4618
   20MOL   H359 7617   7.472   0.468   3.932  0.1856 -0.1844 -0.4072
   20MOL   H360 7618   7.689   0.508   3.819 -5.1027 -1.2768 -0.7596
   20MOL   H361 7619   7.825   0.699   3.747 -0.7620  0.6557 -0.0487
   20MOL   H362 7620   7.989   0.756   3.771  0.3704  1.1334  0.0516
   20MOL   C363 7621   7.840   0.883   3.870 -0.3236 -0.8348 -0.5200
   20MOL   C364 7622   7.799   0.980   3.764  0.4663  0.1031  0.4815
   20MOL   C365 7623   7.893   1.076   3.721 -0.4177  0.5532 -0.1075
   20MOL   C366 7624   7.861   1.179   3.631  0.1581  0.6894 -0.5108
   20MOL   C367 7625   7.734   1.169   3.562  0.3027  0.0932 -0.3066
   20MOL   C368 7626   7.696   1.271   3.455  0.0030 -0.0317 -0.6384
   20MOL   C369 7627   7.643   1.065   3.598 -0.1462  0.0497 -0.3809
   20MOL   C370 7628   7.673   0.972   3.703  0.1041 -0.3556 -0.3023
   20MOL   C371 7629   7.936   0.946   3.976 -0.6328 -0.3128 -0.4443
   20MOL   H372 7630   7.751   0.866   3.932 -0.8668 -1.8949 -1.5782
   20MOL   H373 7631   7.993   1.076   3.762  0.4031  1.1042 -2.0348
   20MOL   H374 7632   7.934   1.254   3.605  0.0046  1.1613  0.3936
   20MOL   H375 7633   7.732   1.373   3.467  0.0048 -0.3421  2.1514
   20MOL   H376 7634   7.737   1.244   3.357  0.9480 -3.5758  0.6493
   20MOL   H377 7635   7.589   1.282   3.438 -0.0092  1.9341  0.6383
   20MOL   H378 7636   7.548   1.080   3.549 -2.0916  0.1657  3.2645
   20MOL   H379 7637   7.606   0.894   3.736  1.4810 -1.4035  0.0401
   20MOL   H380 7638   7.910   1.043   4.018  0.5510  0.0758 -0.5843
   20MOL   H381 7639   8.034   0.972   3.935 -0.8297 -1.6906 -1.8539
   20MOL   H382 7640   7.949   0.870   4.053  3.1988 -0.6464 -1.2813
   21MOL     C1 7641   5.175   3.508   1.997  0.1971 -0.4311  0.4035
   21MOL     C2 7642   5.125   3.461   1.863 -0.9748 -0.2523  0.0546
   21MOL     C3 7643   4.989   3.429   1.841  0.4183 -0.3907  0.0936
   21MOL     C4 7644   4.961   3.363   1.724 -0.4057 -0.4348 -0.5070
   21MOL     C5 7645   5.055   3.331   1.622 -0.7949 -0.0459  0.1549
   21MOL     C6 7646   5.009   3.264   1.492 -0.2049 -0.9263  0.8828
   21MOL     C7 7647   5.189   3.372   1.645  0.3876  0.0435 -0.0388
   21MOL     C8 7648   5.223   3.439   1.760  0.2535  0.1845  0.4258
   21MOL     C9 7649   5.243   3.650   1.980  0.6637 -0.0893  0.6480
   21MOL    H10 7650   5.094   3.506   2.070 -0.9181  0.5552 -0.7821
   21MOL    H11 7651   4.918   3.453   1.919 -1.1778 -0.7152 -1.2101
   21MOL    H12 7652   4.861   3.323   1.714 -1.0710  0.6767  1.5826
   21MOL    H13 7653   4.902   3.248   1.483  0.0108 -2.0560  0.1704
   21MOL    H14 7654   5.047   3.318   1.405  0.2475 -0.6036  1.2716
   21MOL    H15 7655   5.058   3.168   1.481  0.2921 -0.5328 -0.4595
   21MOL    H16 7656   5.265   3.347   1.573  0.6495  0.4023  0.1161
   21MOL    H17 7657   5.328   3.447   1.785  0.9959 -0.9993 -2.1760
   21MOL    H18 7658   5.158   3.711   1.949  1.7063  1.7157  1.3162
   21MOL    H19 7659   5.318   3.654   1.902  0.6661  1.8784  0.7416
   21MOL    H20 7660   5.236   3.423   2.026 -0.5230 -1.1910 -0.2986
   21MOL    C21 7661   5.308   3.716   2.101  0.3662 -0.5588  0.0709
   21MOL    C22 7662   5.344   3.863   2.068  0.4550  0.3971  0.1062
   21MOL    C23 7663   5.272   3.973   2.128 -0.2023  0.4568  0.1247
   21MOL    C24 7664   5.307   4.106   2.093  0.3982  0.0198  0.4642
   21MOL    C25 7665   5.412   4.136   2.003  0.0645 -0.4350  0.8828
   21MOL    C26 7666   5.447   4.278   1.966 -0.0856  0.5471 -0.6788
   21MOL    C27 7667   5.490   4.033   1.958 -0.4843  0.6360 -0.7739
   21MOL    C28 7668   5.456   3.901   1.988  0.5218  0.2247 -0.0655
   21MOL    C29 7669   5.442   3.630   2.144  0.4500 -0.2167  0.1402
   21MOL    H30 7670   5.242   3.706   2.188 -0.0633 -2.9973 -0.4935
   21MOL    H31 7671   5.188   3.945   2.190 -0.0147  0.0330  0.1914
   21MOL    H32 7672   5.235   4.183   2.117 -0.7000 -0.8214 -0.1022
   21MOL    H33 7673   5.371   4.348   2.002  0.1757 -0.3061  1.6458
   21MOL    H34 7674   5.542   4.314   2.007 -0.1698  0.8770 -0.7657
   21MOL    H35 7675   5.450   4.276   1.857 -0.1994  0.7557 -0.6871
   21MOL    H36 7676   5.572   4.052   1.890 -0.8329  0.7267 -1.1637
   21MOL    H37 7677   5.519   3.822   1.948  0.4826  0.9919 -1.6697
   21MOL    H38 7678   5.509   3.633   2.058 -0.8462  1.3703 -0.8466
   21MOL    H39 7679   5.411   3.526   2.148  0.6914 -0.3837 -2.1551
   21MOL    C40 7680   5.515   3.695   2.264 -0.9684  0.2059 -0.0644
   21MOL    C41 7681   5.664   3.650   2.276 -0.0491  0.0282  0.0609
   21MOL    C42 7682   5.771   3.743   2.288 -0.0169 -0.3462 -0.0911
   21MOL    C43 7683   5.903   3.700   2.292  0.1226 -0.3503 -0.4944
   21MOL    C44 7684   5.928   3.562   2.288 -0.7320 -0.3315  0.1267
   21MOL    C45 7685   6.074   3.513   2.320  0.4882 -0.0643 -0.0599
   21MOL    C46 7686   5.828   3.469   2.273 -0.2769  0.1204  0.3008
   21MOL    C47 7687   5.696   3.517   2.261  0.5787  0.3871  0.3356
   21MOL    C48 7688   5.430   3.672   2.396  0.1372  0.1403  0.0139
   21MOL    H49 7689   5.531   3.802   2.247  3.7983 -0.5403 -0.9063
   21MOL    H50 7690   5.752   3.847   2.269  0.1185 -0.3577 -0.2919
   21MOL    H51 7691   5.977   3.779   2.299 -0.8193  0.5020 -0.0735
   21MOL    H52 7692   6.074   3.409   2.287 -2.2224  0.3238 -1.4677
   21MOL    H53 7693   6.147   3.564   2.258 -1.0850  1.3031 -0.8433
   21MOL    H54 7694   6.095   3.525   2.427  1.4321 -1.0547 -0.1257
   21MOL    H55 7695   5.847   3.363   2.265  0.4061  0.1218  1.7426
   21MOL    H56 7696   5.622   3.439   2.248  1.6297 -1.4525  4.4844
   21MOL    H57 7697   5.479   3.621   2.479 -0.4071 -0.4578 -0.0303
   21MOL    H58 7698   5.354   3.596   2.378 -1.3514  1.8507 -1.1451
   21MOL    C59 7699   5.373   3.803   2.455  0.0089  0.0943 -0.0905
   21MOL    C60 7700   5.485   3.899   2.483 -0.0776 -0.0749 -0.3537
   21MOL    C61 7701   5.480   4.033   2.439 -0.4539 -0.6249  0.0283
   21MOL    C62 7702   5.566   4.135   2.483 -0.2004  0.9191  0.0046
   21MOL    C63 7703   5.671   4.102   2.574  0.7806 -0.0340 -0.6627
   21MOL    C64 7704   5.768   4.210   2.615 -0.2804  0.1134  0.8284
   21MOL    C65 7705   5.681   3.970   2.612 -0.2886  0.1283 -0.1753
   21MOL    C66 7706   5.593   3.867   2.569  0.3464  0.0799 -0.2821
   21MOL    C67 7707   5.292   3.786   2.582  0.2864 -0.2973 -0.8376
   21MOL    H68 7708   5.313   3.848   2.376  2.6904  2.2048 -1.0359
   21MOL    H69 7709   5.408   4.058   2.363  1.3453  0.3475 -1.3854
   21MOL    H70 7710   5.556   4.237   2.448 -0.6389  0.8449 -0.0889
   21MOL    H71 7711   5.826   4.180   2.702  0.2598 -0.3992  0.2951
   21MOL    H72 7712   5.823   4.251   2.530 -0.8204  1.1287  0.9518
   21MOL    H73 7713   5.709   4.294   2.653  0.4313  0.3090  1.5034
   21MOL    H74 7714   5.765   3.949   2.675  0.7044  0.9458 -1.1986
   21MOL    H75 7715   5.612   3.765   2.599  1.7059  0.3992 -0.0265
   21MOL    H76 7716   5.263   3.885   2.618  0.7101 -0.6139  0.4176
   21MOL    H77 7717   5.356   3.756   2.665 -0.8243  0.7686  0.4194
   21MOL    C78 7718   5.165   3.707   2.571  0.3207 -0.0164  0.6795
   21MOL    C79 7719   5.072   3.757   2.463  0.7767  0.2285 -0.4932
   21MOL    C80 7720   5.026   3.885   2.468 -0.0225  0.9093  1.0626
   21MOL    C81 7721   4.943   3.932   2.366  0.1283  0.2645 -0.3941
   21MOL    C82 7722   4.913   3.855   2.251 -0.5535  0.6141 -0.7151
   21MOL    C83 7723   4.837   3.906   2.137 -0.2590 -0.0482  0.2224
   21MOL    C84 7724   4.970   3.727   2.247  0.0837 -0.2593  0.1859
   21MOL    C85 7725   5.045   3.675   2.350  0.8237 -0.5780  0.3391
   21MOL    C86 7726   5.099   3.697   2.706 -0.5078  0.8287  0.2297
   21MOL    H87 7727   5.205   3.611   2.539 -0.8808 -0.3651  0.2278
   21MOL    H88 7728   5.047   3.959   2.544 -1.4051  1.4077  0.9662
   21MOL    H89 7729   4.912   4.035   2.367  0.2724  0.3022  1.3604
   21MOL    H90 7730   4.863   3.835   2.059  1.8477 -0.9986  1.7319
   21MOL    H91 7731   4.730   3.908   2.156 -0.2933  0.0209  0.0235
   21MOL    H92 7732   4.878   4.005   2.116  0.4169 -0.4887 -0.5871
   21MOL    H93 7733   4.942   3.668   2.161  1.8266  0.7761 -1.1412
   21MOL    H94 7734   5.071   3.570   2.355 -1.0118 -0.9765  2.5031
   21MOL    H95 7735   5.050   3.794   2.722 -0.3527  1.4161 -2.6630
   21MOL    H96 7736   5.167   3.680   2.790  0.5952  1.5785 -0.4938
   21MOL    C97 7737   4.994   3.588   2.715 -0.4597 -0.5988 -0.1087
   21MOL    C98 7738   4.866   3.636   2.785 -0.1032 -0.2453  0.2084
   21MOL    C99 7739   4.843   3.630   2.924 -0.3703 -0.4526 -0.5093
   21MOL   C100 7740   4.724   3.680   2.981  0.1725  0.2039 -0.8096
   21MOL   C101 7741   4.630   3.752   2.906  0.4980  0.4406 -0.5326
   21MOL   C102 7742   4.500   3.808   2.964 -0.6482 -0.2365 -0.3494
   21MOL   C103 7743   4.659   3.772   2.768  0.8945  0.0437  0.0090
   21MOL   C104 7744   4.768   3.700   2.706 -0.1303  0.7214 -0.5783
   21MOL   C105 7745   5.046   3.453   2.779  0.0307  0.2354  0.8625
   21MOL   H106 7746   4.961   3.565   2.614 -0.1877  0.4408 -0.4423
   21MOL   H107 7747   4.911   3.573   2.986 -0.3399 -0.9387 -0.9796
   21MOL   H108 7748   4.717   3.668   3.088 -0.7287 -0.2559 -0.9127
   21MOL   H109 7749   4.485   3.908   2.922  0.2058  0.8144  1.7877
   21MOL   H110 7750   4.421   3.747   2.920 -0.5928 -0.1482 -0.5694
   21MOL   H111 7751   4.493   3.802   3.073  2.2274 -0.1448 -0.1183
   21MOL   H112 7752   4.583   3.817   2.706  0.7262 -0.4256 -0.1313
   21MOL   H113 7753   4.791   3.707   2.601  2.6165  1.1626 -0.0013
   21MOL   H114 7754   4.969   3.377   2.795  0.7390 -0.5997  0.3419
   21MOL   H115 7755   5.070   3.492   2.878 -2.1530  1.2409  1.0263
   21MOL   C116 7756   5.159   3.389   2.700  0.2547 -0.5623  0.4816
   21MOL   C117 7757   5.134   3.345   2.557 -0.2538  0.0612  0.0764
   21MOL   C118 7758   5.230   3.342   2.457  0.3313 -0.2910 -0.0728
   21MOL   C119 7759   5.196   3.293   2.327 -0.3715 -0.0703  0.2196
   21MOL   C120 7760   5.064   3.253   2.296  0.3380 -0.2264 -0.3274
   21MOL   C121 7761   5.024   3.224   2.157 -0.3473  0.1123 -0.3706
   21MOL   C122 7762   4.966   3.260   2.396  0.2309  0.4843  0.0288
   21MOL   C123 7763   5.004   3.299   2.526 -0.0010 -0.8091  0.0951
   21MOL   C124 7764   5.233   3.270   2.771  0.2371 -0.2778 -0.0979
   21MOL   H125 7765   5.224   3.476   2.689  1.4193 -1.4017  0.6744
   21MOL   H126 7766   5.324   3.392   2.477 -0.0188 -0.5008  2.1761
   21MOL   H127 7767   5.265   3.294   2.245 -2.9985  0.9159 -2.0576
   21MOL   H128 7768   5.115   3.220   2.096 -1.1606  1.7255 -1.7313
   21MOL   H129 7769   4.962   3.137   2.137 -2.4180  1.6133 -0.6222
   21MOL   H130 7770   4.970   3.311   2.119  0.2341  0.3484 -0.6578
   21MOL   H131 7771   4.863   3.232   2.378 -0.3165  1.3685  1.6938
   21MOL   H132 7772   4.933   3.292   2.607  0.1164  1.1686  0.4036
   21MOL   H133 7773   5.314   3.234   2.708  0.2086  1.1863 -0.9761
   21MOL   H134 7774   5.180   3.177   2.792  0.2741 -0.2314  0.2053
   21MOL   C135 7775   5.314   3.302   2.905  0.6521 -0.0243  0.5013
   21MOL   C136 7776   5.384   3.442   2.892  0.0145  0.2049  0.3756
   21MOL   C137 7777   5.511   3.448   2.827  0.0285 -0.4233  0.7427
   21MOL   C138 7778   5.588   3.567   2.828 -0.7089  0.9090  0.8196
   21MOL   C139 7779   5.540   3.680   2.904 -0.2002 -0.4798  0.1386
   21MOL   C140 7780   5.618   3.812   2.904  0.0030  0.4697 -0.4734
   21MOL   C141 7781   5.410   3.672   2.959  0.3367 -0.2754 -0.1253
   21MOL   C142 7782   5.333   3.556   2.953  0.6495  0.2529 -0.5153
   21MOL   C143 7783   5.421   3.197   2.939 -0.0588 -0.1237  0.2991
   21MOL   H144 7784   5.250   3.307   2.993 -0.6007  0.4809 -0.4251
   21MOL   H145 7785   5.556   3.359   2.785  0.7590  0.6319 -0.7395
   21MOL   H146 7786   5.677   3.578   2.767 -1.0366 -0.2188  0.1319
   21MOL   H147 7787   5.716   3.791   2.861 -0.1184  0.3648 -0.7039
   21MOL   H148 7788   5.567   3.885   2.840 -0.2390  0.2377 -0.5450
   21MOL   H149 7789   5.643   3.852   3.002 -0.1291  1.5177 -0.8603
   21MOL   H150 7790   5.363   3.757   3.005  1.1393 -0.0095  0.2181
   21MOL   H151 7791   5.235   3.538   2.995  1.2791 -2.7733 -0.1907
   21MOL   H152 7792   5.482   3.232   3.023 -0.5204  1.1332  0.1275
   21MOL   H153 7793   5.487   3.182   2.854 -1.2921 -0.0139 -0.6985
   21MOL   C154 7794   5.371   3.046   2.971 -0.6603  0.6058  0.0046
   21MOL   C155 7795   5.257   3.017   3.066  0.1062 -0.3262 -0.7049
   21MOL   C156 7796   5.171   2.911   3.030  0.0168  0.2923 -0.1299
   21MOL   C157 7797   5.097   2.855   3.137 -0.0765  0.0020 -0.3544
   21MOL   C158 7798   5.085   2.917   3.262  0.6442  0.3224 -0.5145
   21MOL   C159 7799   4.984   2.871   3.367  0.5905  0.1197  0.1701
   21MOL   C160 7800   5.163   3.036   3.290  0.1614 -0.0822 -0.0282
   21MOL   C161 7801   5.253   3.077   3.192 -0.2950  0.6739  0.4520
   21MOL   C162 7802   5.496   2.961   3.000  0.0525 -0.3051 -0.5041
   21MOL   H163 7803   5.332   3.015   2.874  1.9027 -1.2179 -0.4937
   21MOL   H164 7804   5.168   2.872   2.930  2.8771 -1.2487  0.3419
   21MOL   H165 7805   5.030   2.778   3.102  1.6165 -0.8650 -1.7373
   21MOL   H166 7806   4.886   2.879   3.319  0.3236  0.4369  0.7707
   21MOL   H167 7807   4.995   2.766   3.393 -0.7711  0.1448  0.8691
   21MOL   H168 7808   5.006   2.928   3.458  0.3907  0.4969 -0.0159
   21MOL   H169 7809   5.166   3.090   3.383  2.1684 -2.6032  1.4424
   21MOL   H170 7810   5.322   3.156   3.220 -0.8626  0.8500  1.3720
   21MOL   H171 7811   5.471   2.883   3.072 -2.3127  1.8137  1.0302
   21MOL   H172 7812   5.566   3.028   3.051 -1.7149  1.3305 -0.1748
   21MOL   C173 7813   5.563   2.879   2.886  0.3886 -0.1202 -0.4045
   21MOL   C174 7814   5.483   2.764   2.829 -0.3543 -0.3704  0.3712
   21MOL   C175 7815   5.453   2.647   2.897 -0.7916  0.4734 -0.3652
   21MOL   C176 7816   5.370   2.550   2.848  0.8310 -0.2270 -0.1124
   21MOL   C177 7817   5.321   2.561   2.717 -0.1377 -0.0542 -0.0254
   21MOL   C178 7818   5.240   2.445   2.660  0.1928  0.3539 -0.3500
   21MOL   C179 7819   5.368   2.668   2.637  0.9111 -0.0565 -0.0814
   21MOL   C180 7820   5.435   2.775   2.695 -0.1416 -0.0991 -0.1117
   21MOL   C181 7821   5.705   2.835   2.937 -0.0628  0.3079 -0.3086
   21MOL   H182 7822   5.578   2.956   2.810 -1.4345  0.1948 -0.4675
   21MOL   H183 7823   5.502   2.623   2.991  0.2480 -0.3998 -1.1167
   21MOL   H184 7824   5.346   2.458   2.900  0.9241  0.5895  1.4020
   21MOL   H185 7825   5.258   2.439   2.553  0.8070  5.3965 -0.6552
   21MOL   H186 7826   5.275   2.345   2.686 -0.3223 -0.6118 -3.2145
   21MOL   H187 7827   5.132   2.441   2.677  0.4908 -0.0451  1.6813
   21MOL   H188 7828   5.345   2.682   2.533 -0.3638 -3.7011 -0.3554
   21MOL   H189 7829   5.464   2.857   2.630  1.3680  0.3213  1.0760
   21MOL   H190 7830   5.691   2.762   3.016  0.1425 -0.6631 -1.1513
   21MOL   H191 7831   5.758   2.916   2.987  0.9171  0.3895 -1.4320
   21MOL   C192 7832   5.799   2.780   2.827  0.0577 -0.2465 -0.2235
   21MOL   C193 7833   5.907   2.696   2.896  0.0809 -0.1533  0.5541
   21MOL   C194 7834   5.972   2.742   3.009  0.3105  0.3564 -0.4953
   21MOL   C195 7835   6.065   2.654   3.069  0.0780  1.0756  0.5307
   21MOL   C196 7836   6.091   2.525   3.020 -0.0820  0.2244  0.6341
   21MOL   C197 7837   6.199   2.435   3.082  0.3858  0.1808 -0.5725
   21MOL   C198 7838   6.022   2.478   2.905 -0.2639 -1.0620  0.0019
   21MOL   C199 7839   5.937   2.569   2.843 -0.1531  0.5275 -1.0828
   21MOL   C200 7840   5.858   2.895   2.738  0.6180  0.0883 -0.1290
   21MOL   H201 7841   5.741   2.716   2.760 -0.4592  1.4769 -1.4504
   21MOL   H202 7842   5.966   2.844   3.045 -1.7188  0.1391 -0.1978
   21MOL   H203 7843   6.115   2.690   3.157  0.3832  1.0745  0.3572
   21MOL   H204 7844   6.154   2.360   3.147 -1.4338  1.5613 -0.1982
   21MOL   H205 7845   6.237   2.373   3.001  2.5067  1.4385 -0.5710
   21MOL   H206 7846   6.277   2.490   3.133 -0.2413  2.6815 -2.1997
   21MOL   H207 7847   6.042   2.389   2.847  2.9577  0.1553 -0.8265
   21MOL   H208 7848   5.886   2.545   2.751  0.5430  2.2077 -1.9235
   21MOL   H209 7849   5.881   2.970   2.813 -2.9464 -0.1171  1.2893
   21MOL   H210 7850   5.774   2.936   2.681  1.2452  2.0397  0.2941
   21MOL   C211 7851   5.976   2.861   2.636  0.3737  0.3618 -0.1214
   21MOL   C212 7852   6.068   2.978   2.640 -0.4384 -0.4961 -0.0073
   21MOL   C213 7853   6.029   3.103   2.590  0.2893  0.1583 -0.1053
   21MOL   C214 7854   6.102   3.223   2.621 -0.2166  0.5714  0.0584
   21MOL   C215 7855   6.215   3.217   2.705 -0.3565  0.5075 -0.0440
   21MOL   C216 7856   6.293   3.346   2.740 -0.4820  0.3598 -0.0591
   21MOL   C217 7857   6.265   3.091   2.744  0.6443 -0.3003  0.1544
   21MOL   C218 7858   6.183   2.980   2.719  0.4777 -0.3017 -0.3577
   21MOL   C219 7859   5.931   2.823   2.490 -0.0209 -0.0733  0.2459
   21MOL   H220 7860   6.033   2.781   2.685 -1.5946 -1.0392 -0.0601
   21MOL   H221 7861   5.936   3.105   2.536  0.6653 -2.7668 -0.9812
   21MOL   H222 7862   6.066   3.322   2.598 -0.2471  0.0084 -2.5360
   21MOL   H223 7863   6.368   3.365   2.663 -2.0484  0.7450 -1.5158
   21MOL   H224 7864   6.222   3.428   2.750  0.1504  0.8237  0.6630
   21MOL   H225 7865   6.356   3.340   2.828 -0.0771 -2.0936 -0.4730
   21MOL   H226 7866   6.354   3.065   2.798  0.2685 -0.5559  0.6521
   21MOL   H227 7867   6.209   2.885   2.762  0.0886 -0.8682 -1.3420
   21MOL   H228 7868   5.984   2.882   2.415 -3.5527  2.4238 -0.4217
   21MOL   H229 7869   5.830   2.862   2.480  0.0786 -0.1643 -1.2920
   21MOL   C230 7870   5.943   2.669   2.457  0.1825  0.1681  0.4896
   21MOL   C231 7871   6.088   2.627   2.422 -0.0949  0.0396 -0.1876
   21MOL   C232 7872   6.141   2.662   2.301  0.3558 -0.5705  0.3314
   21MOL   C233 7873   6.280   2.642   2.283  0.5397  0.5254 -0.5507
   21MOL   C234 7874   6.361   2.579   2.382  0.1418  0.5588  0.3177
   21MOL   C235 7875   6.513   2.568   2.364 -0.3525  0.7767  0.0777
   21MOL   C236 7876   6.304   2.530   2.499  0.7210  0.0901  0.0452
   21MOL   C237 7877   6.165   2.558   2.515  0.0073 -0.1019 -0.8368
   21MOL   C238 7878   5.852   2.648   2.335  0.0777 -0.3942 -0.1719
   21MOL   H239 7879   5.918   2.619   2.550  0.0907 -1.3712 -0.3381
   21MOL   H240 7880   6.105   2.724   2.220  0.9225 -0.1253  0.4157
   21MOL   H241 7881   6.322   2.682   2.192  0.8448  1.2556 -0.0948
   21MOL   H242 7882   6.531   2.560   2.256 -1.2414  1.4928 -0.1324
   21MOL   H243 7883   6.568   2.660   2.383  0.3029  0.4953 -0.4284
   21MOL   H244 7884   6.557   2.492   2.427  0.3098  0.0611 -1.2187
   21MOL   H245 7885   6.361   2.477   2.573  1.1319 -1.6131 -1.4435
   21MOL   H246 7886   6.121   2.520   2.606 -0.4134  2.9265  0.2656
   21MOL   H247 7887   5.875   2.555   2.284 -1.7760 -0.0130 -1.7263
   21MOL   H248 7888   5.869   2.726   2.260 -1.1903  0.7942  0.7502
   21MOL   C249 7889   5.706   2.636   2.378  0.6867  0.1068 -0.0982
   21MOL   C250 7890   5.681   2.499   2.444  0.2938 -0.1278 -0.2761
   21MOL   C251 7891   5.625   2.490   2.573  0.3777 -0.2353 -0.4438
   21MOL   C252 7892   5.563   2.375   2.625  0.0869 -0.1762 -0.2763
   21MOL   C253 7893   5.575   2.260   2.546  0.2236  0.0665  0.0127
   21MOL   C254 7894   5.508   2.135   2.592 -0.3594 -0.6230  0.1766
   21MOL   C255 7895   5.627   2.264   2.417 -0.3070  0.1815 -0.5533
   21MOL   C256 7896   5.681   2.384   2.367  0.9412  0.0793 -0.0546
   21MOL   C257 7897   5.605   2.650   2.265  0.1302 -0.0503  0.3875
   21MOL   H258 7898   5.685   2.712   2.453 -0.4701 -2.2553  2.0603
   21MOL   H259 7899   5.616   2.583   2.628  0.0820  0.0213 -0.9162
   21MOL   H260 7900   5.523   2.371   2.725 -2.6473 -0.1288 -1.3318
   21MOL   H261 7901   5.556   2.104   2.685  0.7741  0.3854 -0.0596
   21MOL   H262 7902   5.408   2.161   2.627  0.2349 -0.4884  1.8308
   21MOL   H263 7903   5.497   2.058   2.515  0.5504 -2.5452  1.9013
   21MOL   H264 7904   5.634   2.166   2.371  0.6842  0.9389 -2.0268
   21MOL   H265 7905   5.720   2.390   2.266  1.2198 -3.9311 -0.2662
   21MOL   H266 7906   5.504   2.631   2.303 -1.0209  0.6954 -2.1386
   21MOL   H267 7907   5.623   2.570   2.194 -2.9817 -0.6062  0.1525
   21MOL   C268 7908   5.602   2.785   2.185  0.2048  0.8573  0.0444
   21MOL   C269 7909   5.616   2.906   2.282  0.8027 -0.0694  0.7429
   21MOL   C270 7910   5.733   2.982   2.272 -0.1445 -0.0629 -0.3014
   21MOL   C271 7911   5.744   3.102   2.342  1.3738 -0.1997 -0.7482
   21MOL   C272 7912   5.640   3.133   2.437 -0.1122 -0.3842 -0.3684
   21MOL   C273 7913   5.649   3.248   2.538  0.2355  1.0768  0.2888
   21MOL   C274 7914   5.528   3.047   2.451  0.2929  0.1011  0.2341
   21MOL   C275 7915   5.511   2.936   2.368  0.1753  0.0847 -0.7037
   21MOL   C276 7916   5.475   2.794   2.100  0.3228  0.0393  0.5325
   21MOL   H277 7917   5.682   2.790   2.111 -0.7632 -1.1421 -1.1735
   21MOL   H278 7918   5.812   2.951   2.205 -0.4535  1.2555 -1.2814
   21MOL   H279 7919   5.834   3.160   2.332  0.0504  2.1304  0.2872
   21MOL   H280 7920   5.632   3.205   2.637  1.8590  0.0085  0.1353
   21MOL   H281 7921   5.746   3.297   2.536  0.3563  0.9383  1.6762
   21MOL   H282 7922   5.584   3.330   2.509 -0.7494  0.1361 -0.2137
   21MOL   H283 7923   5.450   3.091   2.511 -0.2333 -0.3754 -0.0944
   21MOL   H284 7924   5.415   2.887   2.363  1.4349 -2.6608  0.4458
   21MOL   H285 7925   5.389   2.797   2.168  1.2107 -1.0994  1.7077
   21MOL   H286 7926   5.464   2.700   2.047  0.5939  0.7569 -0.8132
   21MOL   C287 7927   5.456   2.909   1.995  0.1228 -0.2816  0.1083
   21MOL   C288 7928   5.309   2.919   1.953 -0.2894  0.5318 -0.0072
   21MOL   C289 7929   5.260   3.045   1.924  0.1406 -0.0346  0.9559
   21MOL   C290 7930   5.123   3.068   1.889 -0.1818  0.2895 -0.5920
   21MOL   C291 7931   5.040   2.956   1.870 -0.3075 -0.0987 -0.5366
   21MOL   C292 7932   4.894   2.984   1.850 -0.6453  0.3544 -0.1647
   21MOL   C293 7933   5.097   2.831   1.888 -0.3239  0.2493  0.9401
   21MOL   C294 7934   5.227   2.810   1.940  0.2092  0.2110 -0.0935
   21MOL   C295 7935   5.550   2.891   1.872  0.3050  0.2489 -0.5592
   21MOL   H296 7936   5.485   2.996   2.054 -0.7909 -0.6290  1.0956
   21MOL   H297 7937   5.329   3.127   1.934  1.5268 -1.0159 -0.3934
   21MOL   H298 7938   5.091   3.171   1.886  0.3691  0.4297 -1.7145
   21MOL   H299 7939   4.873   3.052   1.767  2.1212  0.3596 -0.8840
   21MOL   H300 7940   4.846   2.890   1.823  3.0020 -1.3054 -1.1235
   21MOL   H301 7941   4.834   3.029   1.929  0.5041 -1.0724  1.5451
   21MOL   H302 7942   5.036   2.743   1.876 -1.9473  1.6074 -1.2944
   21MOL   H303 7943   5.258   2.707   1.942 -0.6408 -0.1555 -2.9635
   21MOL   H304 7944   5.503   2.917   1.777 -2.1000 -1.6249  0.0819
   21MOL   H305 7945   5.573   2.785   1.861  0.7681  0.3520 -0.6106
   21MOL   C306 7946   5.678   2.975   1.879 -0.7059  0.1345 -0.2268
   21MOL   C307 7947   5.642   3.127   1.860  0.3349  0.3614  0.5415
   21MOL   C308 7948   5.633   3.177   1.730  0.1632 -0.2679 -0.2387
   21MOL   C309 7949   5.608   3.318   1.707  0.7188  0.5713 -0.4486
   21MOL   C310 7950   5.614   3.405   1.818  0.0617 -0.6982 -0.6980
   21MOL   C311 7951   5.607   3.558   1.798 -0.0246  0.1945 -0.2591
   21MOL   C312 7952   5.630   3.359   1.950  0.4143  0.0828  0.4961
   21MOL   C313 7953   5.638   3.216   1.972  0.1751 -0.2323  0.1083
   21MOL   C314 7954   5.788   2.927   1.786 -0.4457  0.5050 -0.8583
   21MOL   H315 7955   5.716   2.970   1.981 -0.5396  1.7927 -0.1970
   21MOL   H316 7956   5.626   3.108   1.647  0.1043  0.2628 -0.6830
   21MOL   H317 7957   5.607   3.350   1.604  2.2759  0.0110 -0.6707
   21MOL   H318 7958   5.621   3.606   1.895  1.2924 -0.6465 -0.0172
   21MOL   H319 7959   5.681   3.583   1.722 -0.7715 -0.4398 -1.2045
   21MOL   H320 7960   5.515   3.585   1.746  0.3090  1.0918 -0.3975
   21MOL   H321 7961   5.638   3.435   2.026 -0.1524  0.5942  0.0479
   21MOL   H322 7962   5.642   3.190   2.077  2.0749  0.3047  0.1715
   21MOL   H323 7963   5.773   2.945   1.680 -3.1598 -0.4647 -0.6864
   21MOL   H324 7964   5.798   2.818   1.782  1.0492  0.6852 -2.6344
   21MOL   C325 7965   5.926   2.992   1.824  0.3531  0.5040 -0.3094
   21MOL   C326 7966   5.997   3.037   1.699  0.3759 -0.3610  0.2111
   21MOL   C327 7967   6.052   3.168   1.700 -0.0559 -0.2958  0.2657
   21MOL   C328 7968   6.129   3.215   1.583  0.0758  0.4501  0.0559
   21MOL   C329 7969   6.147   3.124   1.476  0.1301  0.3932 -0.0764
   21MOL   C330 7970   6.220   3.173   1.356  0.3085  0.0694 -0.2877
   21MOL   C331 7971   6.095   2.996   1.478 -0.3046  0.4871  0.5274
   21MOL   C332 7972   6.013   2.955   1.584  0.4895 -0.3889 -0.2227
   21MOL   C333 7973   6.020   2.892   1.895  0.1709 -0.0064  0.0268
   21MOL   H334 7974   5.907   3.084   1.878  2.9850  1.1434 -0.3977
   21MOL   H335 7975   6.049   3.233   1.787  0.4883  2.0355 -1.4065
   21MOL   H336 7976   6.173   3.313   1.576 -0.0478  0.4953 -0.0844
   21MOL   H337 7977   6.202   3.278   1.333  0.6449  0.7089  2.3191
   21MOL   H338 7978   6.327   3.152   1.355  0.4940  1.0367 -0.7506
   21MOL   H339 7979   6.171   3.133   1.267 -0.7373  0.1628  0.2358
   21MOL   H340 7980   6.129   2.927   1.402  1.2289  0.7262  0.9682
   21MOL   H341 7981   5.979   2.855   1.607  0.3187 -0.0423  1.0897
   21MOL   H342 7982   6.020   2.800   1.836 -1.6498 -0.1637  0.2594
   21MOL   H343 7983   5.995   2.868   1.998  1.3246  1.2771  0.6164
   21MOL   C344 7984   6.172   2.924   1.915 -0.5880 -0.2920  0.2789
   21MOL   C345 7985   6.267   2.827   1.837  0.3894  0.3140 -0.6217
   21MOL   C346 7986   6.332   2.868   1.723 -0.1949 -0.0658 -0.0319
   21MOL   C347 7987   6.399   2.778   1.640  0.4977  0.1612  0.3114
   21MOL   C348 7988   6.414   2.640   1.685  0.3055  0.3056  0.4642
   21MOL   C349 7989   6.498   2.541   1.613  0.0407 -0.0746  0.5740
   21MOL   C350 7990   6.344   2.599   1.799 -0.6139  1.0620  0.0527
   21MOL   C351 7991   6.262   2.689   1.869 -0.7538  0.2475 -0.3267
   21MOL   C352 7992   6.232   2.951   2.058  0.4083 -0.1950  0.5106
   21MOL   H353 7993   6.196   3.018   1.865 -0.0750 -1.3685 -1.5521
   21MOL   H354 7994   6.326   2.971   1.690  2.3749 -0.1651 -0.9442
   21MOL   H355 7995   6.451   2.807   1.550 -2.4165 -1.0021 -1.8076
   21MOL   H356 7996   6.527   2.456   1.675  0.8413 -1.4329 -1.5907
   21MOL   H357 7997   6.441   2.502   1.528 -0.9666  3.2603 -0.3705
   21MOL   H358 7998   6.586   2.598   1.585 -0.1348 -0.7922 -1.5124
   21MOL   H359 7999   6.339   2.502   1.845 -0.2648  0.6707 -0.7179
   21MOL   H360 8000   6.208   2.645   1.951  2.9304 -0.0725  2.0546
   21MOL   H361 8001   6.333   2.991   2.053 -0.2464  1.3050 -1.2071
   21MOL   H362 8002   6.245   2.861   2.119  2.2041  0.7706  1.6003
   21MOL   C363 8003   6.145   3.045   2.148  0.4253  0.1140 -0.2255
   21MOL   C364 8004   6.167   3.191   2.101 -0.1771 -0.0198 -0.0070
   21MOL   C365 8005   6.298   3.254   2.100  0.2482 -0.6081  0.2367
   21MOL   C366 8006   6.320   3.392   2.068  1.0065 -0.0534 -0.3793
   21MOL   C367 8007   6.207   3.467   2.027  0.4248 -0.3060 -0.2813
   21MOL   C368 8008   6.220   3.612   1.998 -0.7226 -0.3224  0.3451
   21MOL   C369 8009   6.082   3.406   2.015 -0.2859  0.1506  1.0821
   21MOL   C370 8010   6.064   3.269   2.049 -0.1878  0.1776  0.2051
   21MOL   C371 8011   6.193   3.029   2.291 -0.3256 -0.1093  0.1218
   21MOL   H372 8012   6.039   3.026   2.133  0.6777 -0.9929 -0.6945
   21MOL   H373 8013   6.375   3.188   2.136  0.6200 -2.0317 -2.9747
   21MOL   H374 8014   6.419   3.432   2.082  0.8721  1.1433 -2.5984
   21MOL   H375 8015   6.148   3.664   2.060 -1.4325 -1.4218  0.4599
   21MOL   H376 8016   6.311   3.663   2.029 -2.2246 -0.4847  5.3287
   21MOL   H377 8017   6.203   3.632   1.892  1.3315  1.0997  0.2531
   21MOL   H378 8018   6.003   3.478   2.000  0.8957  1.2272 -0.0486
   21MOL   H379 8019   5.963   3.232   2.044  0.1752 -0.7302 -0.5850
   21MOL   H380 8020   6.190   2.926   2.324 -1.7361 -0.4129 -0.9404
   21MOL   H381 8021   6.124   3.095   2.343 -0.9385  2.3810 -3.6185
   21MOL   H382 8022   6.294   3.066   2.308 -1.1452  1.6850  1.2948
   22MOL     C1 8023   6.015   2.829   8.028 -0.4939  0.1794  0.0432
   22MOL     C2 8024   6.096   2.938   7.959  0.5887  0.7657  0.5868
   22MOL     C3 8025   6.181   3.023   8.031 -0.0951  1.2227 -0.0083
   22MOL     C4 8026   6.263   3.114   7.960 -0.6084  0.2825 -0.0336
   22MOL     C5 8027   6.258   3.125   7.816 -0.2351 -0.0895  0.0600
   22MOL     C6 8028   6.357   3.212   7.739  0.0825 -0.4651  0.0934
   22MOL     C7 8029   6.160   3.049   7.747  0.1317  0.4283 -0.2353
   22MOL     C8 8030   6.089   2.947   7.816 -0.1405 -0.7122 -0.1430
   22MOL     C9 8031   5.862   2.862   8.041 -0.1465  0.5448 -0.0916
   22MOL    H10 8032   6.031   2.732   7.980  0.1403 -0.3547  1.3060
   22MOL    H11 8033   6.177   3.012   0.058  3.1680  1.9754  0.2383
   22MOL    H12 8034   6.338   3.172   8.011  1.4138 -1.8741 -0.4799
   22MOL    H13 8035   6.461   3.182   7.728  0.9182  0.9815  3.3313
   22MOL    H14 8036   6.312   3.234   7.642 -0.7799  2.2477  1.0382
   22MOL    H15 8037   6.352   3.310   7.787 -0.6877 -0.0427 -0.8483
   22MOL    H16 8038   6.145   3.058   7.640 -0.2795 -0.8210 -0.2864
   22MOL    H17 8039   6.018   2.889   7.758  0.4351 -1.0816 -0.4753
   22MOL    H18 8040   5.828   2.876   7.938  0.4179  0.9796 -0.2174
   22MOL    H19 8041   5.846   2.960   0.005  1.7579  0.7788  0.0906
   22MOL    H20 8042   6.062   2.808   0.044  2.0853  1.5631 -0.8791
   22MOL    C21 8043   5.772   2.754   0.037  0.5148 -0.6139 -0.2258
   22MOL    C22 8044   5.622   2.775   0.008 -0.4087 -0.6468 -0.4912
   22MOL    C23 8045   5.563   2.898   0.035 -0.6619  0.1261 -0.3292
   22MOL    C24 8046   5.433   2.927   0.002 -0.0940  0.3515  0.4637
   22MOL    C25 8047   5.352   2.830   8.017 -0.4637  0.7932 -0.2378
   22MOL    C26 8048   5.208   2.854   7.996  0.0897  0.2935  0.0255
   22MOL    C27 8049   5.411   2.702   8.002  0.5487 -0.3376 -0.1729
   22MOL    C28 8050   5.545   2.674   8.038 -0.4034  0.0314 -0.6684
   22MOL    C29 8051   5.800   2.740   0.189  0.6244 -0.0908  0.6152
   22MOL    H30 8052   5.797   2.661   8.067  2.1103 -1.0246  1.2574
   22MOL    H31 8053   5.625   2.977   0.073  0.3183 -1.6750  1.9430
   22MOL    H32 8054   5.391   3.024   0.023  0.3038  0.6168  0.0353
   22MOL    H33 8055   5.146   2.799   8.067 -2.4880 -0.4051 -2.6621
   22MOL    H34 8056   5.175   2.957   8.007  0.6189  0.2788  1.9592
   22MOL    H35 8057   5.190   2.819   7.895  1.6210 -1.6732  0.4073
   22MOL    H36 8058   5.346   2.622   7.969  2.1520 -1.9204  0.4398
   22MOL    H37 8059   5.588   2.575   8.028 -2.3136 -0.6609 -2.4416
   22MOL    H38 8060   5.908   2.742   0.206  0.3443  0.4387  2.4576
   22MOL    H39 8061   5.766   2.645   0.230 -2.5007 -1.7464 -5.2284
   22MOL    C40 8062   5.756   2.851   0.284 -1.0108 -0.5829 -0.4582
   22MOL    C41 8063   5.845   2.977   0.285  0.6071 -0.2853 -0.3741
   22MOL    C42 8064   5.981   2.982   0.332  0.6056 -0.1011 -0.1280
   22MOL    C43 8065   6.042   3.111   0.352 -0.3597 -0.2075 -0.5313
   22MOL    C44 8066   5.974   3.233   0.312  0.3114  0.5202 -0.2647
   22MOL    C45 8067   6.043   3.365   0.320 -0.1722 -0.5954 -0.3802
   22MOL    C46 8068   5.840   3.223   0.269  0.6224  0.1385  0.4282
   22MOL    C47 8069   5.774   3.099   0.252  0.3352  0.0545  0.7678
   22MOL    C48 8070   5.757   2.800   0.431 -0.4667  0.2859 -0.0935
   22MOL    H49 8071   5.658   2.896   0.268 -0.7522  1.0334  2.1108
   22MOL    H50 8072   6.029   2.892   0.367 -1.7404 -0.3179  2.6495
   22MOL    H51 8073   6.136   3.125   0.403  0.7759 -1.1384 -2.3433
   22MOL    H52 8074   6.152   3.366   0.330 -0.3018  0.0774  0.9884
   22MOL    H53 8075   6.023   3.410   0.222 -0.7762 -0.8989 -0.3972
   22MOL    H54 8076   5.987   3.412   0.400  1.1756  0.2842  0.0611
   22MOL    H55 8077   5.798   3.318   0.242  0.8817  0.0620 -0.2393
   22MOL    H56 8078   5.671   3.102   0.220  0.7993  0.3429 -0.7490
   22MOL    H57 8079   5.758   2.893   0.488  1.1987 -0.8018  1.7234
   22MOL    H58 8080   5.843   2.744   0.468  0.2579  1.8930  0.7121
   22MOL    C59 8081   5.631   2.712   0.468 -0.6529 -0.5914  0.9547
   22MOL    C60 8082   5.496   2.778   0.428 -0.3787 -0.4257 -0.1566
   22MOL    C61 8083   5.399   2.714   0.347 -0.0445 -0.1095 -0.9348
   22MOL    C62 8084   5.289   2.786   0.298  0.4069 -0.1264 -0.0667
   22MOL    C63 8085   5.266   2.919   0.347  0.3807 -0.2452 -0.3746
   22MOL    C64 8086   5.150   3.001   0.286  0.2407 -0.7410 -0.2837
   22MOL    C65 8087   5.356   2.981   0.437 -0.4063  0.4256  0.2636
   22MOL    C66 8088   5.468   2.913   0.480  0.1302  0.2602  0.1721
   22MOL    C67 8089   5.638   2.673   0.613 -0.4292 -0.0332 -0.4009
   22MOL    H68 8090   5.640   2.620   0.410  1.4615  0.5256 -0.5696
   22MOL    H69 8091   5.420   2.618   0.301  1.1404  0.1974 -1.0622
   22MOL    H70 8092   5.226   2.741   0.222  2.1675 -0.0078 -1.6266
   22MOL    H71 8093   5.185   3.030   0.187  1.8965 -0.5405  0.3498
   22MOL    H72 8094   5.061   2.938   0.283 -1.1517  0.9441  3.0423
   22MOL    H73 8095   5.123   3.093   0.338  0.9548 -0.1765 -0.9027
   22MOL    H74 8096   5.346   3.084   0.468  0.6390  0.5772  0.1350
   22MOL    H75 8097   5.540   2.969   0.539  0.9081 -0.0429 -0.4780
   22MOL    H76 8098   5.540   2.632   0.638 -0.7617  0.0170 -1.6067
   22MOL    H77 8099   5.642   2.763   0.675  1.5603 -2.0383  2.5038
   22MOL    C78 8100   5.743   2.569   0.662  0.7128 -0.3699  0.4461
   22MOL    C79 8101   5.743   2.448   0.575  0.2412 -0.5173 -0.5507
   22MOL    C80 8102   5.634   2.364   0.551  0.2980 -0.4506 -0.1553
   22MOL    C81 8103   5.641   2.264   0.455 -0.3808  0.4970  0.7073
   22MOL    C82 8104   5.753   2.242   0.378  0.3055 -0.1015 -0.2880
   22MOL    C83 8105   5.744   2.137   0.274 -0.3125  0.4398 -0.0590
   22MOL    C84 8106   5.867   2.326   0.396  0.9485  0.0270  0.0773
   22MOL    C85 8107   5.860   2.427   0.498 -0.1908 -0.9642 -0.0793
   22MOL    C86 8108   5.729   2.518   0.811  0.8112  0.2300 -0.2356
   22MOL    H87 8109   5.843   2.611   0.656  1.0426 -0.8753  2.0756
   22MOL    H88 8110   5.537   2.380   0.596  0.4976 -0.5950  0.3216
   22MOL    H89 8111   5.550   2.206   0.441 -0.1570  0.0511  1.1059
   22MOL    H90 8112   5.830   2.155   0.209 -0.7566 -2.4843 -1.5318
   22MOL    H91 8113   5.755   2.034   0.310 -2.3680  0.3559  0.3718
   22MOL    H92 8114   5.651   2.154   0.221 -2.0134 -2.2740  1.8983
   22MOL    H93 8115   5.956   2.297   0.342  0.5998 -1.9391  0.5160
   22MOL    H94 8116   5.947   2.491   0.507 -1.9021  1.3745  0.5182
   22MOL    H95 8117   5.659   2.434   0.811  0.1935  0.7433  0.3975
   22MOL    H96 8118   5.677   2.592   0.872  2.2268  0.3515  0.8529
   22MOL    C97 8119   5.866   2.494   0.874  0.1617  0.5394  0.0916
   22MOL    C98 8120   5.935   2.629   0.904 -1.0450 -0.1517  0.4964
   22MOL    C99 8121   6.025   2.686   0.810 -0.1580 -0.1815  0.2028
   22MOL   C100 8122   6.070   2.812   0.827 -0.0334 -0.5444  0.2444
   22MOL   C101 8123   6.025   2.895   0.933 -0.3263  0.5559  0.5544
   22MOL   C102 8124   6.067   3.042   0.938 -0.1286  0.7997 -0.1485
   22MOL   C103 8125   5.932   2.840   1.030  0.5120  0.6913 -0.2481
   22MOL   C104 8126   5.891   2.705   1.013 -0.2793  0.6357  0.5014
   22MOL   C105 8127   5.950   2.372   0.814 -0.5473 -0.2121  0.0452
   22MOL   H106 8128   5.841   2.455   0.973  1.6304 -1.6109 -0.3504
   22MOL   H107 8129   6.068   2.624   0.733  0.5138  0.9824 -0.3756
   22MOL   H108 8130   6.149   2.850   0.764  0.0555 -0.1885  0.5682
   22MOL   H109 8131   6.033   3.106   0.857 -1.1325 -1.0251 -1.1798
   22MOL   H110 8132   6.050   3.086   1.037  0.1223  0.8936 -0.1475
   22MOL   H111 8133   6.172   3.036   0.911  0.0149 -3.3479  1.0675
   22MOL   H112 8134   5.893   2.902   1.109 -0.8003 -1.7831  1.1133
   22MOL   H113 8135   5.835   2.654   1.090  1.6099  0.7414  1.9460
   22MOL   H114 8136   5.966   2.398   0.709 -2.3818 -0.0735 -0.2117
   22MOL   H115 8137   5.885   2.285   0.805  1.3822 -1.5763 -1.2484
   22MOL   C116 8138   6.084   2.344   0.885  0.5693  0.1571 -0.8916
   22MOL   C117 8139   6.169   2.258   0.792  0.8020 -0.1480 -0.6753
   22MOL   C118 8140   6.270   2.311   0.716 -0.4830  0.3716 -0.6318
   22MOL   C119 8141   6.333   2.236   0.616  0.4385 -0.0064  0.3647
   22MOL   C120 8142   6.296   2.103   0.594  0.1330 -0.6099 -0.0267
   22MOL   C121 8143   6.362   2.018   0.489  0.0792 -0.5464  0.3275
   22MOL   C122 8144   6.198   2.041   0.675 -0.5966 -0.4067  0.5870
   22MOL   C123 8145   6.137   2.125   0.774 -1.1018  0.7599  0.7576
   22MOL   C124 8146   6.076   2.289   1.036  0.7030 -0.0490 -0.1785
   22MOL   H125 8147   6.149   2.432   0.891  2.2584 -1.0052 -1.7699
   22MOL   H126 8148   6.305   2.412   0.731  0.8902 -0.7199  4.6622
   22MOL   H127 8149   6.419   2.274   0.563  1.1179 -0.8747  0.8313
   22MOL   H128 8150   6.425   1.948   0.543 -0.2557 -0.6348  0.6088
   22MOL   H129 8151   6.290   1.969   0.423  2.2851  0.6256 -3.0198
   22MOL   H130 8152   6.423   2.078   0.422 -2.4940  0.1571 -1.4813
   22MOL   H131 8153   6.179   1.935   0.674 -0.9402 -0.3385 -0.7053
   22MOL   H132 8154   6.065   2.079   0.840 -1.6102  0.4298 -0.0067
   22MOL   H133 8155   6.075   2.180   1.028 -1.9554 -0.1400  0.8782
   22MOL   H134 8156   5.975   2.304   1.075  1.1588  2.1919  0.2417
   22MOL   C135 8157   6.186   2.335   1.133 -0.1090 -0.4859 -0.2965
   22MOL   C136 8158   6.224   2.217   1.217 -0.1519  0.2131  0.3953
   22MOL   C137 8159   6.343   2.143   1.182 -0.0390  0.5893  0.5323
   22MOL   C138 8160   6.387   2.037   1.264 -0.1702  0.6478 -0.2531
   22MOL   C139 8161   6.322   2.011   1.385 -0.0734  0.2045 -0.2090
   22MOL   C140 8162   6.375   1.912   1.487  0.2027 -0.3046 -0.1880
   22MOL   C141 8163   6.197   2.074   1.408  0.1837 -0.2830  1.3051
   22MOL   C142 8164   6.153   2.182   1.333  0.5369  0.3522 -0.1643
   22MOL   C143 8165   6.139   2.457   1.216  0.8362  0.1049  0.1430
   22MOL   H144 8166   6.273   2.374   1.080 -1.0054  0.4715 -1.0993
   22MOL   H145 8167   6.406   2.158   1.096 -2.0869  0.2695 -1.0451
   22MOL   H146 8168   6.472   1.972   1.253 -0.5437 -0.0287  0.7598
   22MOL   H147 8169   6.359   1.810   1.454  1.2272 -0.4160 -0.3224
   22MOL   H148 8170   6.482   1.915   1.504  1.0504 -1.9775 -4.5206
   22MOL   H149 8171   6.313   1.920   1.577 -1.4513 -0.7413 -1.2521
   22MOL   H150 8172   6.148   2.040   1.498 -1.5489 -1.5257 -0.0634
   22MOL   H151 8173   6.059   2.229   1.358  0.2498 -0.5377  0.4256
   22MOL   H152 8174   6.036   2.441   1.246  1.1979 -0.1127  1.3055
   22MOL   H153 8175   6.125   2.540   1.146  0.4519 -1.1106 -1.2487
   22MOL   C154 8176   6.221   2.495   1.336  0.2041 -0.3632 -0.7515
   22MOL   C155 8177   6.132   2.487   1.466 -0.2075  0.0579  0.1791
   22MOL   C156 8178   6.026   2.579   1.476  0.1420  0.0825 -0.3038
   22MOL   C157 8179   5.948   2.573   1.593  0.7272 -0.8910  1.0977
   22MOL   C158 8180   5.979   2.475   1.692  0.4270  0.7042 -0.4034
   22MOL   C159 8181   5.913   2.492   1.826  0.1772  0.4591  0.3637
   22MOL   C160 8182   6.084   2.389   1.682 -0.3546 -0.6672 -0.3318
   22MOL   C161 8183   6.166   2.398   1.568 -0.0843 -0.5081  0.4127
   22MOL   C162 8184   6.274   2.638   1.310  1.4030 -0.2050  0.0142
   22MOL   H163 8185   6.304   2.427   1.355 -1.6393 -2.0667  1.4915
   22MOL   H164 8186   6.011   2.661   1.407 -0.6951 -1.0519 -1.4783
   22MOL   H165 8187   5.868   2.643   1.612  2.1229  1.5405 -1.5697
   22MOL   H166 8188   5.816   2.443   1.815 -0.0684  1.2359 -0.9689
   22MOL   H167 8189   5.974   2.446   1.904  0.2244 -0.1535 -0.0367
   22MOL   H168 8190   5.887   2.594   1.854 -0.9972  0.1952  0.2534
   22MOL   H169 8191   6.118   2.317   1.755  2.4514  1.4050  0.4855
   22MOL   H170 8192   6.256   2.341   1.554  0.8146  0.6678  1.3460
   22MOL   H171 8193   6.332   2.665   1.398 -1.6019  3.2395  1.0999
   22MOL   H172 8194   6.193   2.712   1.304 -0.9349 -2.4760  2.1618
   22MOL   C173 8195   6.366   2.650   1.183 -0.7429  0.2811 -0.9389
   22MOL   C174 8196   6.503   2.572   1.205 -0.1989 -0.2679 -0.2844
   22MOL   C175 8197   6.538   2.474   1.115  0.4560  0.2342  0.2409
   22MOL   C176 8198   6.663   2.406   1.125 -0.2191 -0.1978  0.6414
   22MOL   C177 8199   6.747   2.424   1.237 -0.0742  0.3581 -0.1739
   22MOL   C178 8200   6.888   2.356   1.244 -0.1888  0.0534 -0.1509
   22MOL   C179 8201   6.706   2.521   1.334 -0.3401 -0.1712 -0.5481
   22MOL   C180 8202   6.580   2.592   1.318 -0.0888 -0.1080  0.1709
   22MOL   C181 8203   6.392   2.800   1.164  0.9442  0.5211  0.1337
   22MOL   H182 8204   6.314   2.615   1.094 -0.6614  0.1445 -0.9338
   22MOL   H183 8205   6.474   2.459   1.028  1.0223 -0.4875 -0.0611
   22MOL   H184 8206   6.688   2.335   1.048  2.2017  1.1207  0.1635
   22MOL   H185 8207   6.929   2.383   1.341 -0.3906  1.3347 -0.4135
   22MOL   H186 8208   6.880   2.248   1.228  0.6936  0.1714 -1.5283
   22MOL   H187 8209   6.962   2.395   1.174 -1.4630  0.4449 -1.3163
   22MOL   H188 8210   6.764   2.551   1.420 -0.2647  1.2575 -1.0833
   22MOL   H189 8211   6.542   2.665   1.388  0.2337  1.4620 -1.2484
   22MOL   H190 8212   6.431   2.832   1.260  3.7276 -1.6807 -0.1945
   22MOL   H191 8213   6.302   2.859   1.146  2.5113  2.9031 -0.1331
   22MOL   C192 8214   6.499   2.823   1.056  0.4379 -0.2152  0.7173
   22MOL   C193 8215   6.563   2.962   1.069  0.5159 -0.0290  0.1525
   22MOL   C194 8216   6.489   3.079   1.097 -0.6221  0.1998  0.4685
   22MOL   C195 8217   6.553   3.198   1.130 -0.1918 -0.6462 -0.3694
   22MOL   C196 8218   6.692   3.208   1.126 -0.6096 -0.0747 -0.9338
   22MOL   C197 8219   6.771   3.337   1.162  0.8454  0.0075  0.4672
   22MOL   C198 8220   6.764   3.092   1.093  0.2777 -0.1533 -0.0804
   22MOL   C199 8221   6.704   2.967   1.070 -0.3439 -0.1192  0.4644
   22MOL   C200 8222   6.432   2.808   0.914  0.8093  0.5020  0.4342
   22MOL   H201 8223   6.576   2.746   1.054  0.3686 -0.2650 -1.1131
   22MOL   H202 8224   6.381   3.070   1.093 -0.8400  3.1667 -1.3770
   22MOL   H203 8225   6.499   3.288   1.157 -0.7107 -0.9312 -0.4398
   22MOL   H204 8226   6.704   3.397   1.223 -1.7520 -0.6105 -1.6713
   22MOL   H205 8227   6.868   3.333   1.212 -0.0406  3.2910  2.6021
   22MOL   H206 8228   6.778   3.401   1.074 -1.0085 -0.9882 -0.4440
   22MOL   H207 8229   6.871   3.102   1.086  0.1298  1.8525  0.2204
   22MOL   H208 8230   6.749   2.876   1.033  0.2239 -0.2946  1.5670
   22MOL   H209 8231   6.353   2.882   0.908 -1.1809 -1.6556 -0.4289
   22MOL   H210 8232   6.378   2.714   0.914 -1.5809  1.8343  0.5779
   22MOL   C211 8233   6.513   2.804   0.783  0.0191 -0.6877  0.1348
   22MOL   C212 8234   6.622   2.691   0.779  0.0652 -0.2167 -0.0642
   22MOL   C213 8235   6.582   2.561   0.759  0.3682 -0.3098  0.2499
   22MOL   C214 8236   6.675   2.457   0.765 -0.1572 -0.0258  0.5075
   22MOL   C215 8237   6.813   2.488   0.768 -0.1294 -0.5218 -0.4212
   22MOL   C216 8238   6.907   2.367   0.777 -0.6139  0.5135  0.8022
   22MOL   C217 8239   6.859   2.618   0.791  0.0495  0.0338  0.1288
   22MOL   C218 8240   6.758   2.723   0.794  1.0717 -0.2624  0.0782
   22MOL   C219 8241   6.555   2.951   0.729  0.3205 -0.5004  0.4238
   22MOL   H220 8242   6.433   2.774   0.716 -1.0755  1.3069  0.5188
   22MOL   H221 8243   6.476   2.543   0.748  0.2620  0.6388 -0.2732
   22MOL   H222 8244   6.648   2.353   0.763  0.6823 -0.2395 -3.9117
   22MOL   H223 8245   6.893   2.293   0.856  1.8934 -0.8898 -0.0060
   22MOL   H224 8246   6.899   2.311   0.684 -1.0326  0.7076  0.7165
   22MOL   H225 8247   7.012   2.396   0.786 -0.4440 -0.8708  3.6253
   22MOL   H226 8248   6.964   2.641   0.800  0.2853 -0.6155 -0.8371
   22MOL   H227 8249   6.788   2.824   0.818 -1.1088  0.2285  0.8011
   22MOL   H228 8250   6.654   2.953   0.685  0.7593 -1.9086  1.2883
   22MOL   H229 8251   6.565   3.030   0.803  1.0653 -1.7703  1.7147
   22MOL   C230 8252   6.472   3.002   0.606 -0.4281 -0.1732  0.9396
   22MOL   C231 8253   6.447   2.896   0.499 -0.2404  0.2005  0.2190
   22MOL   C232 8254   6.320   2.855   0.467  0.0889 -0.0302  0.3329
   22MOL   C233 8255   6.288   2.758   0.365  0.2623 -0.4359  0.0876
   22MOL   C234 8256   6.400   2.699   0.289  0.0655 -0.5529  0.3271
   22MOL   C235 8257   6.382   2.608   0.166  0.1841  0.6830  0.2485
   22MOL   C236 8258   6.531   2.735   0.324 -0.7376 -0.4499 -0.2800
   22MOL   C237 8259   6.553   2.828   0.429  0.7021 -0.1199 -0.0695
   22MOL   C238 8260   6.536   3.125   0.533  0.4625 -0.3857  0.4775
   22MOL   H239 8261   6.379   3.036   0.650  0.7026  2.2607  1.5497
   22MOL   H240 8262   6.231   2.898   0.512 -0.2723  0.2554 -0.6393
   22MOL   H241 8263   6.186   2.744   0.333  0.0435  1.1748  0.0488
   22MOL   H242 8264   6.276   2.591   0.145 -0.1185 -0.5994  2.5645
   22MOL   H243 8265   6.423   2.641   0.071  3.0532 -0.4818  1.0280
   22MOL   H244 8266   6.408   2.505   0.191 -0.3308  0.6214  0.5607
   22MOL   H245 8267   6.614   2.689   0.273 -0.3009 -0.9400  0.8657
   22MOL   H246 8268   6.658   2.847   0.446  0.4989  0.9884 -0.0090
   22MOL   H247 8269   6.470   3.149   0.450 -0.4691  2.4797  1.9739
   22MOL   H248 8270   6.633   3.099   0.489  0.5777  2.7219 -1.2380
   22MOL   C249 8271   6.555   3.242   0.624  0.3677 -0.5336  0.8523
   22MOL   C250 8272   6.427   3.300   0.676 -0.0596  0.0433  0.4522
   22MOL   C251 8273   6.318   3.343   0.591 -0.4392  0.1754 -0.3743
   22MOL   C252 8274   6.197   3.386   0.646 -0.0936 -0.2135 -0.3727
   22MOL   C253 8275   6.192   3.406   0.786 -0.2062 -0.7060  0.3983
   22MOL   C254 8276   6.057   3.453   0.846 -0.4976 -0.0564 -0.0127
   22MOL   C255 8277   6.297   3.371   0.868 -0.0379 -0.1974 -0.5315
   22MOL   C256 8278   6.411   3.309   0.817  0.3512 -0.1191  0.3059
   22MOL   C257 8279   6.623   3.356   0.543  0.0708 -0.4491  0.3757
   22MOL   H258 8280   6.623   3.206   0.701 -0.4329  0.0983  1.8611
   22MOL   H259 8281   6.328   3.324   0.485  0.4657 -0.9010 -0.1108
   22MOL   H260 8282   6.108   3.415   0.593 -2.2201  0.0019  3.1861
   22MOL   H261 8283   6.028   3.398   0.935 -0.9965  1.3689  0.7136
   22MOL   H262 8284   6.055   3.558   0.873  0.9541  0.0704 -0.3167
   22MOL   H263 8285   5.982   3.425   0.772  1.2382 -0.0649 -1.8208
   22MOL   H264 8286   6.285   3.377   0.975  1.2511  0.7705 -0.4236
   22MOL   H265 8287   6.495   3.274   0.876  1.1419  0.0690 -0.6925
   22MOL   H266 8288   6.597   3.454   0.583 -4.2394 -0.7359 -1.4058
   22MOL   H267 8289   6.583   3.366   0.442  1.8970 -3.5899 -0.7348
   22MOL   C268 8290   6.775   3.338   0.527  0.6542  0.1654  0.0570
   22MOL   C269 8291   6.847   3.354   0.667  0.2105  0.8756  0.2242
   22MOL   C270 8292   6.849   3.474   0.734 -0.5503 -0.2243  0.3526
   22MOL   C271 8293   6.929   3.492   0.854  0.7087  0.4668 -0.7473
   22MOL   C272 8294   7.003   3.385   0.904 -0.2559  0.2992  0.6590
   22MOL   C273 8295   7.087   3.405   1.027  0.0355 -0.1047  0.9053
   22MOL   C274 8296   6.998   3.265   0.834  0.7051  0.2525 -0.1905
   22MOL   C275 8297   6.922   3.245   0.720  0.1500 -0.5072 -0.1542
   22MOL   C276 8298   6.835   3.431   0.414 -0.2526 -0.2769  0.0064
   22MOL   H277 8299   6.776   3.235   0.491  1.8041  1.0175 -2.5020
   22MOL   H278 8300   6.798   3.561   0.695 -2.1481 -0.6007  1.5273
   22MOL   H279 8301   6.927   3.588   0.902 -1.0558 -0.7780  1.7490
   22MOL   H280 8302   7.156   3.486   1.003 -0.9716  0.0175 -1.6599
   22MOL   H281 8303   7.035   3.442   1.116 -0.9450 -2.2882  1.2729
   22MOL   H282 8304   7.146   3.317   1.052  2.2403  1.0995  0.1440
   22MOL   H283 8305   7.063   3.184   0.862 -1.5498 -2.4996 -2.5670
   22MOL   H284 8306   6.912   3.152   0.665 -1.4100  1.3000 -3.0387
   22MOL   H285 8307   6.786   3.527   0.425  0.6392  0.1201  0.5475
   22MOL   H286 8308   6.793   3.394   0.321  0.3500 -0.8647 -0.0420
   22MOL   C287 8309   6.987   3.442   0.396 -0.8093  0.4303  0.5781
   22MOL   C288 8310   7.032   3.581   0.438  0.2830  0.3142 -0.3362
   22MOL   C289 8311   6.978   3.697   0.371  0.0264 -0.3215  0.5243
   22MOL   C290 8312   7.025   3.828   0.407 -0.6047  0.1874  0.6025
   22MOL   C291 8313   7.120   3.847   0.502 -0.2246  0.6870 -0.3281
   22MOL   C292 8314   7.159   3.987   0.548  0.4175  0.0977  0.3528
   22MOL   C293 8315   7.163   3.730   0.572  0.1966 -0.3214  0.3603
   22MOL   C294 8316   7.133   3.602   0.536 -0.2987 -0.1560 -0.5029
   22MOL   C295 8317   7.049   3.401   0.259 -0.6420 -0.3056  0.0999
   22MOL   H296 8318   7.022   3.369   0.469 -0.7978  0.3589  0.5009
   22MOL   H297 8319   6.911   3.684   0.288  1.3852  0.1904 -0.6715
   22MOL   H298 8320   6.988   3.912   0.350 -1.0686 -0.1197  0.4509
   22MOL   H299 8321   7.151   4.061   0.468  0.4036  0.8467  1.0454
   22MOL   H300 8322   7.100   4.016   0.635  1.1547  0.8424  0.6030
   22MOL   H301 8323   7.262   3.976   0.580  1.0082  0.5785 -1.3040
   22MOL   H302 8324   7.222   3.746   0.661  0.0430 -0.1063  0.4246
   22MOL   H303 8325   7.173   3.521   0.595 -1.6280  0.6228  1.5095
   22MOL   H304 8326   7.158   3.406   0.266 -0.3472 -0.7261 -3.3274
   22MOL   H305 8327   7.013   3.465   0.179 -0.8550 -2.1279 -1.2963
   22MOL   C306 8328   7.013   3.262   0.213  0.4203 -0.6430 -0.3849
   22MOL   C307 8329   7.036   3.151   0.313  0.3612 -0.1908 -0.1819
   22MOL   C308 8330   7.174   3.124   0.357  0.6439 -0.5828  0.1869
   22MOL   C309 8331   7.197   3.017   0.446 -0.0434 -0.2151  0.3542
   22MOL   C310 8332   7.091   2.926   0.489 -0.4941 -0.1176  0.5607
   22MOL   C311 8333   7.123   2.807   0.584 -0.3020 -0.1862  0.5464
   22MOL   C312 8334   6.962   2.953   0.447 -0.1316  0.0709  0.2655
   22MOL   C313 8335   6.935   3.063   0.358  0.0364 -0.3942 -0.0544
   22MOL   C314 8336   7.094   3.239   0.082  0.1236  0.1437  0.6266
   22MOL   H315 8337   6.909   3.254   0.180 -0.2379 -1.5710  1.8008
   22MOL   H316 8338   7.253   3.186   0.317 -1.1732  1.5883 -0.1240
   22MOL   H317 8339   7.302   3.005   0.470  0.4744  2.1161 -0.6644
   22MOL   H318 8340   7.161   2.836   0.682 -1.6622 -0.7901  1.2693
   22MOL   H319 8341   7.033   2.747   0.595  0.4956 -1.3893  0.6612
   22MOL   H320 8342   7.194   2.747   0.527 -0.8078  0.2836 -0.6097
   22MOL   H321 8343   6.878   2.894   0.482  0.9730 -2.9560 -1.9586
   22MOL   H322 8344   6.835   3.076   0.320  0.6599 -2.7135 -2.6287
   22MOL   H323 8345   7.201   3.261   0.092  0.6260  0.1637 -3.8995
   22MOL   H324 8346   7.072   3.311   0.003 -0.0072  0.0086  0.5411
   22MOL   C325 8347   7.083   3.099   0.024 -0.4527 -0.5745 -0.3203
   22MOL   C326 8348   7.199   3.082   8.003 -0.5493 -0.1157  1.0458
   22MOL   C327 8349   7.307   2.994   8.031 -0.0774 -0.0504 -0.3666
   22MOL   C328 8350   7.417   2.989   7.944 -0.5809  0.0716 -0.8026
   22MOL   C329 8351   7.428   3.078   7.837 -0.3733 -0.2042 -0.6195
   22MOL   C330 8352   7.551   3.098   7.757 -0.3639 -0.3981  0.6511
   22MOL   C331 8353   7.315   3.149   7.801  0.4403  0.3824 -0.3219
   22MOL   C332 8354   7.201   3.152   7.882  0.2785  0.0578  0.2543
   22MOL   C333 8355   6.948   3.071   8.048  0.3885  0.3787  0.3997
   22MOL   H334 8356   7.095   3.025   0.103  1.2686 -0.0113 -0.0130
   22MOL   H335 8357   7.305   2.929   0.037  0.1983 -0.7941 -0.9258
   22MOL   H336 8358   7.498   2.922   7.969 -1.6200 -0.0137  2.6571
   22MOL   H337 8359   7.531   3.169   7.677 -0.4999  0.0543  1.0856
   22MOL   H338 8360   7.633   3.138   7.818  0.0489 -1.1824  0.6199
   22MOL   H339 8361   7.589   3.007   7.710  1.3289  0.2064  0.8324
   22MOL   H340 8362   7.317   3.213   7.714  1.2199  3.9903  2.2165
   22MOL   H341 8363   7.110   3.204   7.854  1.5625  1.9625 -0.4537
   22MOL   H342 8364   6.938   3.128   7.956  0.0057  0.0358  0.2252
   22MOL   H343 8365   6.868   3.094   0.039  0.4301  1.0425  0.2324
   22MOL   C344 8366   6.931   2.914   8.002 -0.3373  0.1042 -0.5361
   22MOL   C345 8367   6.812   2.906   7.907  0.4765  0.4904  0.3157
   22MOL   C346 8368   6.676   2.910   7.952 -0.7477 -0.1101  0.3753
   22MOL   C347 8369   6.575   2.878   7.860 -0.0543  0.5736 -0.0902
   22MOL   C348 8370   6.604   2.841   7.728  0.0333  0.6711  0.1050
   22MOL   C349 8371   6.494   2.814   7.631 -0.8131  0.3184 -0.2343
   22MOL   C350 8372   6.740   2.835   7.681  0.2408  0.5743 -0.3056
   22MOL   C351 8373   6.842   2.872   7.774  1.0755  0.2391 -0.0914
   22MOL   C352 8374   6.902   2.820   0.041 -0.4657  0.2487 -0.3849
   22MOL   H353 8375   7.020   2.881   7.948  0.0532  2.7711 -1.5780
   22MOL   H354 8376   6.658   2.938   8.054  3.2498 -2.2014  1.7537
   22MOL   H355 8377   6.474   2.883   7.900 -0.2914  0.5778 -0.6750
   22MOL   H356 8378   6.410   2.774   7.688 -1.0380  1.2540  0.0971
   22MOL   H357 8379   6.458   2.905   7.582 -0.8587  1.0718  1.1753
   22MOL   H358 8380   6.530   2.755   7.547 -0.6689 -3.4951  2.3553
   22MOL   H359 8381   6.754   2.805   7.578  0.4971  1.0333 -0.4075
   22MOL   H360 8382   6.944   2.873   7.740  1.3023  0.7115  0.5965
   22MOL   H361 8383   6.798   2.821   0.075 -0.4614  1.6219 -0.3535
   22MOL   H362 8384   6.964   2.843   0.128 -0.2085  0.6908 -0.6864
   22MOL   C363 8385   6.928   2.674   8.076  0.1255 -0.0740  0.1111
   22MOL   C364 8386   6.871   2.581   0.106  0.4522  0.7902  0.6438
   22MOL   C365 8387   6.824   2.454   0.068 -0.4362  0.0460 -0.1375
   22MOL   C366 8388   6.763   2.369   0.158 -0.1500  0.0910  0.3610
   22MOL   C367 8389   6.772   2.390   0.299 -0.1203 -0.2125 -0.2363
   22MOL   C368 8390   6.718   2.284   0.394 -0.5762 -0.4709 -0.2399
   22MOL   C369 8391   6.834   2.510   0.335 -0.5768 -0.2027  0.0305
   22MOL   C370 8392   6.876   2.607   0.243  0.1290  0.0591 -0.4404
   22MOL   C371 8393   7.071   2.628   8.048 -0.5617  0.0315 -0.0499
   22MOL   H372 8394   6.870   2.657   7.985  2.7984 -1.5603 -1.3815
   22MOL   H373 8395   6.812   2.432   8.044 -0.1920  1.2225 -0.4280
   22MOL   H374 8396   6.720   2.282   0.110  2.7029  0.0381 -2.2158
   22MOL   H375 8397   6.756   2.310   0.493  0.1687 -0.6982 -0.4670
   22MOL   H376 8398   6.611   2.284   0.413 -0.6461  0.6660 -0.5774
   22MOL   H377 8399   6.750   2.183   0.370 -1.0568 -0.4431 -1.0229
   22MOL   H378 8400   6.837   2.532   0.440 -0.4013 -1.3182  0.2583
   22MOL   H379 8401   6.908   2.699   0.289 -1.0363  0.0336  0.4319
   22MOL   H380 8402   7.112   2.680   7.961 -0.5137  1.4728  0.8089
   22MOL   H381 8403   7.084   2.520   8.056 -1.7476  0.0657  2.9589
   22MOL   H382 8404   7.114   2.650   0.066  0.1496  0.8848 -0.5403
   23MOL     C1 8405   7.754   2.121   1.555 -0.1735 -0.2989  0.5313
   23MOL     C2 8406   7.823   2.224   1.643  0.2154  0.2582 -0.0752
   23MOL     C3 8407   7.778   2.259   1.772  0.0901  0.0500  0.4795
   23MOL     C4 8408   7.846   2.361   1.845  0.4712  0.3956  0.9075
   23MOL     C5 8409   7.973   2.405   1.801 -0.2524 -0.6598 -0.5579
   23MOL     C6 8410   8.050   2.494   1.892  0.2058  0.4155  0.3366
   23MOL     C7 8411   8.018   2.371   1.675  0.1830 -0.4808  0.2863
   23MOL     C8 8412   7.937   2.290   1.595  0.6165  0.5260 -0.6435
   23MOL     C9 8413   7.818   1.978   1.562  0.5357  0.3315 -0.5222
   23MOL    H10 8414   7.654   2.114   1.596 -0.4577 -0.5599 -0.1971
   23MOL    H11 8415   7.693   2.214   1.821 -0.2912  2.4047  2.0875
   23MOL    H12 8416   7.829   2.380   1.950  1.9042  0.7997  1.0733
   23MOL    H13 8417   0.052   2.448   1.946  2.1273  2.9409 -0.3383
   23MOL    H14 8418   0.020   2.575   1.839  1.7031 -2.2611 -2.4445
   23MOL    H15 8419   7.984   2.543   1.965 -0.3403 -1.6804  1.2826
   23MOL    H16 8420   0.028   2.413   1.632  0.3876 -1.6132 -0.4092
   23MOL    H17 8421   7.968   2.265   1.495 -2.9154 -1.7221 -1.2656
   23MOL    H18 8422   7.823   1.949   1.667  0.5629  0.4217 -0.4992
   23MOL    H19 8423   7.922   1.977   1.528  0.9140 -0.4358  0.6404
   23MOL    H20 8424   7.742   2.161   1.454  1.9241  0.7949  0.6914
   23MOL    C21 8425   7.740   1.865   1.494 -0.3803 -0.3762 -0.8246
   23MOL    C22 8426   7.591   1.870   1.525 -1.2103 -0.4816 -0.2794
   23MOL    C23 8427   7.503   1.904   1.421 -0.3872 -0.0882  0.4589
   23MOL    C24 8428   7.364   1.916   1.450  0.5442 -0.0935 -0.1484
   23MOL    C25 8429   7.307   1.889   1.581  0.4000  0.1568  0.1558
   23MOL    C26 8430   7.156   1.900   1.617 -0.1969  0.7821 -0.0233
   23MOL    C27 8431   7.397   1.850   1.681  0.4144 -0.0111 -0.1528
   23MOL    C28 8432   7.537   1.845   1.652  0.3505  0.0112  0.5225
   23MOL    C29 8433   7.805   1.733   1.520  0.9178 -0.4672  0.1894
   23MOL    H30 8434   7.743   1.884   1.386 -0.5552 -0.7116 -0.8917
   23MOL    H31 8435   7.542   1.937   1.326 -1.1618 -3.0788 -0.9488
   23MOL    H32 8436   7.299   1.951   1.371  1.3462  2.2351  0.2082
   23MOL    H33 8437   7.098   1.809   1.598 -0.5874  0.2096  3.6017
   23MOL    H34 8438   7.154   1.917   1.724 -1.9447  0.6395 -0.0107
   23MOL    H35 8439   7.105   1.978   1.561 -0.9603  0.8657  0.7643
   23MOL    H36 8440   7.365   1.820   1.780  0.9600  0.9488  0.3213
   23MOL    H37 8441   7.599   1.822   1.737  3.1386  1.3780 -1.0846
   23MOL    H38 8442   7.818   1.724   1.628  0.1718 -1.4857  0.2000
   23MOL    H39 8443   7.907   1.726   1.482  0.5043  1.0886 -1.2996
   23MOL    C40 8444   7.735   1.606   1.463 -0.2142  0.7595 -0.1772
   23MOL    C41 8445   7.795   1.489   1.543  0.3330 -0.3442 -0.7588
   23MOL    C42 8446   7.723   1.437   1.649  0.7174  0.5748  0.4388
   23MOL    C43 8447   7.790   1.348   1.737  0.6254 -0.1436  0.4467
   23MOL    C44 8448   7.914   1.299   1.711 -0.2206  0.0288  0.4729
   23MOL    C45 8449   7.978   1.190   1.799  0.5345 -0.0910  0.1442
   23MOL    C46 8450   7.985   1.347   1.600  0.1386  0.1938 -0.4702
   23MOL    C47 8451   7.933   1.448   1.524  0.3981  0.5733  0.1247
   23MOL    C48 8452   7.748   1.583   1.308  0.3894  0.6235 -0.2233
   23MOL    H49 8453   7.630   1.621   1.489  0.1635  2.1343  0.6221
   23MOL    H50 8454   7.630   1.483   1.681 -0.1772 -2.2436  2.0801
   23MOL    H51 8455   7.732   1.308   1.819 -1.9625 -2.7998 -2.4934
   23MOL    H52 8456   8.073   1.154   1.757  0.8506  1.8334 -0.8339
   23MOL    H53 8457   7.996   1.218   1.903  0.4331 -3.2052  1.0495
   23MOL    H54 8458   7.913   1.103   1.794  1.4416 -0.6994 -1.5641
   23MOL    H55 8459   0.003   1.309   1.574 -0.7253 -1.4716 -1.3311
   23MOL    H56 8460   7.989   1.486   1.439 -0.4384  2.3371  0.3440
   23MOL    H57 8461   7.823   1.505   1.297 -0.5851 -0.3397 -0.1044
   23MOL    H58 8462   7.784   1.677   1.268 -0.4959  0.5672 -1.1675
   23MOL    C59 8463   7.619   1.553   1.232  1.2515  0.0874 -0.0562
   23MOL    C60 8464   7.542   1.437   1.295 -0.8405 -0.8352  0.0226
   23MOL    C61 8465   7.407   1.447   1.333 -0.3761  1.1489 -0.2287
   23MOL    C62 8466   7.341   1.323   1.362  0.8165 -0.0292  0.4989
   23MOL    C63 8467   7.400   1.197   1.369  0.3737  0.8212 -0.1020
   23MOL    C64 8468   7.318   1.078   1.409  0.2084  0.3242  0.6128
   23MOL    C65 8469   7.536   1.194   1.348 -0.2309  0.3322  0.5286
   23MOL    C66 8470   7.608   1.311   1.309 -0.6149  0.5378 -0.4829
   23MOL    C67 8471   7.640   1.509   1.084 -0.4851  1.4027  0.0863
   23MOL    H68 8472   7.559   1.643   1.244  1.5170  0.0412  1.7712
   23MOL    H69 8473   7.353   1.540   1.341 -0.1092  1.1172  2.4701
   23MOL    H70 8474   7.236   1.337   1.386  0.6546 -1.2024  0.4934
   23MOL    H71 8475   7.305   1.016   1.320 -2.1486 -0.9291  1.7549
   23MOL    H72 8476   7.360   1.019   1.491  0.3844  1.6676  1.5130
   23MOL    H73 8477   7.221   1.117   1.440  0.3250  0.8727  0.2939
   23MOL    H74 8478   7.585   1.099   1.359  0.8163  0.7464 -0.4544
   23MOL    H75 8479   7.716   1.305   1.302 -0.5029 -2.3014  2.4184
   23MOL    H76 8480   7.538   1.498   1.047  0.3448  1.1611 -2.2148
   23MOL    H77 8481   7.688   1.412   1.079 -1.8834  0.7523 -1.4086
   23MOL    C78 8482   7.694   1.615   0.983  0.4386  0.9547 -0.9167
   23MOL    C79 8483   7.635   1.603   0.842 -0.2419 -0.2307 -0.2209
   23MOL    C80 8484   7.636   1.720   0.759 -0.0859 -0.0307  0.1348
   23MOL    C81 8485   7.580   1.719   0.631 -0.1868 -0.4362  0.4079
   23MOL    C82 8486   7.514   1.604   0.594  0.5232  0.0069 -0.1146
   23MOL    C83 8487   7.434   1.603   0.465  0.2135 -0.7793  0.2521
   23MOL    C84 8488   7.517   1.485   0.670  0.7431  0.8560  0.1028
   23MOL    C85 8489   7.580   1.485   0.793  0.1225 -0.5252 -0.1734
   23MOL    C86 8490   7.848   1.636   0.987  0.1411 -0.0503 -0.3464
   23MOL    H87 8491   7.650   1.711   1.008 -0.9880  0.1046 -0.1071
   23MOL    H88 8492   7.677   1.811   0.800 -1.2740  0.7255 -0.3183
   23MOL    H89 8493   7.571   1.803   0.565  1.8410 -1.3210 -1.0487
   23MOL    H90 8494   7.487   1.531   0.403  1.1838 -1.5509  1.9118
   23MOL    H91 8495   7.341   1.556   0.496 -1.4918  1.4230 -1.3582
   23MOL    H92 8496   7.407   1.698   0.419  0.9667 -0.2207  0.9404
   23MOL    H93 8497   7.462   1.399   0.634  1.4020 -0.1319  1.4313
   23MOL    H94 8498   7.579   1.390   0.844 -2.0898 -0.9393 -0.9420
   23MOL    H95 8499   7.888   1.648   1.087 -0.6969  2.9311 -0.3249
   23MOL    H96 8500   7.877   1.733   0.946 -2.2804  0.6677 -0.4282
   23MOL    C97 8501   7.930   1.536   0.911 -0.0959 -0.1487  0.1952
   23MOL    C98 8502   7.936   1.401   0.975  0.2624 -0.2736  0.4864
   23MOL    C99 8503   7.904   1.289   0.891 -0.6512  0.0626 -0.6862
   23MOL   C100 8504   7.912   1.154   0.944 -0.5876  0.1278  0.2310
   23MOL   C101 8505   7.937   1.139   1.088  0.4615  0.1054 -0.8521
   23MOL   C102 8506   7.945   0.999   1.151  0.2764 -0.1564  0.1090
   23MOL   C103 8507   7.965   1.255   1.168 -0.7194 -0.6488 -0.1873
   23MOL   C104 8508   7.962   1.384   1.111 -0.8126 -0.0842  0.6562
   23MOL   C105 8509   8.073   1.585   0.870 -0.3584  0.1881  0.4601
   23MOL   H106 8510   7.880   1.530   0.814  2.8766  0.4742 -1.4362
   23MOL   H107 8511   7.873   1.289   0.787 -0.3999  1.2009 -0.7606
   23MOL   H108 8512   7.884   1.076   0.874  0.9672  0.3973 -0.7356
   23MOL   H109 8513   8.037   0.987   1.208  1.9559  0.5172 -2.3479
   23MOL   H110 8514   7.854   0.990   1.211  1.1096  0.2186  1.4504
   23MOL   H111 8515   7.944   0.922   1.074  0.0327 -1.5848  1.5288
   23MOL   H112 8516   7.989   1.256   1.273 -0.4837 -1.2729 -0.2347
   23MOL   H113 8517   7.985   1.473   1.168 -1.1760  0.0506  0.5973
   23MOL   H114 8518   0.052   1.573   0.960 -0.6260 -1.0600  0.4760
   23MOL   H115 8519   8.070   1.693   0.855  1.9005  0.1417 -0.5831
   23MOL   C116 8520   0.050   1.525   0.742  0.4679 -0.0964 -0.5719
   23MOL   C117 8521   0.206   1.539   0.732 -1.3159 -0.0273 -0.2878
   23MOL   C118 8522   0.269   1.659   0.788 -0.3662  0.1667 -0.7450
   23MOL   C119 8523   0.403   1.675   0.771  0.3409 -0.6229 -1.0522
   23MOL   C120 8524   0.484   1.576   0.721  0.6557 -0.1125 -0.8478
   23MOL   C121 8525   0.623   1.610   0.706 -0.6851  0.2624  0.2702
   23MOL   C122 8526   0.423   1.451   0.680 -0.8104 -0.6359 -0.4303
   23MOL   C123 8527   0.288   1.431   0.686 -0.2827 -0.2576 -0.6145
   23MOL   C124 8528   8.066   1.583   0.608 -0.1986 -0.5364  0.2029
   23MOL   H125 8529   0.032   1.418   0.733 -0.0953 -0.3645  3.0486
   23MOL   H126 8530   0.204   1.738   0.822  1.1263  1.6613 -1.3135
   23MOL   H127 8531   0.448   1.770   0.798  2.7164 -1.5998 -1.4428
   23MOL   H128 8532   0.681   1.519   0.722 -0.7828 -0.0380 -1.0522
   23MOL   H129 8533   0.639   1.631   0.600  2.1012 -3.2363 -0.0780
   23MOL   H130 8534   0.666   1.694   0.761  0.7371  1.1792 -2.1447
   23MOL   H131 8535   0.482   1.369   0.642 -0.8974 -0.0763 -1.7872
   23MOL   H132 8536   0.238   1.348   0.639  0.2475  0.7032 -2.9212
   23MOL   H133 8537   7.959   1.579   0.627 -0.2101  1.1596  0.5030
   23MOL   H134 8538   8.078   1.512   0.526 -1.4422 -1.7697  1.0546
   23MOL   C135 8539   0.012   1.724   0.568 -0.1661 -0.4234  0.4142
   23MOL   C136 8540   7.970   1.783   0.495  0.2576  0.8964 -0.1076
   23MOL   C137 8541   7.927   1.910   0.533 -0.2583 -0.0611 -0.7400
   23MOL   C138 8542   7.819   1.963   0.464  0.1761 -0.2831  0.1149
   23MOL   C139 8543   7.752   1.896   0.360 -0.6652  0.0765  0.4254
   23MOL   C140 8544   7.643   1.970   0.283 -0.2510  0.0762  0.3543
   23MOL   C141 8545   7.788   1.763   0.331 -0.5291 -1.0886  0.1253
   23MOL   C142 8546   7.897   1.710   0.401 -0.5081  0.6451  0.3820
   23MOL   C143 8547   0.145   1.737   0.488  0.3520  0.2268  0.0837
   23MOL   H144 8548   0.009   1.773   0.666 -2.6308 -0.7604  0.5486
   23MOL   H145 8549   7.964   1.971   0.615  0.8501 -0.0183 -1.2528
   23MOL   H146 8550   7.783   2.062   0.489 -0.0710  0.1651 -1.9241
   23MOL   H147 8551   7.596   2.036   0.356 -1.1368  0.7900 -0.8377
   23MOL   H148 8552   7.690   2.042   0.215  1.5392 -0.0883  1.3756
   23MOL   H149 8553   7.571   1.906   0.232 -0.8423 -0.3008  1.6423
   23MOL   H150 8554   7.721   1.707   0.267 -2.8389  3.1382 -1.3545
   23MOL   H151 8555   7.922   1.605   0.386  2.1247  1.1238  1.1780
   23MOL   H152 8556   0.116   1.694   0.392 -1.0630 -2.1026  1.5258
   23MOL   H153 8557   0.224   1.678   0.534  0.6950  0.6540  0.0478
   23MOL   C154 8558   0.193   1.886   0.454 -0.2567 -0.2304  0.0508
   23MOL   C155 8559   0.301   1.885   0.352  0.0725 -0.2317  0.1303
   23MOL   C156 8560   0.394   1.778   0.339  0.5223  0.3006  0.4323
   23MOL   C157 8561   0.497   1.778   0.242  0.4317 -0.4958  0.6230
   23MOL   C158 8562   0.509   1.889   0.156 -0.0548 -0.1036 -0.6202
   23MOL   C159 8563   0.629   1.892   0.058  0.5283 -0.4022  0.3733
   23MOL   C160 8564   0.419   1.999   0.161 -0.3176  1.0653  0.1733
   23MOL   C161 8565   0.307   1.982   0.247 -0.6332  0.2278 -0.7225
   23MOL   C162 8566   0.219   1.982   0.573 -0.4417 -0.2574 -0.0326
   23MOL   H163 8567   0.110   1.926   0.396 -0.8907 -1.9643 -0.2677
   23MOL   H164 8568   0.399   1.692   0.404  1.0602  1.0774  1.4371
   23MOL   H165 8569   0.563   1.692   0.241  1.1334  0.0439 -0.1855
   23MOL   H166 8570   0.714   1.836   0.095  0.5811 -2.4016 -2.6106
   23MOL   H167 8571   0.598   1.865   8.037  0.0241 -2.5362  1.0693
   23MOL   H168 8572   0.670   1.992   0.051 -0.3845 -0.1285 -1.4614
   23MOL   H169 8573   0.414   2.081   0.091 -0.9900  0.6512 -0.2717
   23MOL   H170 8574   0.237   2.065   0.239  2.2595  2.7840 -0.5439
   23MOL   H171 8575   0.316   1.955   0.613  0.3045  1.7190 -0.4527
   23MOL   H172 8576   0.145   1.974   0.652 -0.6627  1.6035 -0.0151
   23MOL   C173 8577   0.213   2.137   0.530  0.5904  0.4045  0.7459
   23MOL   C174 8578   0.248   2.215   0.652  0.4956  0.6325  0.3604
   23MOL   C175 8579   0.181   2.203   0.777  0.2629  0.0430  0.7508
   23MOL   C176 8580   0.227   2.262   0.896 -0.0391  0.7471 -0.4567
   23MOL   C177 8581   0.342   2.340   0.894 -0.2476 -0.1268  0.5839
   23MOL   C178 8582   0.398   2.412   1.014  0.7614 -0.1260  0.5016
   23MOL   C179 8583   0.406   2.355   0.772  0.1369  0.4191  0.2263
   23MOL   C180 8584   0.362   2.299   0.652 -0.2995  0.7197 -0.2671
   23MOL   C181 8585   0.077   2.175   0.469 -0.2477  0.0224  0.7022
   23MOL   H182 8586   0.295   2.156   0.461 -0.1635  2.4149  0.3743
   23MOL   H183 8587   0.087   2.149   0.775  1.8413 -2.8577 -2.7934
   23MOL   H184 8588   0.174   2.239   0.987  1.7733 -0.9035  0.2097
   23MOL   H185 8589   0.496   2.375   1.043  0.7612 -0.4288  0.1157
   23MOL   H186 8590   0.410   2.518   0.990 -0.5773 -0.1617 -0.3906
   23MOL   H187 8591   0.327   2.418   1.096  0.8860 -0.3577  0.6252
   23MOL   H188 8592   0.497   2.412   0.763  1.7474 -2.1343 -0.0219
   23MOL   H189 8593   0.410   2.312   0.556  0.2927 -1.0542 -0.2155
   23MOL   H190 8594   0.012   2.159   0.556 -0.7832 -1.5319  0.0261
   23MOL   H191 8595   0.034   2.119   0.386 -2.2107  1.5817  0.6045
   23MOL   C192 8596   0.064   2.327   0.430 -0.3888  0.0244  0.5570
   23MOL   C193 8597   7.998   2.361   0.449 -0.8126 -0.4100 -0.0556
   23MOL   C194 8598   7.957   2.440   0.561 -0.3530  0.1595 -0.6160
   23MOL   C195 8599   7.831   2.491   0.579 -0.2798 -0.5828 -0.0836
   23MOL   C196 8600   7.735   2.456   0.483  0.0989 -0.3938  0.2909
   23MOL   C197 8601   7.588   2.490   0.507  0.4808  0.5193  0.4905
   23MOL   C198 8602   7.767   2.375   0.372  0.2442 -0.2029 -0.4112
   23MOL   C199 8603   7.895   2.325   0.354 -0.1064  0.8417 -0.8115
   23MOL   C200 8604   0.113   2.342   0.286  0.1593  0.3562 -0.2897
   23MOL   H201 8605   0.121   2.398   0.491 -0.2299  2.2248 -2.0649
   23MOL   H202 8606   8.027   2.462   0.640 -0.2019  2.3528 -1.3207
   23MOL   H203 8607   7.802   2.554   0.661 -0.0068 -0.5026 -0.0481
   23MOL   H204 8608   7.539   2.393   0.505  2.6615 -0.6033 -0.4412
   23MOL   H205 8609   7.561   2.538   0.602 -0.3360 -0.1234  0.5842
   23MOL   H206 8610   7.543   2.544   0.424 -1.6493  0.6299  1.6702
   23MOL   H207 8611   7.683   2.334   0.318 -0.9141 -0.1407  1.3057
   23MOL   H208 8612   7.917   2.250   0.279  1.8222  0.4741  0.0928
   23MOL   H209 8613   0.052   2.280   0.222 -1.3993  0.6645  0.8720
   23MOL   H210 8614   0.214   2.301   0.292  0.9943  2.4738  0.8197
   23MOL   C211 8615   0.114   2.488   0.231  0.0863 -0.2610 -0.0077
   23MOL   C212 8616   0.100   2.489   0.082  0.1876 -0.4210  0.9294
   23MOL   C213 8617   0.198   2.449   8.063 -0.4758  0.3476  0.4641
   23MOL   C214 8618   0.179   2.470   7.928 -0.2749 -0.6453  0.2804
   23MOL   C215 8619   0.062   2.540   7.891 -0.9859 -0.1867  0.9163
   23MOL   C216 8620   0.055   2.576   7.744  0.1157 -0.5229  0.1935
   23MOL   C217 8621   8.041   2.563   7.983  0.7383 -0.2294 -0.2190
   23MOL   C218 8622   8.049   2.517   0.040  1.0636 -0.1971  0.2913
   23MOL   C219 8623   0.236   2.578   0.268  0.0769  0.1540 -0.1656
   23MOL   H220 8624   0.025   2.539   0.268 -0.2246 -1.0864  0.3875
   23MOL   H221 8625   0.295   2.411   0.013  0.1878  0.8873 -0.9481
   23MOL   H222 8626   0.253   2.447   7.852 -0.6048  2.7260 -1.1537
   23MOL   H223 8627   0.129   2.519   7.687 -0.9595 -2.5922  0.8098
   23MOL   H224 8628   8.039   2.547   7.701  0.1834  1.0543 -1.0817
   23MOL   H225 8629   0.072   2.682   7.725  0.6333 -0.3189  1.7577
   23MOL   H226 8630   7.945   2.589   7.940 -0.8986 -2.7745  1.7491
   23MOL   H227 8631   7.965   2.532   0.106  0.0362 -1.6910 -0.6543
   23MOL   H228 8632   0.324   2.532   0.223 -0.7580 -0.6475 -1.0102
   23MOL   H229 8633   0.262   2.573   0.374  0.7467 -0.8853 -0.3752
   23MOL   C230 8634   0.220   2.723   0.217  0.1559  0.0755  0.5877
   23MOL   C231 8635   0.354   2.807   0.222  0.0311  0.1002 -0.4215
   23MOL   C232 8636   0.433   2.820   0.342 -0.1960  0.5899  0.6360
   23MOL   C233 8637   0.532   2.916   0.349 -0.0909  0.1521 -0.5369
   23MOL   C234 8638   0.561   3.001   0.241 -0.2156 -0.5543 -0.3889
   23MOL   C235 8639   0.666   3.105   0.253 -0.6886 -0.0129 -0.1573
   23MOL   C236 8640   0.487   2.992   0.125  0.6903  0.0961 -0.1133
   23MOL   C237 8641   0.389   2.893   0.114 -0.4140 -0.7981  0.1146
   23MOL   C238 8642   0.104   2.807   0.290 -0.1139 -0.0205 -0.0972
   23MOL   H239 8643   0.183   2.726   0.115 -1.0207 -1.2253  0.9731
   23MOL   H240 8644   0.414   2.757   0.428 -0.9828 -2.1404 -1.4669
   23MOL   H241 8645   0.595   2.930   0.436 -0.1357  1.1042 -0.6460
   23MOL   H242 8646   0.658   3.168   0.341 -1.7437  1.9527 -1.6186
   23MOL   H243 8647   0.760   3.051   0.256 -0.0426  1.1148 -0.0022
   23MOL   H244 8648   0.677   3.178   0.173  1.2282 -0.9551 -0.7708
   23MOL   H245 8649   0.510   3.059   0.043  1.2604  0.7567  0.5793
   23MOL   H246 8650   0.332   2.873   0.024 -1.9464 -0.6142  1.0172
   23MOL   H247 8651   0.153   2.833   0.383  1.1537 -0.2458 -0.6869
   23MOL   H248 8652   0.014   2.748   0.307 -1.3621  0.4534 -4.3444
   23MOL   C249 8653   0.043   2.935   0.216  0.3094 -0.1217  0.5497
   23MOL   C250 8654   8.030   3.014   0.308 -1.0403  1.3063  0.3219
   23MOL   C251 8655   7.915   2.945   0.358  0.3313  0.1187  0.3954
   23MOL   C252 8656   7.827   3.000   0.454 -0.2971  0.3087 -0.3154
   23MOL   C253 8657   7.857   3.122   0.506  0.2927 -0.2357  0.5701
   23MOL   C254 8658   7.761   3.186   0.604 -0.0108  0.2418  0.0223
   23MOL   C255 8659   7.963   3.203   0.450 -0.4991 -0.1153 -0.1492
   23MOL   C256 8660   8.052   3.144   0.358  0.2651 -0.0214  0.0107
   23MOL   C257 8661   8.047   2.896   0.088 -0.1106 -0.1335  0.1345
   23MOL   H258 8662   0.117   3.012   0.191 -1.0676  0.7276 -1.0957
   23MOL   H259 8663   7.912   2.841   0.329  1.6634  0.1217  0.1953
   23MOL   H260 8664   7.745   2.939   0.489  0.7499 -0.3136  1.0823
   23MOL   H261 8665   7.764   3.294   0.597  1.0283  0.1843 -0.4837
   23MOL   H262 8666   7.658   3.159   0.579 -0.3565  1.1329  0.4779
   23MOL   H263 8667   7.788   3.150   0.704  0.6625 -2.6679 -1.1444
   23MOL   H264 8668   7.983   3.303   0.486 -0.1615  0.0427 -0.7647
   23MOL   H265 8669   0.057   3.199   0.321 -0.7808 -0.4850 -3.1729
   23MOL   H266 8670   7.991   2.806   0.115  0.9696 -0.6743  0.5927
   23MOL   H267 8671   0.033   2.863   0.007 -1.5069  0.4915 -1.2744
   23MOL   C268 8672   7.949   2.996   0.029  0.7840  0.0622 -0.0108
   23MOL   C269 8673   7.886   2.930   7.982  0.1766  0.1332 -0.0127
   23MOL   C270 8674   7.928   2.962   7.851 -0.3343  0.1335 -0.1346
   23MOL   C271 8675   7.867   2.900   7.732  0.0572 -0.0224 -0.3143
   23MOL   C272 8676   7.763   2.807   7.760  0.1393 -0.0746  0.1006
   23MOL   C273 8677   7.698   2.741   7.643 -0.8462 -0.1327 -0.7382
   23MOL   C274 8678   7.718   2.776   7.888  0.3127  0.0122  0.0020
   23MOL   C275 8679   7.777   2.843   8.000  0.8532 -0.0027  0.2100
   23MOL   C276 8680   8.020   3.138   0.010 -0.2624  0.2338 -0.7292
   23MOL   H277 8681   7.867   3.016   0.098 -0.5873  1.3205 -1.9519
   23MOL   H278 8682   7.987   3.050   7.833 -1.1213  0.9064  0.9482
   23MOL   H279 8683   7.898   2.918   7.630 -5.0631 -0.2453 -2.0961
   23MOL   H280 8684   7.590   2.742   7.658 -0.6228 -0.8935  1.0904
   23MOL   H281 8685   7.719   2.796   7.551  0.3287 -0.0598 -0.4299
   23MOL   H282 8686   7.742   2.642   7.638  2.4806  1.1251  1.8387
   23MOL   H283 8687   7.638   2.707   7.910 -0.1650  0.7402  0.5632
   23MOL   H284 8688   7.740   2.816   0.018 -0.7360 -1.8631 -0.8627
   23MOL   H285 8689   0.022   3.133   8.019  0.1449 -1.8284 -0.1536
   23MOL   H286 8690   8.053   3.192   0.099  1.8815 -0.2312 -1.2014
   23MOL   C287 8691   7.922   3.240   8.035 -0.1765 -0.7762  0.0374
   23MOL   C288 8692   7.992   3.363   7.968 -0.1269 -0.3660  0.1788
   23MOL   C289 8693   0.002   3.446   8.031 -0.5209  0.1546 -0.1417
   23MOL   C290 8694   0.096   3.524   7.966 -0.2672  0.0754  0.4922
   23MOL   C291 8695   0.093   3.535   7.826 -0.6746  0.7843 -0.1629
   23MOL   C292 8696   0.186   3.626   7.748 -0.5708 -0.0351  0.7363
   23MOL   C293 8697   8.071   3.459   7.756  0.2882  0.3646 -0.0187
   23MOL   C294 8698   7.987   3.372   7.832 -0.0515 -0.0225  0.3664
   23MOL   C295 8699   7.822   3.282   0.064  0.2995  0.4165  0.0285
   23MOL   H296 8700   7.865   3.198   7.952  1.2809 -0.1840 -1.2627
   23MOL   H297 8701   8.072   3.432   0.058  1.3929  0.8044  0.1440
   23MOL   H298 8702   0.169   3.579   8.023 -2.0459  0.8361  2.0993
   23MOL   H299 8703   0.271   3.569   7.712 -1.2581  1.1420 -2.9763
   23MOL   H300 8704   0.139   3.673   7.662  0.0230 -1.2503 -0.2583
   23MOL   H301 8705   0.222   3.709   7.808  0.5076 -1.3088  1.8804
   23MOL   H302 8706   8.052   3.467   7.650 -0.0914 -1.3069 -0.0832
   23MOL   H303 8707   7.912   3.320   7.773 -0.1263  0.2372  0.2293
   23MOL   H304 8708   7.881   3.316   0.149  0.3816 -0.0891  0.1766
   23MOL   H305 8709   7.759   3.202   0.105 -0.3245  1.1263  0.4600
   23MOL   C306 8710   7.722   3.407   0.028 -0.1855 -0.3290  0.3616
   23MOL   C307 8711   7.655   3.454   0.157 -0.5662 -0.6069  0.4583
   23MOL   C308 8712   7.661   3.588   0.200 -0.3886 -0.2915 -0.3509
   23MOL   C309 8713   7.612   3.631   0.323 -0.3464  0.1996  0.1719
   23MOL   C310 8714   7.545   3.537   0.405 -0.6468 -0.7419  0.5148
   23MOL   C311 8715   7.494   3.593   0.537 -0.2935  0.1438  0.4958
   23MOL   C312 8716   7.535   3.402   0.370 -0.2130 -0.1261 -0.7305
   23MOL   C313 8717   7.598   3.358   0.249  0.4903 -1.0041  0.1567
   23MOL   C314 8718   7.620   3.380   7.990 -0.6810 -0.0657  0.4079
   23MOL   H315 8719   7.789   3.486   8.074  2.4891 -2.2234  1.1219
   23MOL   H316 8720   7.709   3.658   0.132  2.0272 -0.4211  1.1663
   23MOL   H317 8721   7.632   3.736   0.341  1.5612 -0.1973  0.4828
   23MOL   H318 8722   7.491   3.526   0.623 -1.1663 -1.2582 -0.5768
   23MOL   H319 8723   7.541   3.684   0.571 -0.2604  0.4391 -0.3150
   23MOL   H320 8724   7.389   3.617   0.519  0.3165  1.4531 -1.4674
   23MOL   H321 8725   7.488   3.323   0.426  1.3239 -0.1972  0.5100
   23MOL   H322 8726   7.607   3.253   0.229  1.0630 -0.6909 -1.2820
   23MOL   H323 8727   7.546   3.308   8.025 -0.4825 -0.1245  0.7105
   23MOL   H324 8728   7.674   3.319   7.917 -3.1802 -2.2710  0.3249
   23MOL   C325 8729   7.559   3.508   7.910  0.7738  0.4236 -0.7684
   23MOL   C326 8730   7.485   3.605   8.004 -0.1315 -0.1435  0.0513
   23MOL   C327 8731   7.379   3.558   0.002 -0.5033 -0.7921 -0.0622
   23MOL   C328 8732   7.313   3.647   0.092 -0.0941 -0.0099  0.3043
   23MOL   C329 8733   7.361   3.774   0.109 -0.2107  0.3929  0.1660
   23MOL   C330 8734   7.298   3.873   0.209 -0.3502  0.1152  0.2963
   23MOL   C331 8735   7.468   3.825   0.026  0.3134  0.2134  0.4771
   23MOL   C332 8736   7.531   3.739   8.014  0.1058 -0.0936  0.4951
   23MOL   C333 8737   7.474   3.464   7.793  0.5111 -0.4905  0.5603
   23MOL   H334 8738   7.642   3.562   7.865  3.7212 -3.5630 -0.4297
   23MOL   H335 8739   7.349   3.454   0.008  0.3218 -1.0063  0.3536
   23MOL   H336 8740   7.235   3.606   0.155 -0.0828  2.8284  2.2502
   23MOL   H337 8741   7.214   3.929   0.168  0.7294  0.9127 -0.8425
   23MOL   H338 8742   7.264   3.826   0.302 -0.4920  1.1354  0.7627
   23MOL   H339 8743   7.371   3.944   0.247 -0.5143  1.1926 -1.3817
   23MOL   H340 8744   7.508   3.923   0.047  0.0677  0.2896  0.5895
   23MOL   H341 8745   7.622   3.773   7.968  1.2709 -1.4783  1.7733
   23MOL   H342 8746   7.398   3.401   7.839 -0.2216  1.9871  2.9099
   23MOL   H343 8747   7.522   3.402   7.717 -2.3534 -3.1862  0.8782
   23MOL   C344 8748   7.393   3.587   7.723 -0.1939 -0.8419 -0.2100
   23MOL   C345 8749   7.273   3.528   7.656 -0.2513 -0.6809  0.6549
   23MOL   C346 8750   7.150   3.528   7.731 -0.5955  0.0094 -0.1911
   23MOL   C347 8751   7.044   3.444   7.681  0.1141 -0.3391 -0.2137
   23MOL   C348 8752   7.057   3.372   7.557  0.0009 -0.0506  0.3349
   23MOL   C349 8753   6.941   3.305   7.485 -0.3630 -0.7463 -0.1190
   23MOL   C350 8754   7.185   3.358   7.499  0.5230  0.2670 -0.2526
   23MOL   C351 8755   7.291   3.435   7.550 -0.0464  0.1655 -0.1036
   23MOL   C352 8756   7.480   3.676   7.618  0.2931  0.1392  0.3845
   23MOL   H353 8757   7.349   3.654   7.797 -1.5728 -0.4909 -1.3213
   23MOL   H354 8758   7.144   3.587   7.821  0.6883 -2.0827  1.2848
   23MOL   H355 8759   6.948   3.440   7.731 -0.3909 -0.8798 -1.1928
   23MOL   H356 8760   6.862   3.376   7.459 -0.1185 -0.8623 -1.2237
   23MOL   H357 8761   6.974   3.249   7.397  0.6156 -0.7443  0.2463
   23MOL   H358 8762   6.883   3.241   7.552 -1.2298 -0.7331 -0.8413
   23MOL   H359 8763   7.212   3.315   7.404 -0.2508  0.0654 -0.3839
   23MOL   H360 8764   7.390   3.423   7.506 -0.5684  2.2015 -1.9746
   23MOL   H361 8765   7.490   3.617   7.527 -0.1027  4.1626 -2.4130
   23MOL   H362 8766   7.582   3.686   7.655  0.4650  0.8547 -0.2587
   23MOL   C363 8767   7.413   3.803   7.580  0.1557  0.3822  0.0198
   23MOL   C364 8768   7.417   3.837   7.431  0.9369 -0.0895  0.5993
   23MOL   C365 8769   7.301   3.897   7.368  0.5620  0.0379  0.6999
   23MOL   C366 8770   7.305   3.924   7.231 -0.9549 -0.1824 -0.1199
   23MOL   C367 8771   7.424   3.909   7.159  0.1269 -0.2869 -0.0325
   23MOL   C368 8772   7.441   3.936   7.010 -0.4724 -0.4845  0.8095
   23MOL   C369 8773   7.536   3.856   7.222  0.4657 -0.1879 -0.2567
   23MOL   C370 8774   7.531   3.814   7.354 -0.7149  0.1415  1.1394
   23MOL   C371 8775   7.482   3.917   7.662  0.7871  1.2855  0.1204
   23MOL   H372 8776   7.307   3.804   7.603 -0.7521  1.5837 -3.8103
   23MOL   H373 8777   7.211   3.913   7.427  0.0684 -2.3093  0.6500
   23MOL   H374 8778   7.209   3.964   7.201 -1.3403 -0.5747  0.5730
   23MOL   H375 8779   7.504   3.851   6.981  0.6969 -0.1338  2.3147
   23MOL   H376 8780   7.345   3.947   6.959  0.0401 -0.6145 -0.1911
   23MOL   H377 8781   7.494   4.030   7.015 -1.2626 -0.0640  1.3899
   23MOL   H378 8782   7.622   3.830   7.162 -1.1532 -4.6626 -0.8195
   23MOL   H379 8783   7.618   3.765   7.394  0.5237  0.4047 -1.1242
   23MOL   H380 8784   7.477   3.886   7.766 -1.5078 -0.6368 -0.5078
   23MOL   H381 8785   7.430   4.013   7.664 -0.3909  0.6345  1.8935
   23MOL   H382 8786   7.588   3.926   7.643  1.4715 -0.2465  2.8782
   24MOL     C1 8787   3.303   7.484   7.757 -0.1441  0.1398 -0.3845
   24MOL     C2 8788   3.231   7.555   7.642  0.1212  0.6738  0.1571
   24MOL     C3 8789   3.245   7.697   7.622 -0.2532 -0.5747 -0.2786
   24MOL     C4 8790   3.203   7.744   7.497  0.0196  0.3400  0.1340
   24MOL     C5 8791   3.119   7.672   7.413 -0.3261 -0.2071  0.7798
   24MOL     C6 8792   3.060   7.747   7.302 -0.3828  0.2247  0.0771
   24MOL     C7 8793   3.096   7.537   7.432 -0.4567  0.5182 -0.3354
   24MOL     C8 8794   3.157   7.475   7.547 -0.5051  0.2326  0.7538
   24MOL     C9 8795   3.452   7.492   7.740 -0.2937  0.8631  0.3017
   24MOL    H10 8796   3.270   7.521   7.855 -0.6280 -0.6232 -0.2528
   24MOL    H11 8797   3.296   7.760   7.693  0.4281 -1.9288  0.4513
   24MOL    H12 8798   3.229   7.847   7.479 -2.2878  0.8632 -0.3543
   24MOL    H13 8799   3.038   7.847   7.338 -0.8706  0.7631 -1.6527
   24MOL    H14 8800   3.137   7.731   7.226  0.6042 -2.6399  1.6000
   24MOL    H15 8801   2.968   7.696   7.275 -0.8517  0.0448  1.9802
   24MOL    H16 8802   3.046   7.474   7.360 -1.0139 -0.0128  0.4968
   24MOL    H17 8803   3.150   7.370   7.572 -1.5390  0.5214  1.6978
   24MOL    H18 8804   3.475   7.598   7.738  0.5706  0.7246  2.0440
   24MOL    H19 8805   3.476   7.432   7.652  3.0638 -0.3936  1.9769
   24MOL    H20 8806   3.279   7.378   7.761  1.2087 -0.1055  2.2038
   24MOL    C21 8807   3.536   7.422   7.849 -0.1591 -0.1024 -0.5092
   24MOL    C22 8808   3.493   7.482   7.985  0.4304  0.4026  0.4267
   24MOL    C23 8809   3.395   7.414   8.066  0.5434 -0.0769  0.3224
   24MOL    C24 8810   3.342   7.473   0.097 -0.3293 -0.0618  0.5816
   24MOL    C25 8811   3.376   7.606   0.129 -0.6067  0.7564 -0.1313
   24MOL    C26 8812   3.310   7.676   0.246  0.4409 -0.0519 -0.4997
   24MOL    C27 8813   3.480   7.664   0.055  0.7460  0.1734 -0.4437
   24MOL    C28 8814   3.532   7.609   8.018  0.0997 -0.6014 -0.0392
   24MOL    C29 8815   3.691   7.427   7.831  0.6139  0.5344  0.7076
   24MOL    H30 8816   3.508   7.317   7.839  2.0047 -1.2162  3.6553
   24MOL    H31 8817   3.367   7.314   8.036 -0.4944  0.3160 -0.0391
   24MOL    H32 8818   3.274   7.409   0.152 -0.9260  0.5597  0.5616
   24MOL    H33 8819   3.367   7.763   0.278  0.2771  0.2736 -1.0841
   24MOL    H34 8820   3.215   7.718   0.213 -0.7248 -1.4202  1.0363
   24MOL    H35 8821   3.267   7.610   0.321 -0.1289 -0.2633 -1.0066
   24MOL    H36 8822   3.487   7.772   0.066 -0.7197  0.0801  1.7260
   24MOL    H37 8823   3.596   7.677   7.964  1.1308 -0.4338  1.4001
   24MOL    H38 8824   3.723   7.531   7.825  0.3866  0.5328 -0.8616
   24MOL    H39 8825   3.715   7.390   7.731 -0.2197 -0.1346  0.7533
   24MOL    C40 8826   3.783   7.349   7.934 -0.1189 -0.3355  0.0813
   24MOL    C41 8827   3.904   7.437   7.952  1.0550 -0.0879  0.3043
   24MOL    C42 8828   3.993   7.478   7.845 -0.1166 -0.1332 -1.0922
   24MOL    C43 8829   4.110   7.550   7.864 -0.5560  0.3454 -0.2508
   24MOL    C44 8830   4.143   7.594   7.991 -0.5046  0.5484  0.2632
   24MOL    C45 8831   4.269   7.673   8.018 -0.4088 -0.1379  0.2807
   24MOL    C46 8832   4.046   7.564   0.014  0.2070 -0.4941  0.2214
   24MOL    C47 8833   3.936   7.481   0.002  0.4523  0.6415 -0.0828
   24MOL    C48 8834   3.834   7.209   7.892 -0.0481 -0.2430 -0.1449
   24MOL    H49 8835   3.729   7.340   8.028 -0.4956 -1.7021 -0.2686
   24MOL    H50 8836   3.970   7.455   7.742  0.5965 -1.2228 -1.0166
   24MOL    H51 8837   4.174   7.548   7.777 -1.6398 -0.5796 -1.0412
   24MOL    H52 8838   4.265   7.732   0.030 -2.4668  1.0282 -0.5244
   24MOL    H53 8839   4.347   7.604   8.050  1.0768  0.4807 -1.9023
   24MOL    H54 8840   4.315   7.723   7.933  0.9903  0.7575  1.5321
   24MOL    H55 8841   4.078   7.597   0.112  2.1701 -0.4122 -0.4142
   24MOL    H56 8842   3.895   7.447   0.095  1.6388 -1.4131 -0.2813
   24MOL    H57 8843   3.910   7.167   7.958 -2.7776 -3.0938  1.3490
   24MOL    H58 8844   3.882   7.221   7.795 -1.1176 -1.2440 -0.8098
   24MOL    C59 8845   3.729   7.096   7.886 -0.2674 -0.2227  0.2044
   24MOL    C60 8846   3.723   7.027   8.020 -0.1316  0.6755 -0.6991
   24MOL    C61 8847   3.612   7.053   0.028 -0.3472 -0.0188 -0.3272
   24MOL    C62 8848   3.604   6.989   0.152  0.5369  0.2366 -0.5099
   24MOL    C63 8849   3.694   6.883   0.186 -0.1579 -0.4314 -0.0530
   24MOL    C64 8850   3.670   6.811   0.316  0.0453  0.0364  0.0581
   24MOL    C65 8851   3.796   6.850   0.095 -0.0911  0.1572  0.2849
   24MOL    C66 8852   3.814   6.918   8.052 -0.1903 -0.0502  0.4656
   24MOL    C67 8853   3.773   6.993   7.774 -0.2686 -0.0598 -0.5071
   24MOL    H68 8854   3.640   7.150   7.853 -0.3564  0.4091  1.4565
   24MOL    H69 8855   3.541   7.127   8.074 -0.1431  0.2867 -0.0878
   24MOL    H70 8856   3.518   7.018   0.210 -0.9802 -2.8981 -1.0880
   24MOL    H71 8857   3.682   6.703   0.309  0.6259  0.1384 -0.5523
   24MOL    H72 8858   3.751   6.841   0.383  0.3032 -0.0601 -0.2135
   24MOL    H73 8859   3.571   6.823   0.361  0.2691  1.8184  0.1246
   24MOL    H74 8860   3.873   6.777   0.115  0.1155  0.6326  1.2644
   24MOL    H75 8861   3.901   6.894   7.992  0.1153 -0.0976  0.9299
   24MOL    H76 8862   3.762   6.889   7.805  0.5345 -0.1959 -0.6665
   24MOL    H77 8863   3.881   6.981   7.773 -0.1295  0.7728  1.8375
   24MOL    C78 8864   3.696   7.002   7.646 -0.4324 -0.2498  0.6474
   24MOL    C79 8865   3.543   6.996   7.665 -0.5920  0.3180  0.7376
   24MOL    C80 8866   3.462   7.083   7.587 -1.0420  0.7614  0.1893
   24MOL    C81 8867   3.320   7.087   7.604 -0.3190 -0.3078  0.0920
   24MOL    C82 8868   3.263   7.013   7.706  0.6131  0.4131 -0.5741
   24MOL    C83 8869   3.111   7.032   7.732  0.2791 -0.1790 -0.2800
   24MOL    C84 8870   3.339   6.934   7.788  0.0086 -0.3170  0.4498
   24MOL    C85 8871   3.478   6.925   7.766 -0.1123  0.2949  0.7158
   24MOL    C86 8872   3.741   6.900   7.539  0.6531 -0.0259  0.5643
   24MOL    H87 8873   3.719   7.103   7.611  1.2648 -0.3964  1.3177
   24MOL    H88 8874   3.502   7.151   7.513 -1.0262  0.2704 -0.2568
   24MOL    H89 8875   3.262   7.157   7.546  0.1080  0.6179  0.7624
   24MOL    H90 8876   3.050   7.090   7.663 -0.8618 -1.3166 -0.2526
   24MOL    H91 8877   3.062   6.935   7.723  1.9523 -1.3362  2.2720
   24MOL    H92 8878   3.084   7.078   7.827 -1.7167  0.8772 -1.3172
   24MOL    H93 8879   3.299   6.876   7.871  0.5237 -0.7731  0.3901
   24MOL    H94 8880   3.544   6.876   7.837 -3.8035 -2.7800  2.2184
   24MOL    H95 8881   3.675   6.907   7.453 -1.1018  0.2185  1.9109
   24MOL    H96 8882   3.724   6.802   7.583  0.3899  0.0101  0.5469
   24MOL    C97 8883   3.885   6.928   7.483 -0.4563  0.1560  0.2225
   24MOL    C98 8884   3.886   7.056   7.404  0.1986  0.1344 -0.6652
   24MOL    C99 8885   3.795   7.073   7.294 -1.2952  0.6331 -0.5592
   24MOL   C100 8886   3.780   7.195   7.234 -0.5418  0.1453  1.3281
   24MOL   C101 8887   3.852   7.309   7.281 -0.3472 -0.0610  0.3081
   24MOL   C102 8888   3.845   7.441   7.211  0.0249  0.1295 -0.4225
   24MOL   C103 8889   3.941   7.297   7.388  0.3288  0.2348  0.3055
   24MOL   C104 8890   3.958   7.172   7.451 -0.8708 -0.1180  0.2311
   24MOL   C105 8891   3.944   6.806   7.406 -0.6057  0.5449 -0.2087
   24MOL   H106 8892   3.952   6.934   7.569 -0.5149  1.1170  0.2064
   24MOL   H107 8893   3.726   6.995   7.266 -0.0528 -0.9907  0.7897
   24MOL   H108 8894   3.716   7.210   7.149  1.3326 -0.0529 -0.1612
   24MOL   H109 8895   3.786   7.516   7.263  1.5228  0.4047  0.9159
   24MOL   H110 8896   3.947   7.471   7.188  0.6995 -1.7874 -0.0883
   24MOL   H111 8897   3.805   7.425   7.111 -2.9031  0.8184  0.5838
   24MOL   H112 8898   4.002   7.375   7.431 -0.9073  0.7945  1.0805
   24MOL   H113 8899   4.007   7.158   7.546  1.3958  0.8769 -0.7557
   24MOL   H114 8900   3.870   6.781   7.329 -0.4837  0.8884 -0.4425
   24MOL   H115 8901   3.971   6.730   7.478  0.1225  0.8243 -0.1866
   24MOL   C116 8902   4.070   6.839   7.325 -0.1898  0.3406  0.5848
   24MOL   C117 8903   4.127   6.721   7.244  0.0519 -0.0735 -0.2507
   24MOL   C118 8904   4.226   6.756   7.152 -0.0223 -0.0741  0.5104
   24MOL   C119 8905   4.279   6.660   7.059  0.0948  0.1559 -0.2845
   24MOL   C120 8906   4.226   6.525   7.072  0.6435  0.0392  0.7028
   24MOL   C121 8907   4.265   6.427   6.960  0.5577 -0.3192 -0.5425
   24MOL   C122 8908   4.134   6.487   7.176  0.2445  0.8090 -0.5211
   24MOL   C123 8909   4.079   6.591   7.257  0.2057 -0.1989 -0.1280
   24MOL   C124 8910   4.182   6.910   7.406  0.0369  0.3560  0.6182
   24MOL   H125 8911   4.044   6.916   7.252  0.5689  1.1288  1.1355
   24MOL   H126 8912   4.267   6.856   7.148 -1.1362  0.4385  1.5856
   24MOL   H127 8913   4.340   6.685   6.974 -2.2331 -1.8502 -2.6074
   24MOL   H128 8914   4.258   6.483   6.867 -1.6257  0.7560  0.2442
   24MOL   H129 8915   4.369   6.394   6.969  0.7654  1.1352  3.7808
   24MOL   H130 8916   4.194   6.345   6.948  0.5637 -0.0107 -2.8774
   24MOL   H131 8917   4.091   6.389   7.190  0.7620  1.1487  4.3433
   24MOL   H132 8918   4.003   6.565   7.329  2.7672 -0.2974  2.6491
   24MOL   H133 8919   4.139   7.005   7.437 -0.6206 -0.6998  3.0392
   24MOL   H134 8920   4.262   6.950   7.344 -1.8256 -1.4249 -3.0837
   24MOL   C135 8921   4.238   6.837   7.537 -0.4140  0.0955 -0.2164
   24MOL   C136 8922   4.240   6.946   7.648 -0.0452  0.5527  0.8277
   24MOL   C137 8923   4.168   6.913   7.764  0.6681 -0.5303  0.0390
   24MOL   C138 8924   4.169   7.009   7.873 -0.2835 -0.3392 -0.3749
   24MOL   C139 8925   4.247   7.125   7.860  0.9132 -0.3517 -0.2530
   24MOL   C140 8926   4.235   7.225   7.974 -0.2351  0.4530  1.1759
   24MOL   C141 8927   4.314   7.157   7.742  0.7981  0.4094  0.4017
   24MOL   C142 8928   4.315   7.067   7.636  0.4828  0.2966 -0.7503
   24MOL   C143 8929   4.375   6.780   7.502  0.4355 -0.0681  0.3376
   24MOL   H144 8930   4.168   6.762   7.574 -0.5336 -0.7232 -2.0617
   24MOL   H145 8931   4.105   6.825   7.763  1.6003 -1.2604  2.3975
   24MOL   H146 8932   4.116   6.992   7.965 -0.3620  0.2736 -0.3049
   24MOL   H147 8933   4.256   7.318   7.921  1.6564 -1.7386 -2.0179
   24MOL   H148 8934   4.136   7.239   8.019 -0.9693  1.3284 -0.6541
   24MOL   H149 8935   4.309   7.214   8.053  2.3782 -0.9245 -1.3775
   24MOL   H150 8936   4.367   7.252   7.742  2.6897 -0.6115  2.6879
   24MOL   H151 8937   4.369   7.094   7.547 -0.2482 -1.0269 -1.6103
   24MOL   H152 8938   4.429   6.853   7.441  2.3163 -1.3544  0.4318
   24MOL   H153 8939   4.365   6.694   7.435 -1.6868  0.0998  0.3923
   24MOL   C154 8940   4.475   6.750   7.616 -0.2166 -0.0992 -0.2860
   24MOL   C155 8941   4.611   6.736   7.551 -0.1425  0.0608  0.1330
   24MOL   C156 8942   4.640   6.615   7.485  0.0613 -0.5205  0.0181
   24MOL   C157 8943   4.754   6.592   7.410  0.5061 -0.0898  0.8622
   24MOL   C158 8944   4.847   6.696   7.392  0.1157 -0.7378 -0.1042
   24MOL   C159 8945   4.976   6.673   7.309 -0.2104 -0.0803 -0.1950
   24MOL   C160 8946   4.823   6.819   7.463 -0.2498  0.2287  0.3088
   24MOL   C161 8947   4.707   6.840   7.544  0.4170 -0.2814 -0.4081
   24MOL   C162 8948   4.424   6.632   7.706  0.7579 -0.4476  0.0411
   24MOL   H163 8949   4.475   6.841   7.675 -1.4217 -0.4793  0.3336
   24MOL   H164 8950   4.564   6.538   7.488  0.6651 -1.0344  3.2153
   24MOL   H165 8951   4.753   6.497   7.356 -2.1108  0.4301 -0.0934
   24MOL   H166 8952   4.949   6.644   7.208 -1.6335  2.2777 -0.5198
   24MOL   H167 8953   5.028   6.769   7.305  0.2549 -0.3562 -0.7914
   24MOL   H168 8954   5.041   6.596   7.351  1.5946  1.9319  0.8146
   24MOL   H169 8955   4.893   6.901   7.460 -0.9268  0.9577  2.8962
   24MOL   H170 8956   4.677   6.935   7.585 -0.9457 -0.8196 -0.1124
   24MOL   H171 8957   4.443   6.534   7.661  4.0472 -0.6135  1.6696
   24MOL   H172 8958   4.317   6.640   7.727  1.2009  1.2844  1.7700
   24MOL   C173 8959   4.495   6.630   7.844  0.3912 -0.7465 -0.1361
   24MOL   C174 8960   4.452   6.492   7.907 -1.2763  0.5201  0.0568
   24MOL   C175 8961   4.556   6.393   7.928  0.3662  0.2626  0.3871
   24MOL   C176 8962   4.521   6.260   7.970 -0.8143  0.2192 -0.0880
   24MOL   C177 8963   4.385   6.229   7.997 -0.4092  0.6904  0.2696
   24MOL   C178 8964   4.338   6.084   8.021  0.0134 -0.2887  0.5168
   24MOL   C179 8965   4.288   6.332   7.998 -0.2777 -0.7723  0.3418
   24MOL   C180 8966   4.324   6.463   7.955  1.0005 -0.4602 -0.2102
   24MOL   C181 8967   4.451   6.746   7.940 -0.2450  0.6288  0.6347
   24MOL   H182 8968   4.603   6.618   7.834  0.2291 -0.5884 -2.4257
   24MOL   H183 8969   4.660   6.408   7.902  1.0309 -3.5919  0.4290
   24MOL   H184 8970   4.599   6.185   7.973 -1.5955 -0.6263 -0.6119
   24MOL   H185 8971   4.257   6.078   0.014 -1.1619 -2.4585 -0.9022
   24MOL   H186 8972   4.307   6.046   7.924 -2.5389 -2.6303  2.1582
   24MOL   H187 8973   4.423   6.030   8.062  0.7064  1.5950  1.6281
   24MOL   H188 8974   4.194   6.321   8.048 -0.5126  0.2805  0.1557
   24MOL   H189 8975   4.247   6.538   7.951 -0.5143 -2.0405 -1.0077
   24MOL   H190 8976   4.343   6.754   7.951 -0.4932 -0.8552 -0.5592
   24MOL   H191 8977   4.492   6.833   7.890 -0.3354 -0.1755 -0.8720
   24MOL   C192 8978   4.516   6.735   0.000  0.1066 -0.5431 -0.2849
   24MOL   C193 8979   4.409   6.739   0.108  0.5239 -0.2024  0.8096
   24MOL   C194 8980   4.339   6.855   0.131  0.1791 -0.5796 -0.1017
   24MOL   C195 8981   4.227   6.864   0.219 -0.2368  0.2794 -0.8610
   24MOL   C196 8982   4.201   6.742   0.290 -0.2822  0.2061 -0.7944
   24MOL   C197 8983   4.087   6.746   0.393 -0.2663 -0.4833 -0.1155
   24MOL   C198 8984   4.266   6.621   0.260  0.0538 -1.0492  0.3073
   24MOL   C199 8985   4.377   6.615   0.171  0.5929 -0.1244  0.4063
   24MOL   C200 8986   4.627   6.839   0.020 -0.2594 -0.3853  0.0815
   24MOL   H201 8987   4.572   6.641   0.004  1.1508 -0.0559 -2.9074
   24MOL   H202 8988   4.357   6.945   0.074 -1.5255  0.6587  1.2816
   24MOL   H203 8989   4.177   6.959   0.233 -0.2083 -0.0491  1.7594
   24MOL   H204 8990   4.087   6.833   0.458  1.4962 -0.4500 -0.1431
   24MOL   H205 8991   3.992   6.741   0.339  0.8733  0.1498 -2.2403
   24MOL   H206 8992   4.089   6.656   0.455  2.6191 -1.1023 -1.0526
   24MOL   H207 8993   4.230   6.534   0.312 -0.5352 -0.3373  1.1002
   24MOL   H208 8994   4.422   6.522   0.140  0.0883 -0.1546 -0.2558
   24MOL   H209 8995   4.654   6.839   0.125 -0.7992 -1.1436  0.2189
   24MOL   H210 8996   4.575   6.933   8.080  1.2794  0.4944  0.1190
   24MOL   C211 8997   4.752   6.839   8.008 -0.1998  0.8484 -0.2697
   24MOL   C212 8998   4.822   6.707   7.972  0.1025 -0.5346  0.4545
   24MOL   C213 8999   4.861   6.689   7.837  0.1756  0.0562 -0.3481
   24MOL   C214 9000   4.916   6.571   7.783  0.0794  0.4589  0.7190
   24MOL   C215 9001   4.957   6.472   7.875  1.0104  0.6383 -0.3127
   24MOL   C216 9002   5.032   6.353   7.829 -0.4779 -0.6459  0.0654
   24MOL   C217 9003   4.919   6.488   8.012  0.5987  0.2360 -0.3159
   24MOL   C218 9004   4.852   6.608   8.063 -0.3295  0.1497  0.4192
   24MOL   C219 9005   4.858   6.935   8.060 -0.5304  0.0957 -0.7933
   24MOL   H220 9006   4.705   6.881   7.918 -0.3697  1.9165  0.3095
   24MOL   H221 9007   4.832   6.765   7.766  0.7573 -0.5028 -1.1968
   24MOL   H222 9008   4.933   6.558   7.677 -1.0772 -0.1386  0.5928
   24MOL   H223 9009   4.961   6.272   7.846  0.6635 -1.4160  1.2800
   24MOL   H224 9010   5.062   6.341   7.726  0.4276  0.3582  0.2049
   24MOL   H225 9011   5.126   6.336   7.882  0.0053  2.6996  0.3699
   24MOL   H226 9012   4.950   6.412   0.001  1.6473  2.1463  1.3733
   24MOL   H227 9013   4.835   6.630   0.088  1.9129  0.9134  0.6591
   24MOL   H228 9014   4.958   6.918   8.019  0.5621  0.8033  1.4874
   24MOL   H229 9015   4.863   6.919   0.088 -2.3291 -0.6576 -0.8008
   24MOL   C230 9016   4.823   7.082   8.048  0.4458  0.0148  0.8115
   24MOL   C231 9017   4.828   7.121   7.900 -0.4283  0.3932  0.0435
   24MOL   C232 9018   4.706   7.153   7.831 -0.5263  0.4311  0.9468
   24MOL   C233 9019   4.711   7.189   7.701  0.0356 -0.0009  0.0054
   24MOL   C234 9020   4.839   7.188   7.631  0.5650  0.6769 -0.2768
   24MOL   C235 9021   4.842   7.216   7.482 -0.1419  0.1935 -0.1381
   24MOL   C236 9022   4.953   7.154   7.702  0.4002 -0.4906  0.5951
   24MOL   C237 9023   4.948   7.126   7.836 -0.0609 -0.3870 -0.2728
   24MOL   C238 9024   4.908   7.178   0.052  0.3903 -0.5599 -0.3031
   24MOL   H239 9025   4.718   7.095   8.071 -0.2976 -0.8726 -1.9835
   24MOL   H240 9026   4.613   7.154   7.886  0.1600  0.3631  2.1369
   24MOL   H241 9027   4.620   7.217   7.650 -0.0116 -1.2621 -0.6287
   24MOL   H242 9028   4.867   7.322   7.474 -0.0744  0.1390 -0.6282
   24MOL   H243 9029   4.925   7.161   7.439 -1.0903  0.4177 -2.3327
   24MOL   H244 9030   4.746   7.190   7.438  1.0061 -0.9016 -2.0296
   24MOL   H245 9031   5.051   7.154   7.657  0.1758  1.8817  0.0642
   24MOL   H246 9032   5.036   7.127   7.898 -0.7298  0.4104  0.6920
   24MOL   H247 9033   4.921   7.281   0.019 -2.3632 -0.3157 -0.7124
   24MOL   H248 9034   5.010   7.141   0.057  0.4875 -0.2877 -0.2404
   24MOL   C249 9035   4.856   7.178   0.197  0.3475 -0.1147 -0.0309
   24MOL   C250 9036   4.715   7.244   0.204  0.0363 -1.4785  0.0054
   24MOL   C251 9037   4.609   7.169   0.261 -0.5058 -0.0572 -0.6422
   24MOL   C252 9038   4.482   7.226   0.276  0.3620  0.0190  0.7094
   24MOL   C253 9039   4.455   7.353   0.223  0.0109 -0.5660 -0.1976
   24MOL   C254 9040   4.327   7.421   0.258 -0.3557 -0.0685 -0.6751
   24MOL   C255 9041   4.557   7.426   0.162  0.1177  0.3437 -0.5023
   24MOL   C256 9042   4.689   7.379   0.160 -0.9994 -0.1123 -0.6417
   24MOL   C257 9043   4.946   7.245   0.305  0.5209  0.2739 -0.0871
   24MOL   H258 9044   4.835   7.074   0.225  1.5724 -0.5447 -0.7139
   24MOL   H259 9045   4.630   7.072   0.305 -1.1030 -0.3111 -0.9080
   24MOL   H260 9046   4.403   7.175   0.328  0.3980 -0.8007 -0.0139
   24MOL   H261 9047   4.326   7.524   0.222 -2.0416  0.9660  2.2296
   24MOL   H262 9048   4.243   7.376   0.206 -0.4016 -0.0513 -0.6159
   24MOL   H263 9049   4.312   7.409   0.365 -0.4495 -0.1411 -0.6965
   24MOL   H264 9050   4.534   7.523   0.120  3.7348  0.5933 -2.1115
   24MOL   H265 9051   4.768   7.441   0.119 -1.6056  1.4247  0.4673
   24MOL   H266 9052   4.890   7.258   0.397  1.3358  0.4481  0.3836
   24MOL   H267 9053   4.977   7.342   0.266  0.7696  1.0329  1.9215
   24MOL   C268 9054   5.070   7.170   0.339 -0.3071 -0.5573  0.0293
   24MOL   C269 9055   5.052   7.018   0.353  0.1384  0.1152 -0.6162
   24MOL   C270 9056   5.093   6.936   0.242 -0.0837 -0.1771  0.2128
   24MOL   C271 9057   5.091   6.800   0.245  0.2245  0.0724 -0.5653
   24MOL   C272 9058   5.030   6.739   0.358  0.4682 -0.3454 -0.0361
   24MOL   C273 9059   5.024   6.586   0.359 -0.0837 -0.0744  0.5368
   24MOL   C274 9060   4.978   6.812   0.463 -0.0572 -0.0413  0.2746
   24MOL   C275 9061   4.988   6.954   0.462  0.3303 -0.1797 -0.3927
   24MOL   C276 9062   5.141   7.253   0.451 -0.0510  0.2663 -0.3972
   24MOL   H277 9063   5.132   7.183   0.251 -0.7623 -1.6464 -0.4549
   24MOL   H278 9064   5.129   6.989   0.155  2.9366  1.9856  2.6639
   24MOL   H279 9065   5.123   6.743   0.159  1.3872  1.1906 -0.8808
   24MOL   H280 9066   4.921   6.549   0.354 -0.3255  0.6623  0.0197
   24MOL   H281 9067   5.070   6.531   0.278 -2.0546  0.1364 -0.7627
   24MOL   H282 9068   5.062   6.550   0.455  1.1755 -1.4859 -0.4843
   24MOL   H283 9069   4.916   6.769   0.540 -1.8810  0.6638 -0.7510
   24MOL   H284 9070   4.944   7.002   0.548  3.7688  1.0702  0.7586
   24MOL   H285 9071   5.062   7.257   0.526  0.0537 -1.0854 -0.2112
   24MOL   H286 9072   5.164   7.357   0.426  0.5388 -0.4189 -2.7971
   24MOL   C287 9073   5.251   7.183   0.520  0.1528 -0.1714 -0.0780
   24MOL   C288 9074   5.306   7.242   0.652 -0.1420  0.8672 -0.8071
   24MOL   C289 9075   5.263   7.165   0.770 -0.2772 -0.2386 -0.1376
   24MOL   C290 9076   5.330   7.200   0.888 -0.7353 -0.5268  0.0786
   24MOL   C291 9077   5.404   7.317   0.902 -0.8338  0.4705 -0.5134
   24MOL   C292 9078   5.479   7.360   1.028 -0.1044  0.3816 -0.2857
   24MOL   C293 9079   5.428   7.399   0.787 -0.3684 -0.3457 -0.5716
   24MOL   C294 9080   5.384   7.363   0.660  0.4312  0.7475 -0.3591
   24MOL   C295 9081   5.369   7.157   0.427 -0.0311  0.5810  0.0438
   24MOL   H296 9082   5.211   7.084   0.542  0.4759 -0.0056  1.2994
   24MOL   H297 9083   5.197   7.080   0.762  0.1796 -0.7727  1.5673
   24MOL   H298 9084   5.315   7.147   0.981 -0.9030  0.3301  0.5468
   24MOL   H299 9085   5.413   7.426   1.085 -0.7307 -0.0378 -0.5115
   24MOL   H300 9086   5.504   7.270   1.086  0.7063  0.2970 -0.7663
   24MOL   H301 9087   5.577   7.402   1.009  0.4989  0.8952  3.5644
   24MOL   H302 9088   5.491   7.486   0.803  0.3681 -0.7439 -1.2704
   24MOL   H303 9089   5.425   7.420   0.578  1.0251  2.0172  0.7892
   24MOL   H304 9090   5.419   7.252   0.411 -1.6063  1.3718 -0.3272
   24MOL   H305 9091   5.341   7.133   0.324  1.0373 -0.7939  0.0551
   24MOL   C306 9092   5.462   7.045   0.476  0.5065 -0.6805 -0.5443
   24MOL   C307 9093   5.592   7.048   0.388 -0.0891  0.0932 -0.2898
   24MOL   C308 9094   5.716   7.103   0.442 -0.2154  0.7570  0.0065
   24MOL   C309 9095   5.826   7.118   0.353  0.4295  0.0165  0.8851
   24MOL   C310 9096   5.820   7.070   0.220  1.0617  0.6265  0.6170
   24MOL   C311 9097   5.941   7.071   0.131  0.2859  0.5846  0.8125
   24MOL   C312 9098   5.704   7.020   0.173  0.1156  0.9622 -0.0530
   24MOL   C313 9099   5.588   7.007   0.252 -0.1549  0.0123 -0.1912
   24MOL   C314 9100   5.402   6.908   0.483  0.1397  0.3318 -0.4623
   24MOL   H315 9101   5.488   7.076   0.577  1.7130 -0.1357 -1.0025
   24MOL   H316 9102   5.720   7.137   0.544  0.5865 -2.6800  1.2128
   24MOL   H317 9103   5.913   7.172   0.387 -0.7560  2.5127  0.1105
   24MOL   H318 9104   6.001   7.160   0.149 -0.7964  1.4730  0.1222
   24MOL   H319 9105   6.005   6.983   0.140  2.0649  1.4817 -2.2152
   24MOL   H320 9106   5.918   7.075   0.025  0.0854  0.4723  0.8520
   24MOL   H321 9107   5.690   6.988   0.071 -1.6568  0.1270  0.4220
   24MOL   H322 9108   5.493   6.971   0.216  0.7450  0.4520 -3.1103
   24MOL   H323 9109   5.359   6.874   0.389  1.5527  0.1154 -1.0403
   24MOL   H324 9110   5.319   6.909   0.553 -0.9125  1.4627 -1.7104
   24MOL   C325 9111   5.504   6.793   0.527 -0.2145 -0.3191  0.1021
   24MOL   C326 9112   5.542   6.709   0.405  0.2618  0.6339 -0.1991
   24MOL   C327 9113   5.451   6.617   0.359  0.2566 -0.4261 -0.4376
   24MOL   C328 9114   5.484   6.537   0.243 -0.2746  0.4203  0.1736
   24MOL   C329 9115   5.608   6.550   0.182 -0.5224 -1.0983  0.6777
   24MOL   C330 9116   5.653   6.454   0.069 -0.1038 -0.1477  0.0900
   24MOL   C331 9117   5.697   6.643   0.236  0.4565 -0.0379 -0.3983
   24MOL   C332 9118   5.663   6.723   0.342 -0.0288  0.5311  0.1885
   24MOL   C333 9119   5.456   6.720   0.644  0.4041  0.5421 -0.5947
   24MOL   H334 9120   5.600   6.838   0.551  0.1796  0.9526 -3.5573
   24MOL   H335 9121   5.352   6.611   0.402  0.6888 -1.8667  0.4128
   24MOL   H336 9122   5.408   6.471   0.207  1.7365 -1.0011 -1.5545
   24MOL   H337 9123   5.628   6.355   0.107  0.4641 -0.6606 -0.8483
   24MOL   H338 9124   5.589   6.475   8.064  0.1555  0.6910  0.1081
   24MOL   H339 9125   5.758   6.462   0.042 -0.3059  2.3482 -0.0424
   24MOL   H340 9126   5.794   6.659   0.192  0.2287 -0.4129 -1.0477
   24MOL   H341 9127   5.737   6.794   0.375 -0.9140  0.3179  2.7049
   24MOL   H342 9128   5.517   6.630   0.655 -0.1380  0.2926  0.4264
   24MOL   H343 9129   5.354   6.683   0.641 -0.2256  2.3509 -1.5971
   24MOL   C344 9130   5.472   6.790   0.785 -0.2603 -0.4064 -0.4664
   24MOL   C345 9131   5.615   6.854   0.806  0.4811 -0.2530 -0.0396
   24MOL   C346 9132   5.738   6.784   0.790  0.0953 -0.1953 -0.1225
   24MOL   C347 9133   5.857   6.857   0.785 -0.1612 -0.4889  0.6763
   24MOL   C348 9134   5.858   6.999   0.792 -0.0552  0.0342  0.1473
   24MOL   C349 9135   5.988   7.086   0.795 -0.0307 -0.6509 -0.0156
   24MOL   C350 9136   5.738   7.068   0.803 -0.3886  0.2926  0.2662
   24MOL   C351 9137   5.623   6.995   0.814  0.2539 -0.5640  0.0397
   24MOL   C352 9138   5.444   6.703   0.913 -0.2406 -0.0303  0.3326
   24MOL   H353 9139   5.407   6.878   0.782  0.8512  0.4307 -0.4135
   24MOL   H354 9140   5.745   6.679   0.766 -2.1963 -0.2526 -0.6954
   24MOL   H355 9141   5.954   6.813   0.767 -0.5259 -1.0031 -0.0832
   24MOL   H356 9142   6.071   7.028   0.836 -0.1935 -0.8243  0.0662
   24MOL   H357 9143   6.007   7.121   0.693  0.7141  1.2908  0.7589
   24MOL   H358 9144   5.973   7.173   0.860  3.6061 -0.1118  0.2296
   24MOL   H359 9145   5.723   7.175   0.804  1.7931  0.6183  0.3663
   24MOL   H360 9146   5.537   7.059   0.822  0.2867 -0.4639 -0.4157
   24MOL   H361 9147   5.521   6.625   0.914 -0.3092 -0.0912  0.6596
   24MOL   H362 9148   5.344   6.659   0.902  0.7462 -2.2212 -0.2564
   24MOL   C363 9149   5.449   6.761   1.048  0.0140 -0.6118 -0.8398
   24MOL   C364 9150   5.455   6.661   1.165  0.9237 -0.6265 -0.1417
   24MOL   C365 9151   5.353   6.558   1.179 -0.2500  0.2443  0.7679
   24MOL   C366 9152   5.344   6.472   1.292  0.5257  0.0764  0.7531
   24MOL   C367 9153   5.430   6.492   1.403 -0.3044 -0.0368 -0.5857
   24MOL   C368 9154   5.426   6.423   1.541 -0.2396 -0.1299  0.6380
   24MOL   C369 9155   5.520   6.604   1.393 -0.1011  0.2935 -0.0992
   24MOL   C370 9156   5.537   6.682   1.278 -0.8521  0.2579  0.0825
   24MOL   C371 9157   5.340   6.864   1.079 -0.7202  0.0014 -0.4865
   24MOL   H372 9158   5.544   6.815   1.048  0.5986 -1.6041  0.3062
   24MOL   H373 9159   5.282   6.544   1.099  1.3764 -0.6072 -0.5600
   24MOL   H374 9160   5.267   6.397   1.290  0.2844  0.3300 -0.8602
   24MOL   H375 9161   5.527   6.401   1.578 -0.3112 -0.6586  0.5228
   24MOL   H376 9162   5.363   6.473   1.615  0.9190 -0.9945  2.2577
   24MOL   H377 9163   5.389   6.323   1.519 -0.8107 -0.0458  1.1911
   24MOL   H378 9164   5.586   6.618   1.477 -0.4390 -1.5208  0.4832
   24MOL   H379 9165   5.619   6.752   1.275  0.9059 -1.8163 -0.9127
   24MOL   H380 9166   5.338   6.910   1.178 -1.5576 -0.2504 -0.3767
   24MOL   H381 9167   5.237   6.829   1.065 -0.0145 -1.9212 -0.9595
   24MOL   H382 9168   5.352   6.945   1.007  3.2118 -0.1198 -0.0585
   25MOL     C1 9169   5.908   5.582   6.633 -0.3262  0.4909  0.0843
   25MOL     C2 9170   6.005   5.672   6.561  0.2257  0.6341 -0.7810
   25MOL     C3 9171   6.044   5.801   6.605 -0.0339  0.7604 -0.0291
   25MOL     C4 9172   6.144   5.872   6.539 -0.5404  0.1271  0.3429
   25MOL     C5 9173   6.225   5.816   6.432 -0.2329  0.0785 -0.4525
   25MOL     C6 9174   6.349   5.888   6.372  0.1514 -0.1745 -0.0532
   25MOL     C7 9175   6.180   5.692   6.389 -0.8018  0.0528  0.0844
   25MOL     C8 9176   6.074   5.622   6.452 -0.2415  0.4048  0.5696
   25MOL     C9 9177   5.795   5.534   6.540  0.5209 -0.5321 -0.2842
   25MOL    H10 9178   5.968   5.496   6.661 -1.0557  0.1595  0.6628
   25MOL    H11 9179   5.980   5.842   6.682 -1.6206 -1.6922  0.0084
   25MOL    H12 9180   6.165   5.970   6.579 -1.4581  0.2534  0.5472
   25MOL    H13 9181   6.433   5.860   6.436 -0.5286  0.4999  1.1447
   25MOL    H14 9182   6.380   5.838   6.280 -0.8492  0.5345 -0.7887
   25MOL    H15 9183   6.348   5.997   6.379  2.7813 -0.2353  2.2195
   25MOL    H16 9184   6.232   5.637   6.312  1.0693 -0.6433  1.8040
   25MOL    H17 9185   6.065   5.519   6.420  1.5406  0.4510 -0.1370
   25MOL    H18 9186   5.834   5.480   6.454  1.8374  1.1641 -0.7897
   25MOL    H19 9187   5.742   5.622   6.503  1.6662  0.5704  0.6701
   25MOL    H20 9188   5.858   5.634   6.715 -0.9618 -1.3718  0.9080
   25MOL    C21 9189   5.693   5.440   6.601  0.2524 -0.6131  0.0894
   25MOL    C22 9190   5.752   5.307   6.642 -1.2408  0.7437 -0.2766
   25MOL    C23 9191   5.800   5.217   6.543  0.6271  0.4878 -0.4775
   25MOL    C24 9192   5.867   5.097   6.573  0.3625 -0.3327  0.2936
   25MOL    C25 9193   5.866   5.055   6.704  1.0483 -0.1745  0.2605
   25MOL    C26 9194   5.908   4.914   6.727 -0.2382 -0.0149  0.5036
   25MOL    C27 9195   5.824   5.143   6.805  0.5951 -0.0185  0.0299
   25MOL    C28 9196   5.782   5.275   6.777 -0.5315 -0.0150  0.3568
   25MOL    C29 9197   5.561   5.433   6.522 -0.5413  0.1372  0.4988
   25MOL    H30 9198   5.669   5.489   6.696  3.2306  0.2752  0.4494
   25MOL    H31 9199   5.802   5.234   6.437 -1.8223  3.7877 -0.0838
   25MOL    H32 9200   5.902   5.041   6.488  1.5295  0.1151  0.4646
   25MOL    H33 9201   6.016   4.910   6.711  0.2800  0.5974  3.4710
   25MOL    H34 9202   5.892   4.882   6.830 -0.0140  2.4527  1.3470
   25MOL    H35 9203   5.856   4.858   6.650 -1.2159 -0.2112  1.3020
   25MOL    H36 9204   5.832   5.106   6.906  1.8491  2.1142  0.7417
   25MOL    H37 9205   5.751   5.356   6.842 -1.9367  1.6254 -2.2786
   25MOL    H38 9206   5.572   5.387   6.424  1.2252 -2.0214  1.6407
   25MOL    H39 9207   5.534   5.531   6.483  1.4215  0.6829  0.4488
   25MOL    C40 9208   5.441   5.365   6.589 -0.2450  0.1376  0.1877
   25MOL    C41 9209   5.437   5.215   6.586 -0.6104 -0.1498  0.0490
   25MOL    C42 9210   5.403   5.141   6.471 -1.0479 -0.6589 -0.7241
   25MOL    C43 9211   5.394   4.998   6.470  0.4282  0.1655 -0.4174
   25MOL    C44 9212   5.416   4.925   6.590  0.1655 -0.2707 -0.1257
   25MOL    C45 9213   5.390   4.772   6.597  0.0486 -0.3058 -0.0700
   25MOL    C46 9214   5.446   4.999   6.709 -0.6537 -0.2757  0.0920
   25MOL    C47 9215   5.457   5.140   6.705  0.7990 -0.6866  0.1076
   25MOL    C48 9216   5.314   5.431   6.534  0.8149 -0.6278 -0.0055
   25MOL    H49 9217   5.456   5.392   6.693  1.0762  1.4204 -0.3189
   25MOL    H50 9218   5.395   5.190   6.375  0.1174  1.7626  0.3687
   25MOL    H51 9219   5.365   4.957   6.374 -0.2753  2.8310 -1.3743
   25MOL    H52 9220   5.288   4.754   6.633 -0.7616  0.4770 -1.8697
   25MOL    H53 9221   5.415   4.727   6.501  1.5908  0.8769 -0.2411
   25MOL    H54 9222   5.448   4.725   6.675 -1.1909 -0.3414  0.8518
   25MOL    H55 9223   5.453   4.951   6.805 -1.1939  1.7069  1.1515
   25MOL    H56 9224   5.478   5.194   6.797  0.4962  0.1565 -0.3134
   25MOL    H57 9225   5.308   5.413   6.426  1.1523 -0.1121 -0.1066
   25MOL    H58 9226   5.328   5.539   6.534 -0.2611 -0.4746 -0.4809
   25MOL    C59 9227   5.179   5.394   6.598 -0.1764  0.4179 -0.1957
   25MOL    C60 9228   5.058   5.422   6.512  0.3213  0.0722  0.2352
   25MOL    C61 9229   5.024   5.559   6.487  0.2678  0.1195  0.1380
   25MOL    C62 9230   4.916   5.582   6.407  0.0307 -0.3396 -0.3102
   25MOL    C63 9231   4.839   5.477   6.351  0.2390 -0.7326 -0.1750
   25MOL    C64 9232   4.717   5.504   6.261  0.1382  0.4664  0.6216
   25MOL    C65 9233   4.870   5.342   6.377  0.1825  0.1271  0.1452
   25MOL    C66 9234   4.972   5.314   6.468 -0.2390 -0.4266 -0.2023
   25MOL    C67 9235   5.164   5.448   6.735 -0.0159 -0.0627  0.6593
   25MOL    H68 9236   5.172   5.286   6.611 -0.3929  0.5293  0.6258
   25MOL    H69 9237   5.073   5.640   6.538 -0.5631  0.1395  0.9202
   25MOL    H70 9238   4.879   5.681   6.382 -2.7387 -1.0664  0.6538
   25MOL    H71 9239   4.712   5.435   6.177 -0.5816  0.4354  0.6870
   25MOL    H72 9240   4.637   5.498   6.335  0.4949 -2.9495  0.8182
   25MOL    H73 9241   4.727   5.610   6.236  1.2350 -0.1713 -1.7753
   25MOL    H74 9242   4.822   5.259   6.327  0.4328  0.7333 -1.1463
   25MOL    H75 9243   4.992   5.213   6.502  0.4989 -1.5644 -3.8357
   25MOL    H76 9244   5.116   5.545   6.727  1.3405  0.6451  1.0012
   25MOL    H77 9245   5.262   5.464   6.780  0.8809 -0.9911 -0.8855
   25MOL    C78 9246   5.061   5.369   6.822  0.0469  0.8408  0.3505
   25MOL    C79 9247   5.012   5.455   6.943  0.4157 -0.1322 -0.2979
   25MOL    C80 9248   4.880   5.481   6.977 -0.3067 -0.2683  0.2378
   25MOL    C81 9249   4.835   5.575   7.074  0.0171  0.2093 -0.1332
   25MOL    C82 9250   4.932   5.654   7.141 -0.0321 -0.0242  0.3423
   25MOL    C83 9251   4.876   5.763   7.233  0.0316  0.0598 -0.0102
   25MOL    C84 9252   5.065   5.633   7.116 -0.5233  0.1299  0.6116
   25MOL    C85 9253   5.103   5.535   7.018 -0.0746  0.0602  0.4280
   25MOL    C86 9254   5.114   5.234   6.866 -0.1247 -0.0114  0.1890
   25MOL    H87 9255   4.968   5.360   6.766 -1.1315  0.2574  2.3463
   25MOL    H88 9256   4.801   5.434   6.921 -0.3958  0.2874 -0.1090
   25MOL    H89 9257   4.729   5.589   7.086 -0.7544 -2.8827 -2.6973
   25MOL    H90 9258   4.776   5.797   7.206  0.2325  1.5500  1.0525
   25MOL    H91 9259   4.886   5.750   7.341 -2.8956  1.7480  0.5255
   25MOL    H92 9260   4.933   5.856   7.227 -1.5134  0.9694 -1.3020
   25MOL    H93 9261   5.139   5.693   7.165  0.5890  1.7458 -2.9190
   25MOL    H94 9262   5.208   5.520   6.997 -0.3742  1.1934 -2.0605
   25MOL    H95 9263   5.217   5.255   6.898  0.0658 -2.4370  1.2834
   25MOL    H96 9264   5.119   5.164   6.782  1.4717  0.4289 -0.0972
   25MOL    C97 9265   5.060   5.164   6.990  0.5459  0.3606 -0.2956
   25MOL    C98 9266   5.150   5.043   7.025 -0.6714  0.4498 -0.8580
   25MOL    C99 9267   5.222   5.033   7.149 -0.4936 -0.6395  0.2971
   25MOL   C100 9268   5.302   4.916   7.181 -0.5565  0.0442 -0.3181
   25MOL   C101 9269   5.296   4.799   7.092 -0.2164 -0.2862 -0.1134
   25MOL   C102 9270   5.361   4.672   7.131 -0.4712  0.1483 -0.6874
   25MOL   C103 9271   5.229   4.812   6.970  0.3727  0.3899  0.5785
   25MOL   C104 9272   5.161   4.934   6.936  0.0084 -0.7349  0.0752
   25MOL   C105 9273   4.912   5.116   6.983  0.4360 -0.4561  0.7930
   25MOL   H106 9274   5.063   5.231   7.076  0.4420 -0.6176  0.4815
   25MOL   H107 9275   5.215   5.117   7.216  2.0774  1.3214 -1.7470
   25MOL   H108 9276   5.352   4.913   7.277  0.0668  0.7763 -0.6153
   25MOL   H109 9277   5.462   4.693   7.164 -0.5398 -0.3519 -0.1542
   25MOL   H110 9278   5.299   4.629   7.210 -1.3251  0.7757 -1.0059
   25MOL   H111 9279   5.371   4.595   7.055  2.5456 -0.5012  0.3066
   25MOL   H112 9280   5.214   4.730   6.901 -1.9555  1.1991  0.0618
   25MOL   H113 9281   5.120   4.939   6.836  1.4439  1.0223 -0.4558
   25MOL   H114 9282   4.903   5.039   6.906 -0.3394 -0.6706  1.0958
   25MOL   H115 9283   4.858   5.206   6.952 -0.3853 -1.4799 -0.8423
   25MOL   C116 9284   4.838   5.073   7.117  0.2839 -0.3040  0.5804
   25MOL   C117 9285   4.907   4.964   7.188  0.2625 -0.0311  0.2245
   25MOL   C118 9286   4.912   4.830   7.143 -0.6073  0.8389  0.1260
   25MOL   C119 9287   4.961   4.718   7.212  0.3313  0.1716  0.3988
   25MOL   C120 9288   5.019   4.749   7.338 -0.0085  0.1661  0.4005
   25MOL   C121 9289   5.101   4.649   7.419  0.7523  0.3214  0.4978
   25MOL   C122 9290   5.005   4.881   7.392  0.3758  0.5349  0.7819
   25MOL   C123 9291   4.953   4.982   7.319 -0.5146  0.9430 -0.3125
   25MOL   C124 9292   4.689   5.026   7.101  0.2148 -0.1816  0.0775
   25MOL   H125 9293   4.848   5.163   7.178 -0.9980  0.9653 -1.0464
   25MOL   H126 9294   4.865   4.802   7.049  1.6896  1.0617 -1.1109
   25MOL   H127 9295   4.981   4.628   7.155 -1.5685 -0.4794  0.7547
   25MOL   H128 9296   5.087   4.669   7.525  2.2029 -2.7384  1.3233
   25MOL   H129 9297   5.076   4.545   7.400 -0.6025  1.0127 -1.7144
   25MOL   H130 9298   5.210   4.656   7.414  0.7378  0.3401  0.1867
   25MOL   H131 9299   5.018   4.897   7.498 -0.5689 -0.8841  1.1155
   25MOL   H132 9300   4.931   5.075   7.368  1.5372  0.5994  1.3238
   25MOL   H133 9301   4.663   4.961   7.185 -1.2248  1.2298  0.7406
   25MOL   H134 9302   4.675   4.979   7.004  0.0599 -0.3075  0.1600
   25MOL   C135 9303   4.584   5.140   7.116  0.9977  0.2565  0.6365
   25MOL   C136 9304   4.593   5.217   7.246  0.2785 -0.0031  0.1070
   25MOL   C137 9305   4.606   5.353   7.235  0.1236  0.1803  0.4540
   25MOL   C138 9306   4.608   5.427   7.357 -0.4171  0.5788 -0.4244
   25MOL   C139 9307   4.596   5.366   7.482 -0.1703  0.2410  0.5180
   25MOL   C140 9308   4.608   5.455   7.604 -0.5959 -0.3716 -0.2976
   25MOL   C141 9309   4.590   5.225   7.491 -0.0015  0.1145 -0.2917
   25MOL   C142 9310   4.582   5.151   7.373 -0.6292 -0.3283 -0.3862
   25MOL   C143 9311   4.443   5.089   7.079 -0.2912  0.4203 -0.4498
   25MOL   H144 9312   4.601   5.210   7.034 -1.1367  1.5887  1.2842
   25MOL   H145 9313   4.614   5.414   7.147  3.3773 -2.5802 -1.2674
   25MOL   H146 9314   4.606   5.534   7.352 -0.5185  0.6033  0.0942
   25MOL   H147 9315   4.632   5.396   7.692  0.5346 -2.3424 -1.8744
   25MOL   H148 9316   4.686   5.529   7.590  1.9848 -2.6809  1.4047
   25MOL   H149 9317   4.513   5.507   7.620 -1.9513 -3.0487  0.6764
   25MOL   H150 9318   4.588   5.171   7.585 -0.3153 -0.5344 -0.6655
   25MOL   H151 9319   4.563   5.045   7.378 -1.1339 -0.2518 -0.6435
   25MOL   H152 9320   4.366   5.137   7.139 -1.1072 -1.1283 -0.2253
   25MOL   H153 9321   4.448   4.987   7.117  1.6744  1.0085  0.9276
   25MOL   C154 9322   4.398   5.093   6.932 -0.1836  0.0132 -0.5330
   25MOL   C155 9323   4.506   5.071   6.823  0.3993 -0.1796  0.0247
   25MOL   C156 9324   4.591   5.171   6.770  0.1630  0.1124 -0.1034
   25MOL   C157 9325   4.707   5.134   6.695 -0.0943  0.3335 -0.5994
   25MOL   C158 9326   4.724   5.000   6.656 -0.1289  0.0250  0.0040
   25MOL   C159 9327   4.842   4.960   6.562 -0.1850  0.0495 -0.0724
   25MOL   C160 9328   4.638   4.899   6.714 -0.4939 -0.2104  0.4418
   25MOL   C161 9329   4.529   4.933   6.791  0.1778 -0.2147 -0.0986
   25MOL   C162 9330   4.321   5.222   6.901  0.0034  0.5054  0.1269
   25MOL   H163 9331   4.326   5.012   6.918 -1.0707  0.2840  2.1617
   25MOL   H164 9332   4.586   5.276   6.795 -2.0764 -0.0345  0.1594
   25MOL   H165 9333   4.780   5.205   6.659 -0.1463  0.4644 -0.4496
   25MOL   H166 9334   4.823   4.864   6.513 -0.8628  0.3694 -0.4483
   25MOL   H167 9335   4.860   5.039   6.490  1.1485  1.2387  1.5355
   25MOL   H168 9336   4.932   4.952   6.623  0.5675  0.3725 -1.1304
   25MOL   H169 9337   4.644   4.793   6.695  0.4691 -0.0184 -0.3864
   25MOL   H170 9338   4.473   4.857   6.844 -0.8254  1.0895  0.7099
   25MOL   H171 9339   4.343   5.254   6.799  2.3918 -0.4635  0.3011
   25MOL   H172 9340   4.377   5.304   6.947  2.0474 -0.0854 -1.2412
   25MOL   C173 9341   4.174   5.218   6.941  0.4010 -1.0152  0.4008
   25MOL   C174 9342   4.095   5.114   6.854  0.2189 -0.3990  0.1912
   25MOL   C175 9343   4.028   5.007   6.920  0.0113 -0.1291  0.1222
   25MOL   C176 9344   3.958   4.908   6.834  0.2405  0.2985 -0.5733
   25MOL   C177 9345   3.954   4.924   6.692  0.2656 -0.9537 -0.4787
   25MOL   C178 9346   3.874   4.831   6.600  0.2489 -0.0963 -0.0394
   25MOL   C179 9347   4.009   5.040   6.640  0.0095 -0.1604  0.1685
   25MOL   C180 9348   4.080   5.133   6.715 -0.5552 -0.2037 -0.3378
   25MOL   C181 9349   4.102   5.354   6.948 -0.4689  0.3384  0.9768
   25MOL   H182 9350   4.171   5.184   7.045  1.5965 -3.2396 -0.2683
   25MOL   H183 9351   4.026   4.986   7.026 -2.0327  1.3398  0.4169
   25MOL   H184 9352   3.914   4.819   6.877  0.3502  0.0924 -0.8837
   25MOL   H185 9353   3.867   4.863   6.496  0.2044 -0.9788 -0.3099
   25MOL   H186 9354   3.921   4.732   6.597 -1.0650 -0.6885 -2.4220
   25MOL   H187 9355   3.773   4.820   6.639  0.0391 -0.3903 -0.6593
   25MOL   H188 9356   4.002   5.055   6.533  0.6446  0.2691  0.1894
   25MOL   H189 9357   4.135   5.214   6.670  1.8735 -1.3182  0.5266
   25MOL   H190 9358   4.000   5.336   6.981 -0.2349  0.8943  2.0246
   25MOL   H191 9359   4.097   5.403   6.851 -2.8552 -0.9182  0.4283
   25MOL   C192 9360   4.156   5.445   7.063 -0.2482 -1.0251 -0.0756
   25MOL   C193 9361   4.135   5.392   7.207 -0.3235 -0.1975  0.4481
   25MOL   C194 9362   4.010   5.392   7.269  0.5129 -0.2377  0.3512
   25MOL   C195 9363   3.997   5.345   7.404  0.7652 -0.0116  0.4399
   25MOL   C196 9364   4.110   5.298   7.481 -0.4298  0.2176  0.5376
   25MOL   C197 9365   4.098   5.245   7.623 -0.3950  0.0712  0.3719
   25MOL   C198 9366   4.231   5.295   7.409 -0.4671  0.0135  0.8478
   25MOL   C199 9367   4.247   5.341   7.280  0.4447  0.2417  0.5950
   25MOL   C200 9368   4.097   5.593   7.050 -0.6833  0.6682  0.0572
   25MOL   H201 9369   4.265   5.448   7.055 -0.2537  1.7492  0.1162
   25MOL   H202 9370   3.920   5.428   7.220  0.9551  0.4915  0.0553
   25MOL   H203 9371   3.894   5.348   7.435  0.7990 -0.8045  0.6322
   25MOL   H204 9372   4.005   5.286   7.663 -0.8219 -0.6632  0.1372
   25MOL   H205 9373   4.101   5.138   7.641  0.2278 -0.3116 -1.9093
   25MOL   H206 9374   4.181   5.289   7.679 -1.1387 -0.6632  2.1018
   25MOL   H207 9375   4.306   5.234   7.456  1.0211  0.4707 -0.8410
   25MOL   H208 9376   4.344   5.326   7.234  0.4892 -4.0394  1.7769
   25MOL   H209 9377   4.117   5.635   7.149 -1.8232  0.3900  0.4160
   25MOL   H210 9378   3.988   5.583   7.043 -0.6671  0.6081 -0.1125
   25MOL   C211 9379   4.160   5.692   6.953  0.1873 -0.3114  0.0833
   25MOL   C212 9380   4.288   5.644   6.876  0.4023 -0.1200  0.2914
   25MOL   C213 9381   4.409   5.668   6.940 -0.3915  0.2692 -0.7529
   25MOL   C214 9382   4.531   5.635   6.873  0.0377  0.5850  0.3354
   25MOL   C215 9383   4.526   5.581   6.741 -0.1718 -0.2791  0.4029
   25MOL   C216 9384   4.649   5.553   6.655  0.5626 -0.3305  0.4881
   25MOL   C217 9385   4.402   5.549   6.685 -0.2306  0.2471 -0.1357
   25MOL   C218 9386   4.282   5.575   6.748 -0.7355  0.1168  0.1663
   25MOL   C219 9387   4.176   5.839   7.012 -0.3519 -0.5213  0.1163
   25MOL   H220 9388   4.097   5.695   6.865  0.3487 -0.6929 -0.0448
   25MOL   H221 9389   4.416   5.718   7.035  2.0733 -1.0282 -0.1951
   25MOL   H222 9390   4.624   5.664   6.921 -0.1339  2.1530 -0.2712
   25MOL   H223 9391   4.741   5.582   6.704  0.8777  0.2613 -0.4282
   25MOL   H224 9392   4.657   5.448   6.628  1.2025  0.1592 -1.3615
   25MOL   H225 9393   4.634   5.609   6.562 -1.4793  0.5389  1.2980
   25MOL   H226 9394   4.394   5.489   6.596 -1.1184 -1.4621  1.0760
   25MOL   H227 9395   4.185   5.560   6.704 -0.5241  2.4233 -1.1757
   25MOL   H228 9396   4.226   5.833   7.109 -1.2249 -0.3670  0.5900
   25MOL   H229 9397   4.075   5.862   7.048 -0.3097 -0.3323  0.1140
   25MOL   C230 9398   4.236   5.950   6.929  0.8644 -0.2711  1.0528
   25MOL   C231 9399   4.313   6.046   7.019  0.0246 -0.8209  0.3751
   25MOL   C232 9400   4.249   6.130   7.113 -0.4633 -0.0963 -0.5250
   25MOL   C233 9401   4.333   6.209   7.200  0.5938  0.0938  0.8581
   25MOL   C234 9402   4.467   6.227   7.178 -0.0821  0.1448  0.3903
   25MOL   C235 9403   4.544   6.321   7.267 -0.8585  0.1470 -0.0290
   25MOL   C236 9404   4.530   6.147   7.082 -0.9665 -0.3948  0.0005
   25MOL   C237 9405   4.452   6.062   6.996 -0.2003  0.5199  0.0254
   25MOL   C238 9406   4.123   6.025   6.836 -0.5448 -0.1532  0.0773
   25MOL   H239 9407   4.314   5.901   6.871 -0.6665 -1.3337 -0.1400
   25MOL   H240 9408   4.142   6.127   7.128 -0.3129 -1.7771  0.3353
   25MOL   H241 9409   4.276   6.274   7.264  1.5176  1.3339  0.4261
   25MOL   H242 9410   4.637   6.359   7.224 -0.3310 -2.1845 -1.0323
   25MOL   H243 9411   4.482   6.405   7.297  1.1888  0.7611  2.7412
   25MOL   H244 9412   4.580   6.263   7.352 -0.8135 -1.0488 -0.8507
   25MOL   H245 9413   4.636   6.156   7.066 -0.8751 -3.1858 -1.1670
   25MOL   H246 9414   4.509   6.009   6.920  1.6835 -1.1414  2.5210
   25MOL   H247 9415   4.086   6.112   6.889  0.5186 -1.2882  2.7755
   25MOL   H248 9416   4.040   5.957   6.818 -1.3606  1.1679 -1.3361
   25MOL   C249 9417   4.179   6.066   6.699  0.2009 -0.2539 -0.1638
   25MOL   C250 9418   4.088   6.171   6.639 -0.7843 -0.7779 -0.7285
   25MOL   C251 9419   4.135   6.300   6.629  0.6558 -0.1556 -0.2854
   25MOL   C252 9420   4.049   6.400   6.571 -0.3683  0.3168 -0.7157
   25MOL   C253 9421   3.916   6.364   6.537  0.3101 -0.1762  0.4565
   25MOL   C254 9422   3.821   6.464   6.473  0.0172 -0.4546  0.1593
   25MOL   C255 9423   3.867   6.238   6.558  0.4508 -0.2234  0.3576
   25MOL   C256 9424   3.954   6.139   6.603  0.1265  0.7910  0.2740
   25MOL   C257 9425   4.206   5.944   6.609  0.1367 -0.1525 -0.5245
   25MOL   H258 9426   4.276   6.110   6.722 -1.3438  3.0550  0.3571
   25MOL   H259 9427   4.233   6.328   6.665  0.4736  0.7881 -0.5122
   25MOL   H260 9428   4.084   6.499   6.545 -2.4998  0.7206 -2.1305
   25MOL   H261 9429   3.882   6.523   6.404  1.4118  0.1821  1.8905
   25MOL   H262 9430   3.738   6.409   6.429  0.8672  0.2023 -2.3249
   25MOL   H263 9431   3.799   6.534   6.553 -0.7270  1.5839 -1.7773
   25MOL   H264 9432   3.766   6.220   6.525 -0.3295  3.2168  0.7539
   25MOL   H265 9433   3.923   6.036   6.612  0.1967  0.5726 -1.6536
   25MOL   H266 9434   4.107   5.904   6.587  0.1372 -0.9729  0.9114
   25MOL   H267 9435   4.251   5.859   6.661 -0.5273  0.4225  1.0271
   25MOL   C268 9436   4.285   5.979   6.472  0.2266  0.3697 -1.1550
   25MOL   C269 9437   4.233   5.890   6.357  0.5022  0.1040  0.8429
   25MOL   C270 9438   4.199   5.954   6.233  0.7194  0.1723 -0.0583
   25MOL   C271 9439   4.131   5.877   6.137  0.3171  0.1966 -0.8397
   25MOL   C272 9440   4.102   5.743   6.162 -0.0412  0.0482  0.5785
   25MOL   C273 9441   4.012   5.662   6.067 -0.0591 -0.2885  0.2412
   25MOL   C274 9442   4.158   5.677   6.272 -0.0565  0.1185  0.2433
   25MOL   C275 9443   4.220   5.752   6.375 -0.3787  0.1098  0.1834
   25MOL   C276 9444   4.439   5.936   6.496  0.5063  0.2276  0.3048
   25MOL   H277 9445   4.280   6.087   6.461 -1.6489  0.5546  1.0129
   25MOL   H278 9446   4.213   6.060   6.218 -1.6582  0.2571 -2.0203
   25MOL   H279 9447   4.090   5.919   6.046 -0.5507  1.5321  0.1385
   25MOL   H280 9448   4.011   5.720   5.975  0.9323 -0.5030  0.0848
   25MOL   H281 9449   4.043   5.560   6.049  0.7554  0.2501 -1.5131
   25MOL   H282 9450   3.913   5.661   6.112  0.1696  1.2455  0.8461
   25MOL   H283 9451   4.142   5.570   6.283 -0.2863 -0.3920 -4.3071
   25MOL   H284 9452   4.246   5.705   6.468 -0.9772 -0.8790 -0.1332
   25MOL   H285 9453   4.472   5.920   6.393 -0.7666  0.3023 -0.1133
   25MOL   H286 9454   4.453   5.844   6.554 -0.4946 -0.7794 -1.0193
   25MOL   C287 9455   4.526   6.041   6.566  0.4784 -0.0748 -0.4295
   25MOL   C288 9456   4.499   6.183   6.514  0.7836 -0.6109  0.7935
   25MOL   C289 9457   4.495   6.206   6.379 -0.0376 -0.4436 -0.3679
   25MOL   C290 9458   4.466   6.333   6.325  0.0476 -0.7855  0.6574
   25MOL   C291 9459   4.444   6.436   6.416 -0.1536  0.3542 -0.1718
   25MOL   C292 9460   4.416   6.572   6.360 -0.0420  0.5576 -0.0825
   25MOL   C293 9461   4.447   6.411   6.556  0.5344 -0.4327 -0.4912
   25MOL   C294 9462   4.473   6.285   6.609  0.6402  0.0295 -0.1154
   25MOL   C295 9463   4.678   5.989   6.555 -0.0514  0.2131 -0.4147
   25MOL   H296 9464   4.508   6.034   6.673  3.1263 -3.5064 -0.1291
   25MOL   H297 9465   4.507   6.123   6.310 -2.2669 -0.6625 -0.5420
   25MOL   H298 9466   4.453   6.355   6.220 -0.5273 -0.5424  0.7771
   25MOL   H299 9467   4.479   6.638   6.419  2.8066 -2.9416  0.9230
   25MOL   H300 9468   4.429   6.607   6.258 -2.0813 -0.1150 -0.5940
   25MOL   H301 9469   4.318   6.611   6.387  1.3970  2.8606  2.0411
   25MOL   H302 9470   4.416   6.486   6.628  1.3201 -1.4777  0.9709
   25MOL   H303 9471   4.472   6.270   6.716 -2.0818 -2.5956 -0.4247
   25MOL   H304 9472   4.693   5.958   6.452  1.7535 -0.7624  0.1286
   25MOL   H305 9473   4.688   5.895   6.608 -2.7529  0.5469  0.7642
   25MOL   C306 9474   4.791   6.092   6.588 -0.2721 -0.7442 -0.1562
   25MOL   C307 9475   4.896   6.085   6.476  0.4270  0.2246 -0.1939
   25MOL   C308 9476   4.894   6.186   6.378  0.3079 -0.8381  0.2850
   25MOL   C309 9477   4.972   6.168   6.263 -0.1970  0.4612  0.1534
   25MOL   C310 9478   5.061   6.059   6.249  0.1828 -1.0990  0.5225
   25MOL   C311 9479   5.148   6.050   6.124 -0.5947  0.3807  0.1158
   25MOL   C312 9480   5.074   5.966   6.346 -0.8349 -0.3677 -0.7267
   25MOL   C313 9481   4.986   5.972   6.453  0.7094 -0.3475 -0.1196
   25MOL   C314 9482   4.854   6.070   6.730  0.1482  0.3901  0.1735
   25MOL   H315 9483   4.752   6.194   6.598  1.6686 -0.0962  1.0202
   25MOL   H316 9484   4.841   6.280   6.389  1.1099 -0.4223  0.6809
   25MOL   H317 9485   4.973   6.242   6.184 -0.0959 -1.4082 -1.6253
   25MOL   H318 9486   5.157   5.945   6.097 -1.8019  1.1489 -3.4476
   25MOL   H319 9487   5.098   6.105   6.045  1.3999  1.0740 -0.6831
   25MOL   H320 9488   5.248   6.090   6.139 -1.1732  1.4272  1.2822
   25MOL   H321 9489   5.145   5.885   6.352 -2.3046 -1.5298  1.5829
   25MOL   H322 9490   4.988   5.893   6.527 -1.8000 -0.8465 -0.5625
   25MOL   H323 9491   4.921   5.985   6.723 -0.3513  0.2012 -2.8040
   25MOL   H324 9492   4.782   6.032   6.802  1.1494 -2.1431 -0.1270
   25MOL   C325 9493   4.933   6.186   6.804  0.3608 -0.1901 -0.1601
   25MOL   C326 9494   5.042   6.139   6.906  0.5335  0.2868  0.2363
   25MOL   C327 9495   5.160   6.210   6.912 -0.2269  0.1247 -0.3071
   25MOL   C328 9496   5.264   6.159   6.988  0.3861 -0.2389 -0.1511
   25MOL   C329 9497   5.251   6.039   7.060 -0.1241 -0.5215 -0.6683
   25MOL   C330 9498   5.367   5.986   7.130 -0.5774 -0.4582 -0.4522
   25MOL   C331 9499   5.120   5.982   7.067 -0.1243 -0.8613 -0.3370
   25MOL   C332 9500   5.021   6.024   6.985 -0.1787 -0.0838  0.5413
   25MOL   C333 9501   4.845   6.298   6.866  0.7044  0.0104  1.1847
   25MOL   H334 9502   4.982   6.234   6.718 -2.0142  0.8317 -0.9920
   25MOL   H335 9503   5.161   6.301   6.855 -0.8740 -0.6679 -1.6077
   25MOL   H336 9504   5.353   6.220   7.001 -0.2385 -0.0150  3.6534
   25MOL   H337 9505   5.344   5.916   7.210  0.6460 -1.1870 -0.7318
   25MOL   H338 9506   5.437   5.927   7.072 -0.4876 -0.0373 -0.7759
   25MOL   H339 9507   5.419   6.069   7.179 -1.4039 -0.2903  0.1621
   25MOL   H340 9508   5.118   5.885   7.114 -3.8130  0.1065  1.6799
   25MOL   H341 9509   4.927   5.971   6.974  0.0771 -0.7655  1.5922
   25MOL   H342 9510   4.880   6.325   6.966  1.9398  0.5967  0.6089
   25MOL   H343 9511   4.744   6.262   6.881  0.3919 -0.3164 -1.4931
   25MOL   C344 9512   4.827   6.428   6.784  0.1655 -0.2048  0.3273
   25MOL   C345 9513   4.953   6.486   6.741 -0.6383 -0.3192 -0.2157
   25MOL   C346 9514   4.986   6.488   6.605  0.0137 -1.2890 -0.0842
   25MOL   C347 9515   5.113   6.528   6.560 -0.6255 -0.0903  0.2859
   25MOL   C348 9516   5.205   6.582   6.652  0.9727 -0.3887 -0.7091
   25MOL   C349 9517   5.330   6.628   6.590 -0.2884 -0.7260 -0.4351
   25MOL   C350 9518   5.175   6.587   6.790 -0.2925  0.1758 -0.1676
   25MOL   C351 9519   5.050   6.540   6.838 -0.1093 -0.0417  0.4462
   25MOL   C352 9520   4.742   6.537   6.870 -0.1904 -0.6493 -0.6366
   25MOL   H353 9521   4.771   6.410   6.692  0.8968  1.3438 -0.4488
   25MOL   H354 9522   4.911   6.457   6.533 -1.8699  1.1460  0.7725
   25MOL   H355 9523   5.147   6.508   6.460 -0.2721  1.5486  0.0730
   25MOL   H356 9524   5.392   6.678   6.665 -1.1416 -1.9650  1.1270
   25MOL   H357 9525   5.391   6.545   6.556  1.5729  0.2318  0.5151
   25MOL   H358 9526   5.301   6.690   6.505 -1.1524  0.3023  0.5819
   25MOL   H359 9527   5.243   6.632   6.861 -0.8430 -0.1721  0.5935
   25MOL   H360 9528   5.032   6.542   6.944  1.8416  0.1667  0.8036
   25MOL   H361 9529   4.791   6.547   6.967 -1.3170 -0.9587 -0.0288
   25MOL   H362 9530   4.637   6.510   6.884 -0.2908 -0.9124 -1.7928
   25MOL   C363 9531   4.747   6.685   6.818  0.8036 -0.3202  0.1260
   25MOL   C364 9532   4.792   6.788   6.922  0.0310 -0.6266 -0.7424
   25MOL   C365 9533   4.909   6.865   6.897 -0.6007  0.2679 -0.6958
   25MOL   C366 9534   4.947   6.970   6.981 -0.0641 -0.0295 -0.4364
   25MOL   C367 9535   4.873   6.993   7.094 -0.0453 -0.5758 -0.0057
   25MOL   C368 9536   4.924   7.101   7.188  0.0801 -0.2226  0.1074
   25MOL   C369 9537   4.757   6.913   7.130  1.4410 -0.7519  0.7915
   25MOL   C370 9538   4.705   6.824   7.035 -0.4579  0.1979 -0.1003
   25MOL   C371 9539   4.616   6.735   6.752  0.0539 -0.1008 -0.3989
   25MOL   H372 9540   4.824   6.701   6.742 -0.2492 -1.4426 -1.2032
   25MOL   H373 9541   4.960   6.841   6.804 -3.6229 -0.5667 -2.1876
   25MOL   H374 9542   5.040   7.021   6.960  0.4297  0.2380  2.1535
   25MOL   H375 9543   4.981   7.072   7.277  1.0788  0.5059 -0.2779
   25MOL   H376 9544   4.987   7.176   7.141 -1.6910  0.3834 -1.3522
   25MOL   H377 9545   4.847   7.169   7.224  0.0195 -0.0644 -0.3224
   25MOL   H378 9546   4.690   6.918   7.214 -0.6343 -2.3456 -0.7434
   25MOL   H379 9547   4.612   6.779   7.067  0.3582 -0.1839  1.7417
   25MOL   H380 9548   4.531   6.725   6.820 -0.3878 -1.5050 -1.1285
   25MOL   H381 9549   4.595   6.678   6.661  0.4439  0.5961 -0.9297
   25MOL   H382 9550   4.617   6.839   6.722 -0.4527  0.2111  0.6552
   26MOL     C1 9551   6.840   1.784   6.992  0.0274 -1.0159  0.3610
   26MOL     C2 9552   6.766   1.772   6.866 -0.2125  0.1890 -0.2730
   26MOL     C3 9553   6.653   1.844   6.847  1.1926  0.0212  0.1447
   26MOL     C4 9554   6.562   1.813   6.739  0.1176 -0.0020  0.2226
   26MOL     C5 9555   6.588   1.716   6.641 -0.2350  0.0438 -0.1001
   26MOL     C6 9556   6.491   1.682   6.532  0.1043  0.6466  0.2198
   26MOL     C7 9557   6.716   1.641   6.653  0.8646 -0.2402  0.0103
   26MOL     C8 9558   6.800   1.679   6.761 -0.3773 -0.1802 -0.2556
   26MOL     C9 9559   6.889   1.931   7.022  0.2772  0.6027  0.2157
   26MOL    H10 9560   6.786   1.738   7.074  0.7361 -0.9060  0.8933
   26MOL    H11 9561   6.626   1.913   6.925  0.7622  1.6439 -1.4161
   26MOL    H12 9562   6.475   1.876   6.737  0.6572  0.7532 -3.4675
   26MOL    H13 9563   6.406   1.630   6.575  0.0463  2.1491  1.9881
   26MOL    H14 9564   6.465   1.778   6.486  0.4476 -0.2300 -1.8576
   26MOL    H15 9565   6.536   1.621   6.454 -1.1203  1.3063 -1.0291
   26MOL    H16 9566   6.751   1.559   6.592 -2.8282 -0.4909 -1.9657
   26MOL    H17 9567   6.886   1.615   6.772  0.3680  1.1523  2.0876
   26MOL    H18 9568   6.798   1.990   7.013  1.0090  1.2582 -3.5779
   26MOL    H19 9569   6.946   1.982   6.945 -0.2571  2.6131  1.1295
   26MOL    H20 9570   6.929   1.720   6.991  1.0081  0.2739 -2.3987
   26MOL    C21 9571   6.960   1.953   7.159 -0.1503 -0.0317 -0.0495
   26MOL    C22 9572   7.115   1.957   7.161 -0.5592  0.3232 -0.1342
   26MOL    C23 9573   7.183   2.000   7.276 -0.3942 -0.5403 -0.3883
   26MOL    C24 9574   7.323   2.003   7.290 -0.1386 -0.2231  0.0826
   26MOL    C25 9575   7.394   1.948   7.179 -0.0363  0.2258  0.0505
   26MOL    C26 9576   7.547   1.945   7.175  0.5545  0.3057 -0.4994
   26MOL    C27 9577   7.329   1.908   7.058 -0.7149  0.1926 -0.2678
   26MOL    C28 9578   7.188   1.908   7.054 -0.5978  0.3039 -0.2980
   26MOL    C29 9579   6.898   1.878   7.284 -0.2213  0.4595 -0.5196
   26MOL    H30 9580   6.929   2.055   7.181  1.3599  0.2664  0.7527
   26MOL    H31 9581   7.136   2.044   7.363  2.3648 -0.7387  1.2527
   26MOL    H32 9582   7.370   2.047   7.377  2.7786 -0.8223 -1.1492
   26MOL    H33 9583   7.581   1.873   7.100 -2.8701  0.1105 -1.9589
   26MOL    H34 9584   7.586   2.045   7.157 -2.5059  1.8530  1.0501
   26MOL    H35 9585   7.592   1.897   7.262  0.0859  3.0379  1.3123
   26MOL    H36 9586   7.389   1.869   6.977  1.2306  0.3126  1.0851
   26MOL    H37 9587   7.128   1.873   6.972  0.9911  0.6024 -1.6121
   26MOL    H38 9588   6.945   1.900   7.380 -0.8496  1.5838 -0.4636
   26MOL    H39 9589   6.927   1.774   7.267  1.8338  0.5874  1.9194
   26MOL    C40 9590   6.744   1.897   7.309  0.1404  0.3369  0.2463
   26MOL    C41 9591   6.708   2.045   7.316 -0.4276 -0.2902  0.7575
   26MOL    C42 9592   6.773   2.135   7.398  0.0457 -0.8986  0.2277
   26MOL    C43 9593   6.752   2.273   7.388  0.8428 -0.0627 -0.0238
   26MOL    C44 9594   6.655   2.321   7.303  0.3217  0.1827  0.5556
   26MOL    C45 9595   6.634   2.468   7.291  1.0370 -0.2264  0.1647
   26MOL    C46 9596   6.577   2.232   7.227 -0.1428 -0.0186  0.1084
   26MOL    C47 9597   6.604   2.096   7.228 -0.7441  0.0440  0.3172
   26MOL    C48 9598   6.699   1.822   7.436 -0.1526  0.5667 -0.6662
   26MOL    H49 9599   6.698   1.865   7.216 -1.2713 -0.1019  1.0681
   26MOL    H50 9600   6.863   2.107   7.450  0.8962  0.0995 -0.6890
   26MOL    H51 9601   6.814   2.341   7.446 -1.0206 -0.7259  2.8807
   26MOL    H52 9602   6.725   2.525   7.272 -0.2428  1.7631 -0.2679
   26MOL    H53 9603   6.560   2.500   7.217 -1.4084  1.2809  3.1362
   26MOL    H54 9604   6.604   2.499   7.391  1.0095 -3.0288  1.0589
   26MOL    H55 9605   6.507   2.260   7.150 -1.8178 -0.8985  1.2683
   26MOL    H56 9606   6.544   2.031   7.166 -1.8464  2.9039 -1.7041
   26MOL    H57 9607   6.592   1.841   7.450 -0.7091 -2.1336 -0.9160
   26MOL    H58 9608   6.753   1.859   7.523  2.8101 -2.0383 -1.3104
   26MOL    C59 9609   6.694   1.662   7.429  0.5811 -0.0059  0.2639
   26MOL    C60 9610   6.638   1.616   7.296  0.3154 -0.3012 -0.4125
   26MOL    C61 9611   6.697   1.503   7.238 -0.1879 -0.1252 -0.4482
   26MOL    C62 9612   6.648   1.446   7.117 -0.6627  0.2954 -0.4617
   26MOL    C63 9613   6.538   1.512   7.055  0.5799 -0.0085  0.0276
   26MOL    C64 9614   6.486   1.460   6.927 -0.4404 -0.3078  0.0978
   26MOL    C65 9615   6.481   1.621   7.116  0.1176  0.3110 -0.1081
   26MOL    C66 9616   6.527   1.671   7.239 -0.5810 -0.0487 -0.1598
   26MOL    C67 9617   6.616   1.614   7.552 -0.2125  0.5342  0.0139
   26MOL    H68 9618   6.799   1.638   7.444  0.4524 -1.6258 -1.2424
   26MOL    H69 9619   6.768   1.454   7.302 -1.4774 -1.1103  0.2506
   26MOL    H70 9620   6.693   1.364   7.063  0.6753  0.8397 -0.2095
   26MOL    H71 9621   6.417   1.529   6.878  0.9273  0.3118 -0.9618
   26MOL    H72 9622   6.572   1.444   6.863 -0.2176  0.8322  0.1066
   26MOL    H73 9623   6.429   1.367   6.931 -1.2999  0.0108 -3.5370
   26MOL    H74 9624   6.402   1.676   7.065  0.5983  1.1036  0.0038
   26MOL    H75 9625   6.490   1.765   7.278 -1.3374  0.7735 -2.7604
   26MOL    H76 9626   6.513   1.642   7.528  0.0935  0.9964 -0.7380
   26MOL    H77 9627   6.656   1.660   7.643  2.6863  1.4504 -1.6824
   26MOL    C78 9628   6.630   1.458   7.578  0.1289 -0.3715 -0.0609
   26MOL    C79 9629   6.549   1.416   7.698 -0.5537 -0.1152  0.5660
   26MOL    C80 9630   6.527   1.497   7.810  0.2317 -0.5577 -0.2255
   26MOL    C81 9631   6.437   1.453   7.911  0.3710  0.8340 -0.2774
   26MOL    C82 9632   6.364   1.336   7.895 -0.9206  0.4023 -0.6800
   26MOL    C83 9633   6.267   1.294   8.000  0.7973  0.2043 -0.0023
   26MOL    C84 9634   6.395   1.246   7.789  0.6112  0.0049  0.7721
   26MOL    C85 9635   6.495   1.288   7.689  0.0301  0.5675 -0.7955
   26MOL    C86 9636   6.773   1.396   7.583  0.0101  0.3294  0.3221
   26MOL    H87 9637   6.584   1.422   7.486 -1.3989 -2.3658  1.4567
   26MOL    H88 9638   6.543   1.603   7.823 -1.7627 -0.2951  0.1664
   26MOL    H89 9639   6.422   1.515   7.998  2.0951 -0.6310  1.0936
   26MOL    H90 9640   6.168   1.309   7.956  1.9441  0.7776 -2.4740
   26MOL    H91 9641   6.287   1.190   8.026 -0.2487 -0.2084 -0.8280
   26MOL    H92 9642   6.266   1.355   0.011  2.1075  1.2653 -0.6901
   26MOL    H93 9643   6.349   1.150   7.775 -0.4457  0.4504  1.1525
   26MOL    H94 9644   6.526   1.224   7.608 -1.1623 -0.6050 -0.3438
   26MOL    H95 9645   6.829   1.404   7.490 -1.3579 -0.8382 -0.6101
   26MOL    H96 9646   6.764   1.288   7.593  1.8925 -0.1497 -2.6486
   26MOL    C97 9647   6.865   1.427   7.702 -0.3410  0.0667 -0.4098
   26MOL    C98 9648   6.889   1.571   7.725  0.1162  0.2311  0.3574
   26MOL    C99 9649   6.833   1.627   7.844 -0.1819  0.4787 -0.0578
   26MOL   C100 9650   6.846   1.766   7.864 -1.0529 -0.0208 -0.1499
   26MOL   C101 9651   6.923   1.843   7.774 -0.9287 -0.1611  0.2680
   26MOL   C102 9652   6.944   1.991   7.794  0.2557  0.8070 -0.3570
   26MOL   C103 9653   6.979   1.787   7.657  0.1284  0.7942  0.2117
   26MOL   C104 9654   6.967   1.649   7.637 -0.0122  0.8476 -0.5180
   26MOL   C105 9655   6.994   1.335   7.694  0.0224  0.3934 -0.1644
   26MOL   H106 9656   6.814   1.379   7.785  0.8511  0.6201  0.6669
   26MOL   H107 9657   6.790   1.556   7.913  2.7381  0.9726  2.3410
   26MOL   H108 9658   6.797   1.811   7.949 -1.6799  0.9600 -1.0246
   26MOL   H109 9659   6.936   2.051   7.703  0.3231  0.3402 -0.6689
   26MOL   H110 9660   6.866   2.023   7.863 -0.8421 -2.7567  0.1187
   26MOL   H111 9661   7.043   2.009   7.837  0.1541 -0.7238  0.5276
   26MOL   H112 9662   7.035   1.837   7.579 -1.8904  0.5521 -1.4342
   26MOL   H113 9663   7.005   1.594   7.553  0.2296  0.9699 -0.4882
   26MOL   H114 9664   7.062   1.355   7.777  0.0503 -1.5733  0.2959
   26MOL   H115 9665   7.051   1.348   7.602  1.3946 -0.2060  0.5888
   26MOL   C116 9666   6.970   1.187   7.703 -0.0402  0.0161  0.0336
   26MOL   C117 9667   6.879   1.143   7.814  0.1873 -0.4901 -0.5598
   26MOL   C118 9668   6.904   1.189   7.948  0.4241 -0.2541  0.4087
   26MOL   C119 9669   6.810   1.173   8.053  1.0227  0.5905 -0.3350
   26MOL   C120 9670   6.697   1.098   8.027 -0.0397 -0.3604  0.3203
   26MOL   C121 9671   6.597   1.081   0.064  0.0960  0.2512  0.9600
   26MOL   C122 9672   6.671   1.044   7.902  0.0514 -0.5308  0.1052
   26MOL   C123 9673   6.761   1.073   7.796 -1.2062  0.1197  0.2357
   26MOL   C124 9674   7.104   1.108   7.707  0.2116  0.6204 -0.1765
   26MOL   H125 9675   6.917   1.160   7.611  0.3851  0.7834 -0.4399
   26MOL   H126 9676   6.993   1.246   7.967  0.6985 -0.6645  0.3686
   26MOL   H127 9677   6.828   1.211   0.072 -2.0246  0.1587  0.4496
   26MOL   H128 9678   6.649   1.025   0.142  2.2974 -1.2877 -1.5366
   26MOL   H129 9679   6.567   1.179   0.101 -0.2234  0.0860  1.1368
   26MOL   H130 9680   6.509   1.024   0.035  1.4390 -2.3067  1.7297
   26MOL   H131 9681   6.578   0.995   7.878 -0.3578 -0.0957  0.7790
   26MOL   H132 9682   6.733   1.037   7.697 -1.2547 -2.1162  1.0264
   26MOL   H133 9683   7.141   1.104   7.809  0.7193  2.4664 -0.2700
   26MOL   H134 9684   7.178   1.164   7.649  1.5268 -0.4601  0.4240
   26MOL   C135 9685   7.094   0.968   7.644 -0.2924 -0.3704  0.0319
   26MOL   C136 9686   7.183   0.875   7.722 -0.1530 -0.0820  0.1310
   26MOL   C137 9687   7.128   0.801   7.829  0.3358 -0.0056  0.3145
   26MOL   C138 9688   7.198   0.702   7.896 -0.2161 -0.1580  0.3065
   26MOL   C139 9689   7.330   0.677   7.856  0.1956  0.1059  0.5528
   26MOL   C140 9690   7.403   0.567   7.930  0.0532  0.2389  0.4931
   26MOL   C141 9691   7.388   0.750   7.751 -0.3019  0.7767  0.5652
   26MOL   C142 9692   7.315   0.851   7.686  0.2803 -0.4202 -0.2366
   26MOL   C143 9693   7.125   0.961   7.490 -0.2022 -0.0401 -0.3845
   26MOL   H144 9694   7.005   0.911   7.667  0.3693 -1.4608 -0.0541
   26MOL   H145 9695   7.023   0.805   7.853 -0.5194  0.3491 -3.1804
   26MOL   H146 9696   7.152   0.655   7.983  0.2772  3.4327  2.6085
   26MOL   H147 9697   7.341   0.478   7.932  1.6836 -0.8880  2.8284
   26MOL   H148 9698   7.494   0.540   7.876 -0.7945 -2.0624  0.1912
   26MOL   H149 9699   7.426   0.586   8.035  1.7766 -0.1474  0.2060
   26MOL   H150 9700   7.491   0.757   7.720 -0.8123 -2.4151 -2.0929
   26MOL   H151 9701   7.367   0.914   7.616  0.8487  1.3748  1.7371
   26MOL   H152 9702   7.125   0.859   7.452  1.3000 -0.7127  1.3568
   26MOL   H153 9703   7.218   1.012   7.466  0.5012 -1.4613 -0.7033
   26MOL   C154 9704   7.022   1.022   7.391  0.4167  0.0476 -0.3672
   26MOL   C155 9705   6.876   0.991   7.417 -0.6746 -0.3388 -0.3007
   26MOL   C156 9706   6.833   0.867   7.456 -0.3517  0.0702 -0.3496
   26MOL   C157 9707   6.698   0.837   7.479  0.2417 -0.1234  0.1015
   26MOL   C158 9708   6.601   0.934   7.449 -0.2417 -0.2873  0.1447
   26MOL   C159 9709   6.447   0.904   7.462 -0.2838 -0.0874  0.1048
   26MOL   C160 9710   6.643   1.060   7.403 -0.5929 -0.3952 -1.0766
   26MOL   C161 9711   6.781   1.094   7.391  0.1021 -0.9262  0.3062
   26MOL   C162 9712   7.064   0.994   7.248 -0.3785  0.2986 -0.5938
   26MOL   H163 9713   7.031   1.129   7.414 -0.3819  0.3657 -1.5101
   26MOL   H164 9714   6.909   0.794   7.480  1.2293  1.6008 -0.6166
   26MOL   H165 9715   6.672   0.739   7.516  2.4538 -0.0619  1.9286
   26MOL   H166 9716   6.381   0.983   7.428  0.6922  0.6898  0.0003
   26MOL   H167 9717   6.417   0.810   7.414 -0.6368  0.2189 -0.2704
   26MOL   H168 9718   6.427   0.894   7.569 -1.2959  0.6398 -0.0112
   26MOL   H169 9719   6.566   1.132   7.378  1.1559  1.0058 -2.4939
   26MOL   H170 9720   6.805   1.193   7.355 -1.2676  0.3525  2.7656
   26MOL   H171 9721   6.976   1.004   7.184 -0.6274  2.2452  0.0137
   26MOL   H172 9722   7.094   0.891   7.227  2.2571  1.1640 -1.1614
   26MOL   C173 9723   7.174   1.085   7.185  0.1678  0.6067  0.7501
   26MOL   C174 9724   7.161   1.231   7.210 -0.3122  1.0589  0.6627
   26MOL   C175 9725   7.267   1.287   7.285 -1.0067  0.7253 -0.1674
   26MOL   C176 9726   7.265   1.430   7.307 -0.2297  0.0935 -0.2764
   26MOL   C177 9727   7.165   1.502   7.245 -0.0295  0.5136 -0.3717
   26MOL   C178 9728   7.177   1.649   7.258  0.0599  0.3256  0.1587
   26MOL   C179 9729   7.063   1.442   7.170  0.1735  0.2636  0.0740
   26MOL   C180 9730   7.056   1.306   7.154 -0.5965 -0.2801 -0.0517
   26MOL   C181 9731   7.207   1.066   7.037 -0.3935 -0.6235  0.0966
   26MOL   H182 9732   7.258   1.050   7.245 -1.1686  0.1307  2.3817
   26MOL   H183 9733   7.349   1.233   7.330  0.6130  3.1535 -0.1302
   26MOL   H184 9734   7.336   1.474   7.375 -0.6717 -1.0583  0.9671
   26MOL   H185 9735   7.126   1.679   7.350 -1.1587 -1.8944  0.2213
   26MOL   H186 9736   7.280   1.683   7.264  1.2017 -2.8627 -0.4789
   26MOL   H187 9737   7.125   1.697   7.175  0.9779 -1.2716 -1.3604
   26MOL   H188 9738   6.990   1.505   7.122 -1.3890  0.0419  2.0995
   26MOL   H189 9739   6.979   1.274   7.086  1.4857  0.6514 -2.9537
   26MOL   H190 9740   7.273   1.150   7.015  0.4174 -1.6077 -1.3003
   26MOL   H191 9741   7.117   1.079   6.976 -0.0529 -1.8190 -0.6645
   26MOL   C192 9742   7.272   0.933   6.988 -0.0527  0.3861  1.2223
   26MOL   C193 9743   7.372   0.875   7.088 -0.0047  0.2518  0.6518
   26MOL   C194 9744   7.478   0.957   7.127  0.9641  0.1501  0.0400
   26MOL   C195 9745   7.586   0.911   7.203 -0.7449  0.0059  0.0517
   26MOL   C196 9746   7.585   0.772   7.232  0.6634  0.1580 -0.4640
   26MOL   C197 9747   7.695   0.716   7.315  0.0928 -0.2179  0.0307
   26MOL   C198 9748   7.479   0.687   7.198  0.5624  0.1220  0.1713
   26MOL   C199 9749   7.374   0.741   7.130 -0.3828  0.7991 -0.2879
   26MOL   C200 9750   7.330   0.939   6.845 -0.6316 -0.4730  0.2895
   26MOL   H201 9751   7.196   0.854   6.989 -1.3350  1.5787  0.3895
   26MOL   H202 9752   7.487   1.060   7.095  1.2436  0.7051  1.8541
   26MOL   H203 9753   7.665   0.981   7.227 -0.7880 -0.3217  1.2012
   26MOL   H204 9754   7.731   0.623   7.271  0.3031 -0.3549  0.4966
   26MOL   H205 9755   7.784   0.780   7.321 -1.5828  2.1308  0.6339
   26MOL   H206 9756   7.649   0.704   7.413 -2.2292  2.0211 -0.7364
   26MOL   H207 9757   7.471   0.583   7.226 -0.4482  0.3389  0.7114
   26MOL   H208 9758   7.284   0.685   7.109  0.4621 -1.5035  1.9914
   26MOL   H209 9759   7.387   0.847   6.834 -1.9254 -1.5438  2.1327
   26MOL   H210 9760   7.403   1.018   6.831 -1.2837 -0.4007 -2.9658
   26MOL   C211 9761   7.217   0.947   6.740  0.0289 -0.2655  0.3488
   26MOL   C212 9762   7.185   0.815   6.666 -0.6070  0.2775 -0.2724
   26MOL   C213 9763   7.288   0.744   6.598  0.4984  0.0967  0.0811
   26MOL   C214 9764   7.259   0.617   6.535  0.5470  0.0872 -0.6051
   26MOL   C215 9765   7.125   0.566   6.542 -0.1892  0.1865  0.3342
   26MOL   C216 9766   7.104   0.425   6.491  0.4462 -0.2723  0.3920
   26MOL   C217 9767   7.024   0.639   6.603 -0.7934 -0.2238 -0.4606
   26MOL   C218 9768   7.055   0.761   6.663 -0.9338 -0.0418 -0.0840
   26MOL   C219 9769   7.246   1.063   6.646 -0.0231  0.0520 -0.4316
   26MOL   H220 9770   7.119   0.983   6.770 -0.5619 -0.5776 -1.1790
   26MOL   H221 9771   7.384   0.790   6.585  1.7610 -1.9102  1.8932
   26MOL   H222 9772   7.335   0.564   6.479 -0.0519 -1.3667 -0.0600
   26MOL   H223 9773   7.197   0.367   6.492  1.8331  1.8744  0.2833
   26MOL   H224 9774   7.041   0.369   6.560  2.3946 -3.0097  0.0575
   26MOL   H225 9775   7.056   0.433   6.394  2.1600  3.4482 -0.2366
   26MOL   H226 9776   6.923   0.601   6.597 -0.2905 -2.0464  1.8707
   26MOL   H227 9777   6.975   0.820   6.706 -0.1577  0.0585  1.2191
   26MOL   H228 9778   7.220   1.034   6.544  0.9635  1.4108 -1.0848
   26MOL   H229 9779   7.353   1.076   6.630  0.3576 -0.0847  1.8336
   26MOL   C230 9780   7.176   1.207   6.667  0.5570 -0.1339 -0.0330
   26MOL   C231 9781   7.024   1.220   6.664  0.8033 -0.2518  0.4824
   26MOL   C232 9782   6.954   1.134   6.580  0.1264  0.2781  0.4212
   26MOL   C233 9783   6.812   1.146   6.571 -0.3324  0.1043  0.0286
   26MOL   C234 9784   6.749   1.250   6.645  0.1901  0.3995  0.2054
   26MOL   C235 9785   6.594   1.257   6.650 -0.3057  0.6877  0.1696
   26MOL   C236 9786   6.821   1.339   6.730 -0.4267  0.1880  0.0461
   26MOL   C237 9787   6.959   1.326   6.733 -0.0718  0.2840  0.8092
   26MOL   C238 9788   7.223   1.312   6.563  0.3687  0.4553 -0.0709
   26MOL   H239 9789   7.209   1.250   6.762 -0.7905 -0.3151  0.5283
   26MOL   H240 9790   7.008   1.055   6.530 -0.0638  0.3806  0.0501
   26MOL   H241 9791   6.752   1.077   6.513  0.4202 -0.3802 -0.1714
   26MOL   H242 9792   6.561   1.223   6.748 -0.9711  3.3399  0.9008
   26MOL   H243 9793   6.551   1.356   6.642  0.0694  0.9521  1.3293
   26MOL   H244 9794   6.548   1.187   6.580  0.8583 -0.5179  0.5986
   26MOL   H245 9795   6.769   1.403   6.801 -0.8017 -2.0734  1.8616
   26MOL   H246 9796   7.018   1.395   6.792 -1.2559  1.2380  0.9048
   26MOL   H247 9797   7.156   1.397   6.576 -1.2877 -0.8812  0.2730
   26MOL   H248 9798   7.189   1.278   6.465 -0.3915  0.7788  0.0793
   26MOL   C249 9799   7.362   1.368   6.547  0.1392  0.0205 -0.9365
   26MOL   C250 9800   7.399   1.431   6.681  0.0246 -0.2537  0.2916
   26MOL   C251 9801   7.521   1.397   6.737 -0.1374  0.4931  0.9983
   26MOL   C252 9802   7.564   1.426   6.869 -0.3369  0.1231 -0.1975
   26MOL   C253 9803   7.488   1.517   6.938 -0.3022  0.1986 -0.0536
   26MOL   C254 9804   7.540   1.560   7.074 -0.4296  0.3837  0.4503
   26MOL   C255 9805   7.360   1.556   6.889 -0.0740 -0.0194 -0.9378
   26MOL   C256 9806   7.318   1.514   6.763 -0.6872  0.5952 -0.3079
   26MOL   C257 9807   7.376   1.455   6.418  0.2143  0.1068  0.7232
   26MOL   H258 9808   7.424   1.279   6.547  1.1894  0.7408 -0.2751
   26MOL   H259 9809   7.596   1.334   6.693  0.4119  1.4045  0.6197
   26MOL   H260 9810   7.657   1.378   6.899  1.1910  2.5688 -0.8327
   26MOL   H261 9811   7.542   1.478   7.146  0.6864  1.3840  1.5686
   26MOL   H262 9812   7.642   1.595   7.066 -0.4095 -0.1840 -2.3200
   26MOL   H263 9813   7.479   1.634   7.125  0.8957  1.5250  0.4035
   26MOL   H264 9814   7.299   1.621   6.949  1.4433  0.1700  0.4029
   26MOL   H265 9815   7.223   1.555   6.735 -1.7063 -0.5402  1.3909
   26MOL   H266 9816   7.432   1.545   6.438 -0.9796  0.8810  0.6612
   26MOL   H267 9817   7.275   1.492   6.399  1.1998  1.9433 -1.1152
   26MOL   C268 9818   7.433   1.393   6.292 -0.0918  0.7759 -0.5546
   26MOL   C269 9819   7.371   1.263   6.259 -0.5586 -0.2698  0.0286
   26MOL   C270 9820   7.429   1.144   6.312  0.0652 -0.1211  0.7615
   26MOL   C271 9821   7.369   1.015   6.291  0.0562 -0.1280 -0.3886
   26MOL   C272 9822   7.242   1.015   6.228 -0.7231  0.6786  0.5679
   26MOL   C273 9823   7.167   0.883   6.221  0.3564 -0.8612 -0.3606
   26MOL   C274 9824   7.193   1.133   6.169 -0.4629  0.1119  0.3415
   26MOL   C275 9825   7.250   1.260   6.182 -0.3014  0.2784 -0.0400
   26MOL   C276 9826   7.593   1.383   6.305 -0.1391  0.4685 -0.3108
   26MOL   H277 9827   7.423   1.464   6.210 -0.9377  0.6712 -0.5442
   26MOL   H278 9828   7.518   1.147   6.374 -0.3836 -0.4871  1.4246
   26MOL   H279 9829   7.416   0.931   6.340 -0.8540 -0.2191  0.3284
   26MOL   H280 9830   7.071   0.886   6.171 -0.3463  0.3956  1.0384
   26MOL   H281 9831   7.228   0.817   6.159 -0.6237 -0.5427 -1.6924
   26MOL   H282 9832   7.162   0.847   6.323  0.9752 -1.5292 -0.5559
   26MOL   H283 9833   7.106   1.115   6.108  0.0306 -2.4742  0.3557
   26MOL   H284 9834   7.205   1.349   6.141  1.1350  1.1416  0.2404
   26MOL   H285 9835   7.606   1.337   6.403 -0.7969 -0.6720 -0.7535
   26MOL   H286 9836   7.639   1.479   6.328  2.5097 -0.7496 -0.2820
   26MOL   C287 9837   7.670   1.303   6.200 -0.1933 -0.0160 -0.1519
   26MOL   C288 9838   7.812   1.286   6.250 -0.4565 -0.1309 -0.6891
   26MOL   C289 9839   7.903   1.389   6.233 -0.5956  0.6777 -0.2961
   26MOL   C290 9840   8.039   1.372   6.271 -0.3204 -0.5542  0.6086
   26MOL   C291 9841   8.080   1.251   6.330  0.4706  0.8680  0.3980
   26MOL   C292 9842   0.146   1.233   6.365 -0.7054  0.0798 -0.7023
   26MOL   C293 9843   7.988   1.151   6.359  0.6986  0.3968  0.5428
   26MOL   C294 9844   7.851   1.169   6.328 -0.4343 -1.2921  0.1832
   26MOL   C295 9845   7.656   1.352   6.059  0.9058 -0.5749  0.3566
   26MOL   H296 9846   7.627   1.203   6.193 -0.5960  0.0318  1.4563
   26MOL   H297 9847   7.864   1.479   6.188  0.6917  0.9843 -0.8419
   26MOL   H298 9848   0.029   1.449   6.243 -0.8960 -0.1195  0.3477
   26MOL   H299 9849   0.197   1.196   6.276 -0.5769  1.9351 -1.4068
   26MOL   H300 9850   0.202   1.320   6.399  1.3257 -0.5255 -2.3956
   26MOL   H301 9851   0.148   1.150   6.435  1.0022  0.5347 -0.1854
   26MOL   H302 9852   8.024   1.063   6.411 -5.8370 -2.4823  0.5859
   26MOL   H303 9853   7.785   1.088   6.354  0.3524 -2.7039 -2.0456
   26MOL   H304 9854   7.687   1.457   6.050  0.8707 -0.7132 -1.7222
   26MOL   H305 9855   7.552   1.353   6.028  1.1096  0.2166 -0.3288
   26MOL   C306 9856   7.758   1.297   5.946 -0.6392  0.0392 -0.1764
   26MOL   C307 9857   7.759   1.399   5.830 -0.4229  0.3518  0.0849
   26MOL   C308 9858   7.676   1.380   5.717  0.1778 -0.2694  0.2888
   26MOL   C309 9859   7.687   1.465   5.602 -0.0967 -0.4666  0.0382
   26MOL   C310 9860   7.786   1.567   5.600 -0.1145 -0.2941  0.1279
   26MOL   C311 9861   7.823   1.648   5.469  0.1273  0.3355 -0.7241
   26MOL   C312 9862   7.860   1.587   5.717  0.5426 -0.7219 -0.3752
   26MOL   C313 9863   7.849   1.505   5.831  0.3027 -0.4007 -0.5692
   26MOL   C314 9864   7.720   1.155   5.895  0.7827 -0.2594  0.1913
   26MOL   H315 9865   7.859   1.291   5.986 -1.9083 -2.6476  2.8888
   26MOL   H316 9866   7.606   1.297   5.716 -1.1068  0.7779  1.0696
   26MOL   H317 9867   7.634   1.443   5.510 -2.1566  0.2173  1.0146
   26MOL   H318 9868   7.930   1.667   5.467  0.1154  0.7133  1.1029
   26MOL   H319 9869   7.793   1.581   5.389  0.5989 -0.9566  0.1635
   26MOL   H320 9870   7.771   1.743   5.459 -0.3747  0.5670  3.1507
   26MOL   H321 9871   7.938   1.663   5.714 -1.9210  1.9462  0.6296
   26MOL   H322 9872   7.914   1.515   5.917  0.9235  1.4694 -1.2169
   26MOL   H323 9873   7.729   1.138   5.788  3.7853  0.2855  0.3183
   26MOL   H324 9874   7.615   1.137   5.920  0.2449  1.4110 -0.7662
   26MOL   C325 9875   7.794   1.041   5.963 -0.7235 -0.4594 -0.0133
   26MOL   C326 9876   7.927   1.014   5.906  0.1997  0.5441  0.0201
   26MOL   C327 9877   8.043   1.048   5.978  0.4631  0.0776 -0.1865
   26MOL   C328 9878   0.089   1.035   5.917 -0.0926  0.1543  0.3883
   26MOL   C329 9879   0.096   0.993   5.779 -0.2937  0.6993 -0.3005
   26MOL   C330 9880   0.225   0.959   5.708 -0.4682  0.1663 -0.6810
   26MOL   C331 9881   8.061   0.975   5.706  0.6660  0.1811  0.0062
   26MOL   C332 9882   7.936   0.978   5.773  0.3316 -0.4390 -0.5163
   26MOL   C333 9883   7.708   0.914   5.974  0.3387 -0.3381  0.5738
   26MOL   H334 9884   7.817   1.064   6.067 -3.1039 -0.3865  0.5364
   26MOL   H335 9885   8.042   1.092   6.076  1.5601 -0.9936  0.3241
   26MOL   H336 9886   0.181   1.061   5.966  1.6229 -2.2890 -1.4307
   26MOL   H337 9887   0.302   0.951   5.785 -0.7387 -1.4407 -0.5631
   26MOL   H338 9888   0.216   0.866   5.652  0.8830  0.8374 -2.0650
   26MOL   H339 9889   0.256   1.039   5.641  1.1677 -0.3581 -0.5722
   26MOL   H340 9890   8.058   0.961   5.599 -1.8325 -2.5652  0.3611
   26MOL   H341 9891   7.847   0.962   5.714  0.7364  0.0168 -1.2640
   26MOL   H342 9892   7.680   0.893   5.871 -0.0996 -0.3882  0.7040
   26MOL   H343 9893   7.621   0.955   6.024  1.4728  2.1997  0.5521
   26MOL   C344 9894   7.754   0.790   6.058 -0.5674 -0.4264 -0.0554
   26MOL   C345 9895   7.669   0.670   6.027 -0.0429 -0.5904 -0.3747
   26MOL   C346 9896   7.710   0.570   5.936  1.2531 -0.0653 -0.5966
   26MOL   C347 9897   7.630   0.459   5.911  0.1020 -0.1863  0.2130
   26MOL   C348 9898   7.501   0.451   5.970  0.0823 -0.5495  0.8731
   26MOL   C349 9899   7.407   0.335   5.953  0.5054  0.4267  0.5966
   26MOL   C350 9900   7.463   0.551   6.065  0.9928 -0.4440  0.1327
   26MOL   C351 9901   7.550   0.656   6.094 -0.0507 -0.0591  0.1247
   26MOL   C352 9902   7.762   0.827   6.207  0.4561  0.7197  0.1726
   26MOL   H353 9903   7.851   0.756   6.022 -0.1475  0.2691  0.3964
   26MOL   H354 9904   7.806   0.573   5.886  2.6596  0.3303  2.0147
   26MOL   H355 9905   7.675   0.393   5.839  2.1216  0.4836  0.7903
   26MOL   H356 9906   7.347   0.352   5.863  2.0562  1.6398 -0.2236
   26MOL   H357 9907   7.462   0.241   5.952  1.9870  1.2919  0.8524
   26MOL   H358 9908   7.347   0.317   6.042 -0.0929  0.3029  0.1746
   26MOL   H359 9909   7.362   0.551   6.105  0.8166  0.1868 -0.2917
   26MOL   H360 9910   7.519   0.717   6.178  0.4779  0.4516 -0.0469
   26MOL   H361 9911   7.663   0.860   6.238 -1.0782 -1.6675 -1.8957
   26MOL   H362 9912   7.834   0.907   6.225 -1.7604  2.2892  2.3754
   26MOL   C363 9913   7.789   0.708   6.308  0.2535 -0.5009  0.2080
   26MOL   C364 9914   7.758   0.747   6.456  0.1617  0.0340 -0.1918
   26MOL   C365 9915   7.667   0.673   6.526 -0.7397 -0.7485 -0.1916
   26MOL   C366 9916   7.658   0.697   6.664  0.4102 -0.5351  0.6243
   26MOL   C367 9917   7.727   0.806   6.728  0.1112  0.0233 -0.0353
   26MOL   C368 9918   7.706   0.835   6.877  0.5354 -0.3161 -0.3027
   26MOL   C369 9919   7.815   0.882   6.651  0.7667 -0.3432 -0.0045
   26MOL   C370 9920   7.836   0.852   6.514  0.5413  0.0513  0.1982
   26MOL   C371 9921   7.926   0.632   6.299  0.5629  0.5373  0.4929
   26MOL   H372 9922   7.714   0.630   6.292 -0.9268  0.6115  0.2319
   26MOL   H373 9923   7.604   0.598   6.479  0.4662  0.9985 -4.8950
   26MOL   H374 9924   7.585   0.656   6.732  1.1927  0.2564  1.9589
   26MOL   H375 9925   7.608   0.803   6.912 -0.4610  1.7306 -1.1245
   26MOL   H376 9926   7.788   0.798   6.938  1.8801  0.3438 -1.6886
   26MOL   H377 9927   7.693   0.943   6.886 -1.8095 -0.7550  2.4238
   26MOL   H378 9928   7.871   0.961   6.700  1.3712 -0.3191 -0.7313
   26MOL   H379 9929   7.907   0.904   6.451  0.9252 -0.5624  0.1119
   26MOL   H380 9930   7.942   0.593   6.199 -1.8495 -1.2410  0.7560
   26MOL   H381 9931   7.921   0.552   6.372 -0.5314  0.1483  0.0082
   26MOL   H382 9932   8.008   0.697   6.328 -0.9280  3.2748 -1.1917
   27MOL     C1 9933   1.827   6.845   3.911 -0.5159 -0.6136  0.4327
   27MOL     C2 9934   1.794   6.991   3.937  0.0275  0.0976 -0.0563
   27MOL     C3 9935   1.856   7.065   4.040 -0.6151 -0.2426 -0.0698
   27MOL     C4 9936   1.835   7.201   4.059  0.4428  0.1536 -0.1627
   27MOL     C5 9937   1.734   7.261   3.986  0.4534  0.6263 -0.0372
   27MOL     C6 9938   1.681   7.396   4.023  0.2836  0.7842 -0.5702
   27MOL     C7 9939   1.675   7.194   3.878  0.1804  0.8144  0.2349
   27MOL     C8 9940   1.715   7.061   3.843 -0.1760 -0.0147  0.2544
   27MOL     C9 9941   1.862   6.774   4.036  0.0407 -0.3251 -0.0588
   27MOL    H10 9942   1.739   6.796   3.868 -0.3809  0.2031 -0.7812
   27MOL    H11 9943   1.924   7.014   4.107  0.5733 -0.8995 -1.7651
   27MOL    H12 9944   1.870   7.259   4.143 -3.4200  4.4490 -1.3022
   27MOL    H13 9945   1.606   7.398   4.102  1.5261  1.6875  0.5906
   27MOL    H14 9946   1.768   7.452   4.057  0.2018 -0.4670  1.8054
   27MOL    H15 9947   1.647   7.457   3.939 -1.0803  0.2333 -0.4325
   27MOL    H16 9948   1.600   7.240   3.816 -0.2294 -0.8854 -0.5458
   27MOL    H17 9949   1.676   7.007   3.758 -3.3658  0.6752  1.1952
   27MOL    H18 9950   1.804   6.803   4.124 -0.5984 -2.6672  0.3229
   27MOL    H19 9951   1.962   6.805   4.066 -0.7803  1.5709  0.8163
   27MOL    H20 9952   1.906   6.834   3.837  0.3310 -0.2432  1.2727
   27MOL    C21 9953   1.860   6.625   4.021 -0.2535 -1.3808 -0.4117
   27MOL    C22 9954   1.724   6.571   3.993  0.5884 -0.3253 -0.0311
   27MOL    C23 9955   1.701   6.502   3.874 -0.3901  0.6523 -0.0382
   27MOL    C24 9956   1.577   6.452   3.834  0.0659 -0.3280 -0.4296
   27MOL    C25 9957   1.468   6.475   3.915 -0.5744  0.2038  0.2555
   27MOL    C26 9958   1.339   6.407   3.870  0.3798 -0.6633 -0.6575
   27MOL    C27 9959   1.482   6.544   4.039 -0.7601 -0.3990  0.1141
   27MOL    C28 9960   1.614   6.586   4.078  0.1140 -0.2149 -0.1671
   27MOL    C29 9961   1.920   6.542   4.137 -0.1559 -0.4158  0.2280
   27MOL    H30 9962   1.927   6.605   3.937  2.1573  2.5081  0.4523
   27MOL    H31 9963   1.779   6.480   3.803 -0.9395  0.0186 -0.4556
   27MOL    H32 9964   1.563   6.395   3.743  1.9530  0.0904 -0.9964
   27MOL    H33 9965   1.347   6.338   3.786  1.2642  0.0135 -1.1347
   27MOL    H34 9966   1.282   6.355   3.947 -1.4463  1.4091 -0.5463
   27MOL    H35 9967   1.279   6.494   3.842  1.9752  0.3232 -1.0542
   27MOL    H36 9968   1.397   6.555   4.105 -0.9095  0.4622 -0.2135
   27MOL    H37 9969   1.621   6.635   4.174  1.4892  1.0257 -0.8737
   27MOL    H38 9970   1.887   6.440   4.122  1.6338 -0.9334 -0.3798
   27MOL    H39 9971   1.885   6.565   4.238 -0.7909 -1.6994  0.3080
   27MOL    C40 9972   2.076   6.519   4.126 -0.1858 -0.2215 -0.3907
   27MOL    C41 9973   2.128   6.468   3.992  0.3267 -0.4472  0.0328
   27MOL    C42 9974   2.246   6.521   3.932 -0.0745 -0.0277  0.3626
   27MOL    C43 9975   2.282   6.489   3.799  0.0197  0.2194  0.0014
   27MOL    C44 9976   2.209   6.392   3.728  0.1212 -1.0150  0.0773
   27MOL    C45 9977   2.249   6.363   3.589  0.4146  0.1121 -0.1205
   27MOL    C46 9978   2.098   6.330   3.788  0.2222  0.1469 -0.7383
   27MOL    C47 9979   2.063   6.362   3.920  0.4250 -0.0539  0.3364
   27MOL    C48 9980   2.132   6.428   4.237 -0.3657  0.4344  0.3709
   27MOL    H49 9981   2.120   6.616   4.145  1.0197 -0.3801 -2.2864
   27MOL    H50 9982   2.302   6.602   3.975 -1.2079  0.5411  0.8157
   27MOL    H51 9983   2.367   6.541   3.759  0.7655  0.5271  1.9545
   27MOL    H52 9984   2.353   6.391   3.570  0.0547  2.8286  1.6745
   27MOL    H53 9985   2.231   6.257   3.573 -2.5248  0.2403  2.0305
   27MOL    H54 9986   2.181   6.406   3.516 -1.5481  0.0095  1.6025
   27MOL    H55 9987   2.045   6.258   3.727  0.4731  0.2119 -1.0379
   27MOL    H56 9988   1.979   6.313   3.969  0.7082 -1.2341 -0.3557
   27MOL    H57 9989   2.223   6.392   4.190 -0.0290  3.1444 -1.1101
   27MOL    H58 9990   2.058   6.347   4.243  0.9616 -0.7186  1.4693
   27MOL    C59 9991   2.155   6.486   4.379 -0.6803  0.0673 -1.1145
   27MOL    C60 9992   2.249   6.608   4.372  0.0097  0.4160  0.2809
   27MOL    C61 9993   2.371   6.595   4.300  0.2701 -0.5315  0.0102
   27MOL    C62 9994   2.465   6.698   4.296 -0.4272  0.1051 -0.1681
   27MOL    C63 9995   2.448   6.808   4.374 -0.1586  0.1988  0.4231
   27MOL    C64 9996   2.537   6.933   4.368 -0.4731 -0.2932  0.2134
   27MOL    C65 9997   2.339   6.819   4.459  0.0131 -1.0192  0.4578
   27MOL    C66 9998   2.246   6.711   4.462  1.2232  0.3015 -0.0596
   27MOL    C67 9999   2.204   6.383   4.480 -0.2608 -0.2788 -0.4907
   27MOL    H6810000   2.064   6.527   4.422  1.6066  2.9737  1.1926
   27MOL    H6910001   2.376   6.503   4.243 -2.1498  0.5593 -2.0727
   27MOL    H7010002   2.557   6.681   4.242 -1.0517 -1.1836 -0.8267
   27MOL    H7110003   2.476   7.022   4.383  0.7087  0.8754 -1.7996
   27MOL    H7210004   2.597   6.928   4.460 -0.4987 -0.0603  0.2422
   27MOL    H7310005   2.584   6.936   4.270 -2.0265 -1.2976 -0.5900
   27MOL    H7410006   2.325   6.906   4.521 -0.3346 -1.0263  0.3896
   27MOL    H7510007   2.164   6.707   4.532  1.6783 -0.7703  0.4160
   27MOL    H7610008   2.252   6.433   4.564  0.9262 -0.9240 -0.7617
   27MOL    H7710009   2.283   6.331   4.425 -0.4575 -1.7452  0.5766
   27MOL    C7810010   2.096   6.279   4.538 -0.5422 -0.2774 -0.2036
   27MOL    C7910011   1.993   6.342   4.623  0.8693  0.2940 -0.0767
   27MOL    C8010012   1.853   6.315   4.598  0.5873  0.4820 -0.5795
   27MOL    C8110013   1.753   6.374   4.682 -0.2394 -0.1231  1.0971
   27MOL    C8210014   1.790   6.456   4.789  0.3306  0.2915  0.5793
   27MOL    C8310015   1.680   6.508   4.879 -0.2345  0.1688 -0.6136
   27MOL    C8410016   1.927   6.483   4.810  0.0299 -0.3962 -0.1615
   27MOL    C8510017   2.025   6.433   4.727 -0.5344  0.2425 -0.2423
   27MOL    C8610018   2.173   6.159   4.609  0.3062  0.2281  0.1974
   27MOL    H8710019   2.034   6.235   4.459  0.5959  0.4556 -1.5357
   27MOL    H8810020   1.831   6.236   4.527  2.7821 -0.7089  0.0128
   27MOL    H8910021   1.649   6.350   4.665  0.1053 -2.3155  1.7884
   27MOL    H9010022   1.701   6.595   4.942 -2.7210  0.5403 -0.2410
   27MOL    H9110023   1.601   6.544   4.813 -0.3449 -0.2545 -0.7124
   27MOL    H9210024   1.631   6.436   4.944  2.0933 -0.4347  0.5649
   27MOL    H9310025   1.959   6.551   4.888  0.3521  1.6949 -2.0574
   27MOL    H9410026   2.127   6.457   4.751 -0.2173 -2.2558  1.0287
   27MOL    H9510027   2.137   6.134   4.709  3.1883  0.0730  1.2406
   27MOL    H9610028   2.274   6.195   4.628 -0.4778  1.9179  1.2739
   27MOL    C9710029   2.165   6.026   4.525 -0.2636  0.0155 -0.2973
   27MOL    C9810030   2.207   6.050   4.380 -0.2988  1.3917 -0.6936
   27MOL    C9910031   2.345   6.071   4.363  0.1973 -0.4108  0.0605
   27MOL   C10010032   2.389   6.097   4.235 -0.3048 -0.5570 -0.1161
   27MOL   C10110033   2.303   6.107   4.127  0.6613 -0.7305 -0.7321
   27MOL   C10210034   2.359   6.141   3.988  0.5095 -0.0680 -0.3082
   27MOL   C10310035   2.168   6.074   4.145  0.8886 -0.1750 -0.5331
   27MOL   C10410036   2.118   6.046   4.273 -0.0323 -0.2232  0.0375
   27MOL   C10510037   2.031   5.948   4.539 -0.6354  0.4159 -0.5349
   27MOL   H10610038   2.239   5.953   4.558  0.8417  1.2290 -0.0595
   27MOL   H10710039   2.408   6.069   4.450  1.3371 -0.3107 -0.7639
   27MOL   H10810040   2.496   6.108   4.227 -0.3258 -0.0290  0.2630
   27MOL   H10910041   2.414   6.235   3.995  2.1519 -1.1495  1.6452
   27MOL   H11010042   2.437   6.072   3.956  0.7478 -0.2215  0.5993
   27MOL   H11110043   2.277   6.147   3.916 -2.7788  0.8111  3.3000
   27MOL   H11210044   2.104   6.064   4.058 -0.1386 -1.8298  0.3902
   27MOL   H11310045   2.013   6.025   4.285 -0.2637  2.2326  3.0853
   27MOL   H11410046   1.951   5.999   4.486 -1.4212 -0.0507  0.1825
   27MOL   H11510047   1.990   5.957   4.640  1.0823 -0.7357  0.2995
   27MOL   C11610048   2.035   5.793   4.515 -0.0425 -0.2695 -0.0834
   27MOL   C11710049   1.905   5.725   4.458  0.7420 -0.7618  0.2125
   27MOL   C11810050   1.789   5.713   4.537 -0.0895 -0.0127  0.2644
   27MOL   C11910051   1.671   5.663   4.479 -0.0188  0.0022 -0.7416
   27MOL   C12010052   1.669   5.619   4.341  0.3310  0.0070  0.9378
   27MOL   C12110053   1.549   5.571   4.267  0.0310  0.2346 -0.1112
   27MOL   C12210054   1.789   5.625   4.273  0.4324 -0.6312 -0.5235
   27MOL   C12310055   1.901   5.685   4.328 -0.0069  0.2231 -0.0643
   27MOL   C12410056   2.081   5.717   4.645 -0.1808 -0.5782  0.2979
   27MOL   H12510057   2.109   5.786   4.435 -0.4335 -0.4760 -0.4279
   27MOL   H12610058   1.777   5.734   4.642  1.7442  0.1923  0.4388
   27MOL   H12710059   1.577   5.658   4.532  0.7465  2.1394  0.8694
   27MOL   H12810060   1.464   5.572   4.335  0.0635  1.0023 -0.0798
   27MOL   H12910061   1.526   5.628   4.177  0.3823 -0.8282 -0.8900
   27MOL   H13010062   1.558   5.466   4.240 -0.0473 -0.6017  3.0073
   27MOL   H13110063   1.790   5.587   4.171  1.2877 -0.7406 -0.4810
   27MOL   H13210064   1.990   5.684   4.267 -1.5812  1.1787 -2.4678
   27MOL   H13310065   1.998   5.691   4.711 -0.1250 -2.3774 -0.3192
   27MOL   H13410066   2.154   5.774   4.702  0.8511  1.0902 -2.5709
   27MOL   C13510067   2.154   5.584   4.611 -0.2675  0.5366  0.1146
   27MOL   C13610068   2.107   5.462   4.694  0.7730 -0.6454  0.2871
   27MOL   C13710069   2.042   5.353   4.630 -0.1131 -0.5019  0.3326
   27MOL   C13810070   2.016   5.238   4.709  0.4667 -0.4435 -0.3943
   27MOL   C13910071   2.035   5.236   4.850 -0.5371 -0.9627  0.1475
   27MOL   C14010072   1.999   5.115   4.923 -0.7256  0.8185  0.1941
   27MOL   C14110073   2.091   5.350   4.916 -0.1006 -0.0462 -0.2347
   27MOL   C14210074   2.130   5.461   4.834  0.3122 -0.2681  0.4401
   27MOL   C14310075   2.309   5.605   4.606  0.0979  0.0792 -0.0831
   27MOL   H14410076   2.125   5.553   4.511  0.1016 -0.1300  0.2079
   27MOL   H14510077   2.036   5.356   4.522  2.0731  1.9486  0.2173
   27MOL   H14610078   1.984   5.151   4.654 -1.0279 -0.2023  0.0589
   27MOL   H14710079   1.893   5.090   4.922 -0.5940  0.2631 -1.2760
   27MOL   H14810080   2.052   5.034   4.872  0.1874  1.1595  0.6037
   27MOL   H14910081   2.039   5.108   5.024  0.2907  1.3002 -0.1705
   27MOL   H15010082   2.125   5.348   5.019 -1.5449  0.0235  0.2609
   27MOL   H15110083   2.187   5.539   4.882 -0.9853  1.0932 -0.1969
   27MOL   H15210084   2.353   5.598   4.705  0.4888 -0.6718 -0.3024
   27MOL   H15310085   2.318   5.705   4.565  0.7618  1.7578  3.9883
   27MOL   C15410086   2.386   5.496   4.513 -0.2382 -0.1069 -0.7979
   27MOL   C15510087   2.390   5.357   4.567 -0.0442  0.1887 -0.2732
   27MOL   C15610088   2.424   5.347   4.703 -1.3908 -0.2867  0.4086
   27MOL   C15710089   2.427   5.213   4.751 -0.5171 -0.1273 -0.7646
   27MOL   C15810090   2.404   5.100   4.662 -0.0651  0.0697  0.8783
   27MOL   C15910091   2.414   4.961   4.714  0.5014 -0.0547  0.1162
   27MOL   C16010092   2.389   5.119   4.526 -0.2088  0.2610  0.6262
   27MOL   C16110093   2.379   5.252   4.479 -0.3606 -0.3651  0.3585
   27MOL   C16210094   2.529   5.545   4.473  0.8148  1.1736  0.7892
   27MOL   H16310095   2.339   5.490   4.415  2.1349 -0.1789 -1.9620
   27MOL   H16410096   2.437   5.422   4.780 -1.1794  0.9288 -0.7948
   27MOL   H16510097   2.436   5.198   4.857  1.6854 -2.4138 -1.2123
   27MOL   H16610098   2.513   4.916   4.702 -1.2711 -3.8321 -1.1360
   27MOL   H16710099   2.376   4.955   4.815  0.3314  2.3296  0.2259
   27MOL   H16810100   2.349   4.904   4.648  1.0114  0.4469 -0.8433
   27MOL   H16910101   2.383   5.034   4.459  0.4311  1.2394 -0.6792
   27MOL   H17010102   2.364   5.266   4.373  1.1731  0.4085  0.2300
   27MOL   H17110103   2.585   5.461   4.433  0.4151  0.5577  1.5189
   27MOL   H17210104   2.581   5.563   4.567  1.0169  1.3981  0.6353
   27MOL   C17310105   2.537   5.665   4.380 -0.2327 -0.1975  0.3772
   27MOL   C17410106   2.474   5.635   4.243 -0.3100  0.0654  0.2263
   27MOL   C17510107   2.396   5.743   4.193  0.2805  0.3729  0.4537
   27MOL   C17610108   2.333   5.720   4.068  0.0677 -0.3367 -0.4732
   27MOL   C17710109   2.340   5.595   4.001 -0.1237 -0.3908 -0.8225
   27MOL   C17810110   2.272   5.579   3.870  0.0195  0.8047 -0.5913
   27MOL   C17910111   2.412   5.489   4.063  0.0979 -0.0048  0.0644
   27MOL   C18010112   2.482   5.511   4.182  0.6037 -0.5491 -0.0939
   27MOL   C18110113   2.688   5.700   4.367  0.3960  0.1966 -0.9097
   27MOL   H18210114   2.484   5.750   4.424  0.4882  0.2553  0.3769
   27MOL   H18310115   2.373   5.834   4.245 -0.3036  2.0703 -2.6744
   27MOL   H18410116   2.263   5.793   4.030  0.1035  0.6401  1.2754
   27MOL   H18510117   2.330   5.636   3.798  1.4425 -0.2526 -0.3072
   27MOL   H18610118   2.263   5.474   3.844  1.4561  1.0207 -2.0899
   27MOL   H18710119   2.171   5.619   3.877  0.9406  3.2112 -0.4127
   27MOL   H18810120   2.432   5.396   4.011  1.6905  0.7450 -0.7019
   27MOL   H18910121   2.529   5.428   4.231 -1.0337 -1.9597 -0.8617
   27MOL   H19010122   2.689   5.766   4.280  3.1973 -0.5481 -1.4702
   27MOL   H19110123   2.737   5.606   4.344 -0.5840 -0.8552  1.2224
   27MOL   C19210124   2.765   5.768   4.480  0.5843  0.7542  0.0994
   27MOL   C19310125   2.733   5.913   4.499  0.0506  0.2197 -0.7806
   27MOL   C19410126   2.646   5.949   4.606  0.2629 -0.2183 -0.5521
   27MOL   C19510127   2.606   6.087   4.618 -0.0769 -0.3184  0.1392
   27MOL   C19610128   2.648   6.185   4.522 -0.4926  0.3482  0.3409
   27MOL   C19710129   2.583   6.319   4.536 -0.0299  0.3369  0.6123
   27MOL   C19810130   2.737   6.146   4.419 -0.1018 -0.2026 -0.7517
   27MOL   C19910131   2.782   6.013   4.409  0.8756  0.3610 -0.0637
   27MOL   C20010132   2.915   5.730   4.482  0.3710 -0.1781 -0.0003
   27MOL   H20110133   2.724   5.728   4.573 -0.2554  0.5686 -0.3473
   27MOL   H20210134   2.606   5.880   4.678  1.7433 -0.7404 -0.2015
   27MOL   H20310135   2.529   6.120   4.686 -0.7190 -2.2184  0.3527
   27MOL   H20410136   2.596   6.366   4.439  1.4022  0.3010  0.7672
   27MOL   H20510137   2.476   6.308   4.552  0.0457  0.8928  1.5389
   27MOL   H20610138   2.625   6.386   4.612 -0.4131  0.5993  0.5908
   27MOL   H20710139   2.769   6.219   4.346 -1.4951  0.5949 -0.5809
   27MOL   H20810140   2.838   5.980   4.322 -0.4759 -0.8727 -0.4851
   27MOL   H20910141   2.964   5.813   4.534 -1.9931  0.6011  1.0683
   27MOL   H21010142   2.953   5.728   4.380  0.6599  0.2642  0.0970
   27MOL   C21110143   2.957   5.592   4.538 -0.4359 -1.0824  0.5052
   27MOL   C21210144   2.969   5.591   4.687  0.4477  0.0147 -0.9019
   27MOL   C21310145   3.086   5.631   4.760  0.0677 -0.0559  0.1759
   27MOL   C21410146   3.081   5.628   4.900  0.2386 -0.2731 -0.2245
   27MOL   C21510147   2.970   5.577   4.970  0.0559 -0.1205 -0.4697
   27MOL   C21610148   2.970   5.553   5.118  0.7903 -0.7705 -0.9144
   27MOL   C21710149   2.850   5.547   4.899  0.0544  0.1054 -0.1056
   27MOL   C21810150   2.853   5.554   4.762 -0.4780 -0.2329  0.3025
   27MOL   C21910151   3.071   5.515   4.464  0.6450 -0.4462  0.2341
   27MOL   H22010152   2.863   5.538   4.524 -0.7635 -0.2392 -0.6050
   27MOL   H22110153   3.182   5.640   4.710 -2.5824  1.8465 -4.8653
   27MOL   H22210154   3.161   5.651   4.967 -2.1958  2.9872  1.6855
   27MOL   H22310155   2.991   5.447   5.131  0.4681 -0.6799  0.4908
   27MOL   H22410156   3.054   5.604   5.164 -0.1685  0.0190  0.0077
   27MOL   H22510157   2.878   5.589   5.166  1.9721  1.4420 -0.2351
   27MOL   H22610158   2.766   5.503   4.952  0.6965 -0.1734  0.6865
   27MOL   H22710159   2.766   5.516   4.711  0.4260  0.4358 -1.8127
   27MOL   H22810160   3.144   5.460   4.524  1.6834 -0.8639 -1.3666
   27MOL   H22910161   3.141   5.592   4.430 -0.1510  0.1166 -0.1381
   27MOL   C23010162   3.022   5.416   4.347 -0.3280 -0.6867 -0.3123
   27MOL   C23110163   2.956   5.296   4.405  0.0657 -0.3308 -0.0413
   27MOL   C23210164   3.030   5.210   4.492  0.6644 -0.0569 -0.1117
   27MOL   C23310165   2.963   5.120   4.575  0.2120 -0.6428  0.1824
   27MOL   C23410166   2.827   5.106   4.564  0.1938 -0.4423 -0.1542
   27MOL   C23510167   2.764   5.008   4.663  0.2744 -0.2811 -0.1936
   27MOL   C23610168   2.755   5.183   4.470  0.1214 -0.0831 -0.0309
   27MOL   C23710169   2.819   5.274   4.388 -0.4275 -0.2399 -0.5701
   27MOL   C23810170   3.137   5.384   4.249  0.1330  0.0650  0.6631
   27MOL   H23910171   2.942   5.459   4.286  0.6607  1.1109 -0.3730
   27MOL   H24010172   3.135   5.232   4.500  0.4199  1.3051 -0.5410
   27MOL   H24110173   3.018   5.064   4.649 -0.6070  1.0391  2.1088
   27MOL   H24210174   2.743   4.913   4.613 -1.7469  0.2739 -0.4148
   27MOL   H24310175   2.817   4.997   4.758 -1.6029  1.1748  1.0661
   27MOL   H24410176   2.672   5.053   4.699  1.4176 -0.4916  3.2190
   27MOL   H24510177   2.647   5.175   4.468  0.0835  0.6644 -1.0064
   27MOL   H24610178   2.766   5.337   4.318  2.1254  2.6547  0.0081
   27MOL   H24710179   3.101   5.304   4.186 -0.4531  0.7219  0.1547
   27MOL   H24810180   3.220   5.336   4.300  0.4749  0.4648  0.4895
   27MOL   C24910181   3.182   5.500   4.160 -0.0512 -1.2739  0.4139
   27MOL   C25010182   3.070   5.551   4.076  0.1255  0.3428 -0.4446
   27MOL   C25110183   3.027   5.480   3.965 -0.2511  0.0550 -0.1785
   27MOL   C25210184   2.917   5.521   3.893  1.0361  0.7245 -0.7914
   27MOL   C25310185   2.844   5.628   3.941  0.2476 -0.3211 -0.2385
   27MOL   C25410186   2.704   5.654   3.897  0.1427 -0.4783 -0.2224
   27MOL   C25510187   2.894   5.711   4.041  0.0186  0.1982 -0.5266
   27MOL   C25610188   3.009   5.673   4.107 -0.3367  0.3437  0.7420
   27MOL   C25710189   3.302   5.452   4.076 -0.0113 -0.3215  0.1806
   27MOL   H25810190   3.226   5.574   4.226  0.9257 -1.1517 -0.3599
   27MOL   H25910191   3.064   5.380   3.947  0.5380  0.4353 -0.6942
   27MOL   H26010192   2.877   5.458   3.815 -1.2798 -1.5164  2.0788
   27MOL   H26110193   2.714   5.724   3.814  1.5870 -2.2653 -1.6099
   27MOL   H26210194   2.663   5.565   3.849 -1.0369 -0.6649  1.0987
   27MOL   H26310195   2.625   5.684   3.965 -0.5661 -1.6596 -0.5196
   27MOL   H26410196   2.834   5.798   4.064  1.8388  1.1240  0.8705
   27MOL   H26510197   3.045   5.728   4.193  0.0970  0.9048  0.2082
   27MOL   H26610198   3.315   5.537   4.009 -0.4124 -0.0481  0.4457
   27MOL   H26710199   3.265   5.374   4.011 -1.2709  0.0381  0.4550
   27MOL   C26810200   3.421   5.383   4.144  0.1297 -0.5151  0.2353
   27MOL   C26910201   3.480   5.466   4.261  0.2199  0.0026  0.2583
   27MOL   C27010202   3.562   5.578   4.235 -0.4184 -0.6979 -0.1285
   27MOL   C27110203   3.629   5.641   4.339 -0.4582  0.7721 -0.0193
   27MOL   C27210204   3.624   5.596   4.469  0.9172  0.0600  0.4355
   27MOL   C27310205   3.705   5.663   4.579  0.0707 -0.3462  0.4236
   27MOL   C27410206   3.543   5.487   4.504  0.5376 -0.5625 -0.5975
   27MOL   C27510207   3.464   5.427   4.398  0.0980 -0.5944 -0.4250
   27MOL   C27610208   3.531   5.352   4.040  1.1886  0.3383  0.4590
   27MOL   H27710209   3.390   5.285   4.182  0.3645 -1.0882 -1.0185
   27MOL   H27810210   3.570   5.616   4.134 -1.9886 -0.5137 -0.1981
   27MOL   H27910211   3.693   5.723   4.313  0.0271  0.1389 -0.8569
   27MOL   H28010212   3.676   5.767   4.595 -1.1380 -0.5915 -0.1204
   27MOL   H28110213   3.697   5.606   4.672 -1.6531  0.4916  0.8125
   27MOL   H28210214   3.811   5.672   4.557  0.1989 -0.9184  0.7846
   27MOL   H28310215   3.548   5.443   4.602  0.5763 -0.9789 -0.7858
   27MOL   H28410216   3.405   5.340   4.424 -0.7153  0.0400 -0.1419
   27MOL   H28510217   3.564   5.447   3.997 -0.6330  0.6627 -0.2596
   27MOL   H28610218   3.488   5.302   3.954  1.7152 -0.9527  0.9385
   27MOL   C28710219   3.634   5.259   4.101 -0.7106  0.2647  0.3544
   27MOL   C28810220   3.772   5.302   4.055 -0.0146 -1.0863 -0.3177
   27MOL   C28910221   3.884   5.292   4.143 -0.3501 -0.0046 -0.2423
   27MOL   C29010222   4.009   5.323   4.093  0.3658 -0.0237 -0.0261
   27MOL   C29110223   4.024   5.394   3.969  0.5459 -0.0911  0.6342
   27MOL   C29210224   4.162   5.443   3.926  0.5487  0.4126 -0.6237
   27MOL   C29310225   3.910   5.404   3.882 -0.9098 -0.4699  0.0865
   27MOL   C29410226   3.789   5.348   3.924  0.3302  0.1145 -0.2771
   27MOL   C29510227   3.637   5.111   4.046 -0.2495  0.7909 -0.4184
   27MOL   H29610228   3.637   5.245   4.209  1.3003 -0.8297  0.1847
   27MOL   H29710229   3.882   5.242   4.239  2.0320 -2.0671 -1.2156
   27MOL   H29810230   4.095   5.306   4.157  0.3672  0.4355  0.0959
   27MOL   H29910231   4.200   5.345   3.896 -2.6771 -0.8988 -0.7160
   27MOL   H30010232   4.161   5.521   3.851 -1.2537  0.5429 -0.4876
   27MOL   H30110233   4.202   5.477   4.021 -0.0754  1.2837 -0.6700
   27MOL   H30210234   3.920   5.442   3.781  0.0601  1.4073  0.8631
   27MOL   H30310235   3.708   5.361   3.855 -0.8309  1.2865  1.2683
   27MOL   H30410236   3.733   5.064   4.065 -1.1670 -1.1895 -0.5871
   27MOL   H30510237   3.633   5.116   3.937 -1.0263 -0.4537 -0.4497
   27MOL   C30610238   3.529   5.011   4.100 -0.3646  0.0979  0.5212
   27MOL   C30710239   3.531   5.009   4.251  0.0414  0.2837 -0.1829
   27MOL   C30810240   3.407   5.032   4.315 -0.2209 -0.0013 -0.1898
   27MOL   C30910241   3.402   5.028   4.457  0.4710  0.2497 -1.1392
   27MOL   C31010242   3.511   4.988   4.531  0.2630 -0.4675  0.5848
   27MOL   C31110243   3.507   4.978   4.686 -0.3085  0.0573 -0.2940
   27MOL   C31210244   3.638   4.968   4.467 -0.1627  0.0991  0.8066
   27MOL   C31310245   3.648   4.980   4.326 -0.0201  0.7712  0.4782
   27MOL   C31410246   3.551   4.869   4.055  0.2379  0.0949 -0.0620
   27MOL   H31510247   3.429   5.047   4.077 -0.0174 -0.2152 -1.4907
   27MOL   H31610248   3.324   5.047   4.247  0.4308  0.8508 -0.8189
   27MOL   H31710249   3.308   5.052   4.505  0.3502  0.9398 -1.7145
   27MOL   H31810250   3.411   5.006   4.729 -0.2488  0.0964 -0.1876
   27MOL   H31910251   3.548   4.887   4.731  0.3458  0.2765 -0.4520
   27MOL   H32010252   3.565   5.056   4.735  0.8260 -1.2724  0.5219
   27MOL   H32110253   3.725   4.957   4.530  0.8448 -2.8146 -0.9552
   27MOL   H32210254   3.741   4.969   4.271 -1.4129  1.2875 -2.0819
   27MOL   H32310255   3.480   4.805   4.108 -0.6045 -1.2590 -2.7026
   27MOL   H32410256   3.649   4.830   4.080  0.9776  0.3734 -2.3814
   27MOL   C32510257   3.545   4.854   3.898  0.4149 -0.2758  0.3624
   27MOL   C32610258   3.408   4.894   3.856 -0.6359  0.2536  0.6066
   27MOL   C32710259   3.391   5.002   3.767 -0.8064 -0.1364 -0.0984
   27MOL   C32810260   3.258   5.041   3.725  0.0613 -0.4886  0.5278
   27MOL   C32910261   3.146   4.967   3.771  0.6143  0.2312 -0.2904
   27MOL   C33010262   3.007   5.007   3.733  0.0155  0.4615 -0.3602
   27MOL   C33110263   3.166   4.864   3.873  0.1442  0.7311  0.6819
   27MOL   C33210264   3.295   4.835   3.914 -0.1719  0.6068 -0.1042
   27MOL   C33310265   3.583   4.704   3.857 -0.1061  1.1970  0.1376
   27MOL   H33410266   3.619   4.921   3.855 -0.7495 -0.1172 -1.4759
   27MOL   H33510267   3.475   5.056   3.726  0.2949 -1.2907  0.6107
   27MOL   H33610268   3.252   5.115   3.647  0.9000 -1.3081 -0.3337
   27MOL   H33710269   3.020   5.107   3.690 -1.2349 -0.0474 -1.9721
   27MOL   H33810270   2.952   4.944   3.663  0.8321  0.0800 -0.6665
   27MOL   H33910271   2.941   5.000   3.819 -1.0612  2.6359 -0.9831
   27MOL   H34010272   3.083   4.813   3.918 -1.6531  1.4100 -1.7730
   27MOL   H34110273   3.307   4.760   3.990  0.4861  0.1122 -0.6853
   27MOL   H34210274   3.500   4.634   3.872  1.6384 -1.0037 -0.2540
   27MOL   H34310275   3.656   4.664   3.927  0.2580  0.9023 -0.4012
   27MOL   C34410276   3.648   4.677   3.719 -0.1814  0.0423 -0.4444
   27MOL   C34510277   3.744   4.789   3.684 -0.1273  1.0967  0.8718
   27MOL   C34610278   3.706   4.902   3.611  0.3566  0.0002  0.5103
   27MOL   C34710279   3.796   5.004   3.580 -0.1336  0.0176  0.5373
   27MOL   C34810280   3.923   4.997   3.637 -0.0811  0.4120 -0.1497
   27MOL   C34910281   4.024   5.106   3.618 -0.5573  0.5635  0.4141
   27MOL   C35010282   3.967   4.880   3.704  0.0035  0.6478  0.5333
   27MOL   C35110283   3.879   4.773   3.719 -0.0872 -0.1615 -0.1321
   27MOL   C35210284   3.545   4.638   3.613 -0.3601  0.6425 -0.0930
   27MOL   H35310285   3.704   4.586   3.742 -0.2583  0.1941  0.3606
   27MOL   H35410286   3.604   4.916   3.577  0.5621  2.5500  0.8377
   27MOL   H35510287   3.767   5.093   3.526 -3.4139 -0.4100  1.4396
   27MOL   H35610288   3.982   5.200   3.582  1.1018  0.8555 -0.8206
   27MOL   H35710289   4.072   5.125   3.714  0.6280  1.4686 -0.3331
   27MOL   H35810290   4.103   5.071   3.552 -1.1186  1.0226 -0.5087
   27MOL   H35910291   4.071   4.875   3.732  0.0131 -0.1730  0.3779
   27MOL   H36010292   3.916   4.679   3.760 -0.8377 -0.4456 -0.1013
   27MOL   H36110293   3.469   4.715   3.595 -1.6772 -0.2625  1.4467
   27MOL   H36210294   3.493   4.557   3.664  1.0594 -1.5932 -2.1061
   27MOL   C36310295   3.615   4.588   3.487  0.5261 -0.3739  0.3769
   27MOL   C36410296   3.501   4.569   3.383 -0.4489  0.1368 -0.7325
   27MOL   C36510297   3.373   4.527   3.417  0.2929  0.4293  0.7109
   27MOL   C36610298   3.268   4.518   3.321 -0.1288  0.1953  0.4377
   27MOL   C36710299   3.296   4.541   3.182 -0.8491  0.0794 -0.3645
   27MOL   C36810300   3.189   4.508   3.071 -0.1851 -0.5078 -0.5338
   27MOL   C36910301   3.429   4.578   3.150 -0.1430 -0.3895 -0.1017
   27MOL   C37010302   3.524   4.600   3.250  0.2456 -0.2192  0.4524
   27MOL   C37110303   3.689   4.451   3.501 -0.4913 -0.0963  0.0365
   27MOL   H37210304   3.680   4.673   3.467  0.6559 -0.8003 -1.1078
   27MOL   H37310305   3.338   4.501   3.516 -0.4693  2.4569  1.0066
   27MOL   H37410306   3.171   4.475   3.343  1.1581 -2.4974  1.0480
   27MOL   H37510307   3.181   4.599   3.012  1.6633  0.2499  0.3582
   27MOL   H37610308   3.238   4.435   3.006  2.1171  1.6698 -1.3106
   27MOL   H37710309   3.093   4.471   3.107 -0.7181  0.8589 -0.5085
   27MOL   H37810310   3.464   4.613   3.054 -0.8481 -0.1598 -0.2856
   27MOL   H37910311   3.623   4.634   3.224  0.6921 -0.5441  1.6942
   27MOL   H38010312   3.719   4.420   3.401  0.7206  1.2464 -0.0440
   27MOL   H38110313   3.618   4.373   3.528  0.1560 -0.5978  0.3025
   27MOL   H38210314   3.779   4.446   3.563  0.1483  0.1742 -0.8670
   28MOL     C110315   0.997   5.551   4.710  0.8067 -0.0382 -0.1991
   28MOL     C210316   0.917   5.660   4.639  0.2661  0.2297  0.3237
   28MOL     C310317   0.976   5.785   4.619 -0.1383  0.4904  0.7927
   28MOL     C410318   0.908   5.894   4.573  0.9140  0.2462  0.5002
   28MOL     C510319   0.776   5.879   4.525  0.7004 -0.7590  0.4330
   28MOL     C610320   0.696   5.997   4.474  0.7483  0.3289  0.2522
   28MOL     C710321   0.718   5.749   4.527  0.4679  0.0110 -0.4700
   28MOL     C810322   0.786   5.643   4.594  0.0927 -0.0175  0.0553
   28MOL     C910323   1.092   5.493   4.599  0.0210 -0.6304  0.2728
   28MOL    H1010324   1.036   5.586   4.806  0.0766  2.9893 -0.9406
   28MOL    H1110325   1.077   5.799   4.653  0.6699 -0.1571 -1.2609
   28MOL    H1210326   0.941   5.997   4.579 -2.3988  1.5086 -1.4198
   28MOL    H1310327   0.650   6.046   4.560  1.4594  0.4329  0.5761
   28MOL    H1410328   0.750   6.067   4.411 -0.1917 -0.4657 -1.4724
   28MOL    H1510329   0.610   5.962   4.416  0.8984 -0.3682  0.4394
   28MOL    H1610330   0.619   5.756   4.486  0.1558  0.8336  0.3997
   28MOL    H1710331   0.733   5.548   4.595 -1.8073  0.9684 -1.5221
   28MOL    H1810332   1.168   5.562   4.563 -2.7321  1.6841 -1.3247
   28MOL    H1910333   1.031   5.473   4.511 -2.4248  3.9662  0.7737
   28MOL    H2010334   0.925   5.473   4.733  2.1963 -1.4809 -0.6537
   28MOL    C2110335   1.154   5.366   4.651 -0.5844 -0.2674 -0.4730
   28MOL    C2210336   1.279   5.393   4.741  0.8309 -0.3178 -0.7299
   28MOL    C2310337   1.286   5.336   4.867  0.1231 -0.1189 -0.1344
   28MOL    C2410338   1.401   5.353   4.951  0.1931 -0.5635  0.4035
   28MOL    C2510339   1.516   5.423   4.906 -0.2077 -0.0689 -0.4491
   28MOL    C2610340   1.642   5.448   4.996 -0.4870 -0.2755 -0.1197
   28MOL    C2710341   1.517   5.465   4.773  0.1546  0.7425 -0.3166
   28MOL    C2810342   1.401   5.451   4.694  0.5342 -0.2795  0.4158
   28MOL    C2910343   1.191   5.268   4.537 -0.4061  0.0088 -0.2102
   28MOL    H3010344   1.088   5.310   4.717  2.8158 -1.6243  1.9170
   28MOL    H3110345   1.202   5.290   4.916 -0.5759  0.6465 -0.6037
   28MOL    H3210346   1.406   5.309   5.050 -0.7240 -1.6386 -0.0263
   28MOL    H3310347   1.729   5.409   4.943 -0.4328  0.4568 -0.5730
   28MOL    H3410348   1.658   5.555   5.010 -1.4159 -0.3924  2.1036
   28MOL    H3510349   1.634   5.398   5.093 -3.1171 -1.6652 -1.0036
   28MOL    H3610350   1.606   5.512   4.732 -0.3144  0.1285 -2.0766
   28MOL    H3710351   1.407   5.482   4.590 -1.1078 -1.4979 -0.0746
   28MOL    H3810352   1.220   5.179   4.592  0.2769 -0.2324 -0.9493
   28MOL    H3910353   1.283   5.304   4.491 -0.6616  0.5355 -0.3176
   28MOL    C4010354   1.095   5.224   4.423  0.7992  0.1433  0.5682
   28MOL    C4110355   0.957   5.192   4.488 -0.4119 -0.4660  0.2824
   28MOL    C4210356   0.934   5.066   4.556 -0.9160  0.3427 -0.1565
   28MOL    C4310357   0.809   5.046   4.617  0.5185 -0.3015  0.8139
   28MOL    C4410358   0.700   5.127   4.589 -0.4609 -0.7446  0.9098
   28MOL    C4510359   0.569   5.104   4.653  0.3231 -0.2339 -0.0093
   28MOL    C4610360   0.720   5.246   4.508 -0.7069  0.3207 -0.2577
   28MOL    C4710361   0.847   5.280   4.453 -0.5018  0.3641  0.2708
   28MOL    C4810362   1.141   5.103   4.332 -0.0048  0.0623 -0.5810
   28MOL    H4910363   1.083   5.314   4.363  0.1620 -0.4964 -0.2820
   28MOL    H5010364   1.008   4.987   4.558 -1.8919 -0.5853 -0.6229
   28MOL    H5110365   0.792   4.955   4.673  1.2994 -0.0226  1.5030
   28MOL    H5210366   0.512   5.196   4.641  2.8836  1.5721  1.2223
   28MOL    H5310367   0.513   5.020   4.611  0.0815 -0.3009  0.4438
   28MOL    H5410368   0.579   5.089   4.760  1.6446  1.8396  0.1994
   28MOL    H5510369   0.636   5.313   4.497 -0.2810  1.1888  1.7194
   28MOL    H5610370   0.848   5.366   4.388  1.4293  0.6753  0.6884
   28MOL    H5710371   1.058   5.038   4.305  0.5223 -1.2791  0.9398
   28MOL    H5810372   1.196   5.035   4.397 -1.0175 -0.8445 -0.6503
   28MOL    C5910373   1.226   5.145   4.215 -0.4069 -0.3794 -0.4542
   28MOL    C6010374   1.163   5.240   4.117  0.1733  0.8725  0.2846
   28MOL    C6110375   1.243   5.343   4.059 -0.3943 -0.6918 -0.7226
   28MOL    C6210376   1.195   5.421   3.955  0.9862 -0.0268 -0.5412
   28MOL    C6310377   1.063   5.408   3.912  0.3054 -0.2573 -0.1267
   28MOL    C6410378   1.004   5.513   3.823 -0.6186 -0.5484 -0.4918
   28MOL    C6510379   0.986   5.298   3.956 -0.3907 -0.2298 -0.2772
   28MOL    C6610380   1.036   5.213   4.061  0.2392  0.2571 -0.0725
   28MOL    C6710381   1.286   5.032   4.135 -0.7118  0.8242 -0.1890
   28MOL    H6810382   1.313   5.197   4.256  0.6432 -1.5669 -1.1363
   28MOL    H6910383   1.348   5.355   4.080 -0.4500 -0.9665 -0.2739
   28MOL    H7010384   1.251   5.502   3.911 -0.8312  1.8330  0.4586
   28MOL    H7110385   1.067   5.530   3.736  3.0390 -2.4822  1.6753
   28MOL    H7210386   0.901   5.487   3.796 -1.4944  2.4565 -0.2331
   28MOL    H7310387   1.013   5.615   3.861  0.2371  0.2728 -2.8115
   28MOL    H7410388   0.881   5.288   3.933  0.0039 -0.8793 -1.8902
   28MOL    H7510389   0.969   5.138   4.100  0.7683  1.2617  2.9698
   28MOL    H7610390   1.326   5.061   4.038 -0.2276 -1.2217 -0.6290
   28MOL    H7710391   1.205   4.962   4.117  1.5045 -1.2040 -2.8364
   28MOL    C7810392   1.389   4.939   4.208 -0.0602 -0.4323  0.0377
   28MOL    C7910393   1.508   5.022   4.241 -0.1542 -0.0335 -0.4036
   28MOL    C8010394   1.526   5.075   4.371  0.3190  0.5877  0.1563
   28MOL    C8110395   1.637   5.160   4.403 -0.0065  0.3008 -0.2559
   28MOL    C8210396   1.728   5.196   4.300  0.1232  0.1786  0.4230
   28MOL    C8310397   1.843   5.288   4.331  0.0049  0.5628  0.1454
   28MOL    C8410398   1.713   5.142   4.169 -0.6157  0.2426 -0.6473
   28MOL    C8510399   1.606   5.057   4.146 -0.9805  0.0903  0.1249
   28MOL    C8610400   1.430   4.814   4.135  0.6127  0.3009  0.3053
   28MOL    H8710401   1.347   4.900   4.301  0.0882 -3.5186 -1.1492
   28MOL    H8810402   1.454   5.060   4.450  0.8885 -0.2332  0.5204
   28MOL    H8910403   1.652   5.201   4.502 -1.3419 -0.0219  0.0804
   28MOL    H9010404   1.822   5.380   4.386 -0.9906  0.4291 -0.0094
   28MOL    H9110405   1.912   5.236   4.398  0.7090  2.0461  0.6072
   28MOL    H9210406   1.888   5.318   4.237  1.4357  0.6740  0.8495
   28MOL    H9310407   1.783   5.160   4.089  1.7346 -0.6287  1.1595
   28MOL    H9410408   1.594   5.010   4.050  0.8756  0.8755 -0.5200
   28MOL    H9510409   1.513   4.760   4.179 -0.4278 -1.2214  0.4585
   28MOL    H9610410   1.463   4.840   4.034 -0.8212 -0.3959 -0.3590
   28MOL    C9710411   1.309   4.714   4.130 -0.2550 -0.1698  0.4372
   28MOL    C9810412   1.240   4.689   4.264  0.7230 -0.4136 -0.4865
   28MOL    C9910413   1.301   4.626   4.376 -0.2746  0.5482  0.3979
   28MOL   C10010414   1.229   4.611   4.499  0.1644 -0.4314 -0.3725
   28MOL   C10110415   1.106   4.674   4.518  0.9998 -0.4088 -0.1184
   28MOL   C10210416   1.046   4.662   4.657 -0.8952 -0.3753 -0.3710
   28MOL   C10310417   1.045   4.743   4.412  0.1933 -0.5506 -0.0967
   28MOL   C10410418   1.103   4.746   4.284 -0.5878  0.5103  0.1494
   28MOL   C10510419   1.359   4.588   4.051 -0.4978 -0.8318 -0.2515
   28MOL   H10610420   1.231   4.755   4.066 -1.8497  0.9304  2.9969
   28MOL   H10710421   1.398   4.579   4.363 -0.2322  0.3302  1.4680
   28MOL   H10810422   1.270   4.546   4.575  1.0666  0.9620  0.3393
   28MOL   H10910423   0.952   4.715   4.675 -0.8578  1.0621 -4.0484
   28MOL   H11010424   1.018   4.560   4.683 -1.0010 -0.2290  0.0992
   28MOL   H11110425   1.113   4.698   4.736 -0.9153 -1.6158  0.2183
   28MOL   H11210426   0.946   4.785   4.422  1.0856  1.6250  0.0397
   28MOL   H11310427   1.053   4.807   4.211 -0.1130  1.1893  0.3850
   28MOL   H11410428   1.443   4.549   4.109  0.0381  2.6125  1.4665
   28MOL   H11510429   1.390   4.639   3.960 -4.6219  0.4055 -1.0502
   28MOL   C11610430   1.258   4.480   4.015 -0.0345 -0.2594  0.2226
   28MOL   C11710431   1.121   4.544   3.972  0.0893 -0.2224 -1.0155
   28MOL   C11810432   1.112   4.595   3.843 -0.1924  0.0474  0.1745
   28MOL   C11910433   0.991   4.642   3.793  0.2022 -0.4358 -0.6363
   28MOL   C12010434   0.872   4.634   3.862  0.4906  0.1371 -0.3132
   28MOL   C12110435   0.743   4.697   3.814  0.1805  0.1694  0.8266
   28MOL   C12210436   0.876   4.579   3.994 -0.3437 -0.0857  0.0213
   28MOL   C12310437   0.998   4.532   4.046  0.1831 -0.9746  0.2120
   28MOL   C12410438   1.250   4.363   4.116 -0.6024  0.3281 -0.2155
   28MOL   H12510439   1.304   4.438   3.926 -2.3906 -0.7635 -0.7818
   28MOL   H12610440   1.204   4.613   3.788 -0.3468  0.6366  0.1057
   28MOL   H12710441   0.997   4.688   3.696  0.3079 -2.1684 -1.4810
   28MOL   H12810442   0.771   4.765   3.734 -0.9521  1.2603  1.3541
   28MOL   H12910443   0.668   4.624   3.784  0.6351  0.2154 -0.4679
   28MOL   H13010444   0.695   4.748   3.897 -0.9280  1.6038 -0.6706
   28MOL   H13110445   0.783   4.581   4.049 -0.7273 -0.9240 -0.5860
   28MOL   H13210446   1.009   4.498   4.148  0.3060 -0.7058  0.2917
   28MOL   H13310447   1.228   4.420   4.206  0.5066 -0.4268  0.5418
   28MOL   H13410448   1.341   4.307   4.139 -0.6668 -0.5816 -2.0619
   28MOL   C13510449   1.151   4.243   4.088 -0.0702 -0.2841  0.7460
   28MOL   C13610450   1.145   4.158   4.216  0.1324  0.0201 -0.0117
   28MOL   C13710451   1.218   4.036   4.232 -0.1886  0.2037 -0.6256
   28MOL   C13810452   1.217   3.977   4.357  0.5899 -0.3922  0.1394
   28MOL   C13910453   1.153   4.031   4.470  0.1884 -0.2942 -0.7068
   28MOL   C14010454   1.144   3.961   4.605  0.2678  0.4772  0.0941
   28MOL   C14110455   1.084   4.153   4.455 -0.2149  0.0718 -0.6361
   28MOL   C14210456   1.075   4.215   4.323  0.6217 -0.0969  0.2223
   28MOL   C14310457   1.190   4.172   3.961  0.3816  0.0741  0.5373
   28MOL   H14410458   1.049   4.278   4.073  0.6197  1.6784  0.4961
   28MOL   H14510459   1.277   3.998   4.150  3.5845  3.8118  0.2302
   28MOL   H14610460   1.270   3.887   4.385  2.1385 -0.1555 -1.9628
   28MOL   H14710461   1.081   3.872   4.604 -0.0469  0.6963  0.1883
   28MOL   H14810462   1.248   3.938   4.626  0.7471  1.8532 -0.6829
   28MOL   H14910463   1.096   4.035   4.669 -1.3254  1.0037 -1.6766
   28MOL   H15010464   1.045   4.194   4.547  0.0085 -0.0881 -0.4683
   28MOL   H15110465   1.030   4.311   4.304 -1.1778 -0.5165  2.2260
   28MOL   H15210466   1.287   4.126   3.981  1.7353  1.4293 -2.6030
   28MOL   H15310467   1.209   4.239   3.877  2.1304 -0.9404  0.1077
   28MOL   C15410468   1.092   4.063   3.919 -0.2362  0.1216 -0.3149
   28MOL   C15510469   1.156   3.922   3.891  0.4848 -0.0059 -0.0007
   28MOL   C15610470   1.256   3.908   3.789  0.0524 -0.0963 -0.2245
   28MOL   C15710471   1.311   3.779   3.769  0.3163 -0.0634  0.3552
   28MOL   C15810472   1.270   3.668   3.847  0.4832  0.1596  0.3496
   28MOL   C15910473   1.317   3.529   3.814  0.7224  0.0731 -0.4982
   28MOL   C16010474   1.158   3.688   3.936  0.5488  0.3408 -0.3960
   28MOL   C16110475   1.112   3.812   3.966 -0.1021  0.0084  0.6715
   28MOL   C16210476   0.984   4.099   3.807 -0.1398 -0.5200  0.3716
   28MOL   H16310477   1.037   4.040   4.010  1.1899  0.7794  0.7090
   28MOL   H16410478   1.293   3.993   3.734 -1.4918  0.4497 -0.4442
   28MOL   H16510479   1.374   3.761   3.683 -1.2318 -1.3350 -0.5410
   28MOL   H16610480   1.292   3.458   3.892 -0.1319 -1.3136 -2.0068
   28MOL   H16710481   1.275   3.492   3.720  0.0595  2.3097 -1.1289
   28MOL   H16810482   1.425   3.541   3.815  0.9466 -1.7715 -1.0021
   28MOL   H16910483   1.123   3.598   3.985  0.1949  0.9394  0.4637
   28MOL   H17010484   1.031   3.813   4.038 -0.3978 -2.4149  0.3954
   28MOL   H17110485   1.019   4.083   3.705 -0.1825  0.7497  0.1421
   28MOL   H17210486   0.965   4.206   3.798  1.8425 -0.3222 -1.9263
   28MOL   C17310487   0.844   4.025   3.826  0.2572  0.5137 -1.0048
   28MOL   C17410488   0.770   4.001   3.688 -1.0021  0.3584  0.1347
   28MOL   C17510489   0.761   4.113   3.603  0.3362  0.0451 -0.0895
   28MOL   C17610490   0.693   4.103   3.482 -0.4418 -0.3539 -1.2575
   28MOL   C17710491   0.622   3.987   3.447 -0.8505  0.3590 -0.1673
   28MOL   C17810492   0.535   3.989   3.323  0.0864 -0.6445 -0.2554
   28MOL   C17910493   0.628   3.872   3.534 -0.4001  0.0697  0.4619
   28MOL   C18010494   0.706   3.881   3.652 -0.7229  0.0011  0.8017
   28MOL   C18110495   0.758   4.112   3.918  0.8029  0.6956 -0.7505
   28MOL   H18210496   0.865   3.933   3.880  0.6659  2.0402  1.5656
   28MOL   H18310497   0.807   4.208   3.625  2.8201 -1.3115  0.7807
   28MOL   H18410498   0.688   4.193   3.422 -0.5360  2.2644  2.4796
   28MOL   H18510499   0.438   4.032   3.350 -0.3599 -1.9145  0.1736
   28MOL   H18610500   0.579   4.053   3.246  1.8613  0.3929  1.5764
   28MOL   H18710501   0.513   3.891   3.281 -1.2821 -0.6733  0.4862
   28MOL   H18810502   0.577   3.781   3.505  0.8566 -0.2447 -0.8482
   28MOL   H18910503   0.716   3.794   3.717  2.9534  0.6242  1.1740
   28MOL   H19010504   0.703   4.192   3.867  1.1545  1.0530 -0.5670
   28MOL   H19110505   0.825   4.160   3.989 -1.6558  0.3965  1.8712
   28MOL   C19210506   0.651   4.031   3.992 -0.1585  0.2820 -0.5025
   28MOL   C19310507   0.715   3.942   4.100  0.2793  0.4424  0.0915
   28MOL   C19410508   0.726   3.803   4.086  0.2774 -0.5903  0.2797
   28MOL   C19510509   0.783   3.727   4.188 -0.0350 -0.4129  0.4134
   28MOL   C19610510   0.820   3.785   4.309  0.0815  0.2176  0.0893
   28MOL   C19710511   0.883   3.698   4.409  0.0986  0.0537 -0.8103
   28MOL   C19810512   0.811   3.926   4.329 -0.5252  0.2810  0.9973
   28MOL   C19910513   0.752   3.998   4.225 -0.4418  0.6414  0.5749
   28MOL   C20010514   0.538   3.958   3.917 -0.4278  0.5438  0.0405
   28MOL   H20110515   0.610   4.109   4.056 -2.4383  0.1882 -1.7957
   28MOL   H20210516   0.699   3.759   3.992 -0.7999  0.5994  0.0208
   28MOL   H20310517   0.791   3.620   4.180  0.7084 -0.3437  0.2051
   28MOL   H20410518   0.974   3.744   4.448 -0.8818  1.5603 -0.2581
   28MOL   H20510519   0.815   3.693   4.494  2.7419 -1.4669  1.3009
   28MOL   H20610520   0.905   3.597   4.374 -0.3801 -1.1899  2.3642
   28MOL   H20710521   0.839   3.982   4.416 -0.5192  0.9091  0.5916
   28MOL   H20810522   0.752   4.106   4.231  0.5508  0.6430  0.4869
   28MOL   H20910523   0.579   3.864   3.879  1.2874  0.7029  1.3797
   28MOL   H21010524   0.514   4.020   3.831  0.3738 -1.2631 -1.5018
   28MOL   C21110525   0.410   3.933   4.000  0.6047 -0.4032 -0.1725
   28MOL   C21210526   0.325   3.824   3.925  0.5651 -0.5331 -0.2026
   28MOL   C21310527   0.262   3.720   3.988  0.5476  0.4703 -0.5733
   28MOL   C21410528   0.165   3.640   3.926  0.4491 -0.4412  0.7199
   28MOL   C21510529   0.141   3.659   3.789  0.0313 -0.2165  0.2766
   28MOL   C21610530   0.031   3.576   3.730 -0.1244  0.4921  0.2363
   28MOL   C21710531   0.217   3.755   3.716 -0.1719 -0.1061  0.4566
   28MOL   C21810532   0.308   3.833   3.784 -0.2139  0.8805  0.4838
   28MOL   C21910533   0.326   4.059   4.021 -0.1763  1.0563 -1.1048
   28MOL   H22010534   0.437   3.900   4.100 -4.1265  1.3443  1.8365
   28MOL   H22110535   0.281   3.700   4.092  0.7194 -1.3480 -0.9351
   28MOL   H22210536   0.106   3.568   3.981 -1.1231 -0.0266 -0.3592
   28MOL   H22310537   8.046   3.540   3.810 -0.3285 -2.0326 -1.0309
   28MOL   H22410538   8.067   3.643   3.656  0.2099 -1.1572 -1.4790
   28MOL   H22510539   0.068   3.487   3.679 -2.7030 -1.8587  2.2644
   28MOL   H22610540   0.203   3.775   3.611  0.0765  1.7116  0.7619
   28MOL   H22710541   0.353   3.912   3.725 -0.4958 -0.0532 -0.9815
   28MOL   H22810542   0.232   4.055   3.965 -0.7900 -3.5324  0.0435
   28MOL   H22910543   0.385   4.140   3.979 -0.2316  1.9568  0.5186
   28MOL   C23010544   0.286   4.095   4.172  0.3153 -0.4419  0.2809
   28MOL   C23110545   0.230   3.976   4.247  0.2959  0.1351  0.1580
   28MOL   C23210546   0.315   3.895   4.321 -0.6945  0.0489  0.1790
   28MOL   C23310547   0.263   3.777   4.367 -0.4478 -0.2319  0.0901
   28MOL   C23410548   0.135   3.733   4.338 -0.5630  0.1508  0.9086
   28MOL   C23510549   0.093   3.598   4.391 -0.0402  0.2734  0.1149
   28MOL   C23610550   0.039   3.822   4.278  0.1889  0.1556 -0.7790
   28MOL   C23710551   0.089   3.943   4.232 -0.2152  0.5660  0.3981
   28MOL   C23810552   0.192   4.217   4.180  0.2342 -0.1552 -0.4242
   28MOL   H23910553   0.376   4.122   4.228 -0.6479  0.9144  1.2188
   28MOL   H24010554   0.420   3.918   4.333 -0.7811  0.3509  0.3505
   28MOL   H24110555   0.329   3.717   4.428 -1.3328 -1.5048 -0.1931
   28MOL   H24210556   0.017   3.565   4.321  0.7478 -0.6771 -0.3047
   28MOL   H24310557   0.180   3.532   4.390 -0.1275  0.1585  0.1002
   28MOL   H24410558   0.054   3.612   4.492 -1.3246 -2.4697  0.0441
   28MOL   H24510559   8.017   3.790   4.260  0.1087  0.4108 -0.7723
   28MOL   H24610560   0.025   4.008   4.176 -0.7053  0.4894  0.8687
   28MOL   H24710561   0.132   4.231   4.270 -1.9864 -0.2257 -1.8577
   28MOL   H24810562   0.118   4.221   4.101 -1.5022 -0.9975  1.1185
   28MOL   C24910563   0.261   4.360   4.149 -0.0831 -0.5119 -0.4446
   28MOL   C25010564   0.395   4.374   4.222 -0.3442 -0.0300 -0.7421
   28MOL   C25110565   0.404   4.365   4.361 -0.2334  0.6043  0.0220
   28MOL   C25210566   0.526   4.373   4.429 -0.0828 -0.6852  0.8042
   28MOL   C25310567   0.648   4.379   4.350  0.2528  0.5621 -0.1335
   28MOL   C25410568   0.776   4.418   4.411  0.0493 -0.4995 -0.1249
   28MOL   C25510569   0.642   4.381   4.213 -0.4102 -1.3869  0.5543
   28MOL   C25610570   0.520   4.385   4.148 -0.2019  0.2802 -0.0161
   28MOL   C25710571   0.164   4.478   4.172 -0.1162 -0.1183 -0.1637
   28MOL   H25810572   0.278   4.344   4.042  1.1571 -1.6051 -0.0979
   28MOL   H25910573   0.316   4.355   4.422  1.1026  1.6675  2.2122
   28MOL   H26010574   0.531   4.380   4.536  0.3662  1.5236  0.6592
   28MOL   H26110575   0.842   4.333   4.424  0.2891 -0.3349 -0.2636
   28MOL   H26210576   0.832   4.499   4.363 -0.3132 -0.8993 -1.2278
   28MOL   H26310577   0.767   4.456   4.513  1.1136  0.2611 -0.3063
   28MOL   H26410578   0.733   4.385   4.154 -1.3565  1.0358 -0.7744
   28MOL   H26510579   0.516   4.395   4.041 -0.1536 -0.6529 -0.1106
   28MOL   H26610580   0.164   4.498   4.279 -0.9253 -0.5221 -0.0887
   28MOL   H26710581   0.066   4.449   4.135  0.2066  1.0817 -2.0163
   28MOL   C26810582   0.205   4.614   4.104 -0.0437  0.1573  0.0201
   28MOL   C26910583   0.332   4.679   4.172 -0.2495 -0.1966  0.2912
   28MOL   C27010584   0.348   4.688   4.314  0.0182  0.0128  0.5092
   28MOL   C27110585   0.470   4.736   4.364  0.1543  0.6398 -0.8358
   28MOL   C27210586   0.570   4.795   4.278 -0.2398  0.3777  1.0681
   28MOL   C27310587   0.700   4.859   4.332  0.1484  0.4171  0.3403
   28MOL   C27410588   0.550   4.795   4.140 -0.0211 -0.1872  0.1297
   28MOL   C27510589   0.435   4.731   4.089  0.1203  0.0389 -0.3463
   28MOL   C27610590   0.084   4.713   4.119 -0.4528 -0.5485  0.0229
   28MOL   H27710591   0.227   4.591   3.999 -1.4104 -1.2849  0.0340
   28MOL   H27810592   0.267   4.657   4.378  0.4863  0.2405  1.2080
   28MOL   H27910593   0.477   4.759   4.469 -1.5179  1.7106 -0.9416
   28MOL   H28010594   0.700   4.965   4.307  1.3868  0.3087 -0.1465
   28MOL   H28110595   0.706   4.844   4.440  0.6185 -1.2477  0.0977
   28MOL   H28210596   0.787   4.808   4.291 -0.0159  1.1297 -0.9071
   28MOL   H28310597   0.621   4.840   4.072  0.4216  1.0433  1.3860
   28MOL   H28410598   0.434   4.732   3.981  2.5044  0.1390 -0.3981
   28MOL   H28510599   0.132   4.810   4.108 -0.2568 -0.9759 -3.7233
   28MOL   H28610600   0.048   4.720   4.221 -0.3423 -0.9556  0.0940
   28MOL   C28710601   8.038   4.701   4.025  0.5324 -0.8418 -0.6140
   28MOL   C28810602   8.077   4.673   3.879  0.5885  0.4144 -0.0322
   28MOL   C28910603   0.085   4.752   3.806  0.7760  0.2062 -0.2804
   28MOL   C29010604   0.108   4.720   3.668  0.6850 -0.2089 -0.9565
   28MOL   C29110605   0.063   4.596   3.616 -0.1011 -0.5672 -0.1197
   28MOL   C29210606   0.080   4.561   3.468 -0.2523  0.1377 -0.1154
   28MOL   C29310607   8.055   4.517   3.695 -0.2484  0.1497  0.5855
   28MOL   C29410608   8.014   4.557   3.821 -0.2125 -0.2377 -0.4989
   28MOL   C29510609   7.948   4.823   4.046 -0.4551  0.1423  0.8174
   28MOL   H29610610   7.975   4.620   4.063  0.7601 -0.4929  0.5258
   28MOL   H29710611   0.141   4.834   3.847 -0.1695 -0.0431  1.5472
   28MOL   H29810612   0.177   4.779   3.609 -0.3801 -0.2541 -2.2636
   28MOL   H29910613   0.028   4.472   3.431 -0.7954  0.2999  0.2595
   28MOL   H30010614   0.056   4.646   3.403 -0.7150  1.7762  2.1532
   28MOL   H30110615   0.187   4.543   3.456 -0.0157  1.2211  0.3571
   28MOL   H30210616   8.015   4.424   3.657  1.8993 -0.1525 -1.0607
   28MOL   H30310617   7.947   4.495   3.879 -1.2397  1.1474 -0.1741
   28MOL   H30410618   7.977   4.927   4.032  2.2571 -0.7583 -0.4879
   28MOL   H30510619   7.930   4.826   4.154  1.5457 -1.5130  1.2176
   28MOL   C30610620   7.823   4.809   3.951 -0.0514  0.2213  0.4124
   28MOL   C30710621   7.825   4.907   3.838 -0.1115 -0.1217 -0.0037
   28MOL   C30810622   7.864   4.871   3.710  0.7997  0.3435 -0.0083
   28MOL   C30910623   7.831   4.951   3.604  0.1416 -0.5852  0.5270
   28MOL   C31010624   7.780   5.080   3.616  0.2985  0.7066  0.4066
   28MOL   C31110625   7.756   5.154   3.487 -0.5228  0.0207 -0.1686
   28MOL   C31210626   7.760   5.130   3.747 -0.1861 -0.5418  0.3642
   28MOL   C31310627   7.771   5.044   3.853 -0.2236  0.1325 -0.1476
   28MOL   C31410628   7.688   4.820   4.034 -0.3302 -0.3566  0.3961
   28MOL   H31510629   7.826   4.711   3.902  0.5856 -0.4686  1.8023
   28MOL   H31610630   7.897   4.769   3.695  1.8836  0.6931 -0.0612
   28MOL   H31710631   7.844   4.911   3.504  0.1163  2.0533 -0.5891
   28MOL   H31810632   7.759   5.262   3.502  0.3721 -0.0322  0.0292
   28MOL   H31910633   7.828   5.118   3.414 -1.0948 -0.0401 -0.7178
   28MOL   H32010634   7.663   5.116   3.446  0.3055 -2.5468  0.2982
   28MOL   H32110635   7.740   5.236   3.751  0.2128 -0.3113 -2.6518
   28MOL   H32210636   7.741   5.083   3.949  1.5285  0.2443  0.3893
   28MOL   H32310637   7.605   4.824   3.964  0.8536  1.1074 -0.9776
   28MOL   H32410638   7.694   4.907   4.100 -0.3385  0.5576 -0.8031
   28MOL   C32510639   7.654   4.712   4.126 -0.3028  0.8749  0.4380
   28MOL   C32610640   7.641   4.578   4.067 -0.4002  0.0856 -0.1395
   28MOL   C32710641   7.670   4.459   4.143 -0.6618 -0.7309 -0.7853
   28MOL   C32810642   7.643   4.330   4.092 -0.5839  0.4363  0.4211
   28MOL   C32910643   7.585   4.308   3.969  0.8298 -0.5123 -0.6316
   28MOL   C33010644   7.558   4.174   3.911  0.3304  0.4622 -0.2996
   28MOL   C33110645   7.565   4.421   3.890  0.2507 -0.3585  0.2751
   28MOL   C33210646   7.586   4.552   3.943  0.1787  0.2372 -0.0498
   28MOL   C33310647   7.527   4.751   4.211 -0.3462 -0.3275 -0.5843
   28MOL   H33410648   7.735   4.718   4.200  0.2812  1.1321 -0.2136
   28MOL   H33510649   7.716   4.473   4.239  0.3264 -1.1189 -1.1965
   28MOL   H33610650   7.657   4.236   4.143  0.2299  0.9037  1.0593
   28MOL   H33710651   7.619   4.165   3.821  1.0158 -1.0536  0.3064
   28MOL   H33810652   7.591   4.086   3.965  0.0861  0.2878 -0.4349
   28MOL   H33910653   7.451   4.170   3.892  0.0729  1.1136  0.9600
   28MOL   H34010654   7.507   4.416   3.800 -0.1103 -0.7944  0.5299
   28MOL   H34110655   7.548   4.632   3.882  0.6705  1.0471  0.6919
   28MOL   H34210656   7.563   4.840   4.262 -1.7000  0.4247 -0.9282
   28MOL   H34310657   7.512   4.679   4.291  2.4253 -0.1578  0.1543
   28MOL   C34410658   7.399   4.765   4.124 -0.5245 -0.2273  0.2253
   28MOL   C34510659   7.331   4.903   4.165 -0.3901  0.3675  0.3075
   28MOL   C34610660   7.323   5.016   4.081 -0.5142 -0.4933 -0.8483
   28MOL   C34710661   7.267   5.137   4.133 -0.0761  1.1014 -0.2945
   28MOL   C34810662   7.216   5.140   4.264  0.1598 -0.1099 -0.3466
   28MOL   C34910663   7.141   5.257   4.312  0.5547  0.2255  1.0199
   28MOL   C35010664   7.232   5.026   4.348 -0.2971  0.4193 -0.3862
   28MOL   C35110665   7.284   4.904   4.298  0.1539  0.3523 -0.5857
   28MOL   C35210666   7.312   4.640   4.149 -0.6577 -0.0956 -0.1512
   28MOL   H35310667   7.418   4.772   4.017 -1.6615  2.2352  0.1599
   28MOL   H35410668   7.354   5.006   3.978 -1.4770 -1.1066 -1.0768
   28MOL   H35510669   7.252   5.219   4.065 -0.9214 -0.0637 -1.5374
   28MOL   H35610670   7.058   5.224   4.375 -0.7250  0.1809 -0.6674
   28MOL   H35710671   7.201   5.310   4.386 -0.9198  1.9033  1.0552
   28MOL   H35810672   7.111   5.324   4.232  1.0133  0.0122  0.6675
   28MOL   H35910673   7.206   5.030   4.453  0.0802 -0.9441 -0.2208
   28MOL   H36010674   7.301   4.822   4.367 -1.4315  0.9180  0.4932
   28MOL   H36110675   7.300   4.639   4.257  2.7810 -0.9158  0.3045
   28MOL   H36210676   7.373   4.553   4.124  2.3897  2.3804 -1.8325
   28MOL   C36310677   7.180   4.648   4.076 -0.5711  0.8833 -0.2957
   28MOL   C36410678   7.087   4.536   4.128 -0.0562  0.3299  0.2603
   28MOL   C36510679   7.022   4.551   4.250 -0.3086 -0.1928 -0.6074
   28MOL   C36610680   6.935   4.445   4.296  0.4051 -0.5118 -0.2044
   28MOL   C36710681   6.923   4.319   4.228  0.0989  0.2724  0.2664
   28MOL   C36810682   6.833   4.209   4.279 -0.2050 -0.0105 -0.6048
   28MOL   C36910683   7.003   4.304   4.115 -0.0483 -0.4998 -0.2047
   28MOL   C37010684   7.082   4.414   4.058  0.2617 -0.2146  0.0745
   28MOL   C37110685   7.190   4.650   3.919 -0.2531 -0.0787 -0.4768
   28MOL   H37210686   7.141   4.747   4.097 -0.3177  1.0193 -0.4591
   28MOL   H37310687   7.024   4.646   4.300  1.1399 -0.0980 -0.8285
   28MOL   H37410688   6.878   4.462   4.386  1.7321  1.4978  0.2956
   28MOL   H37510689   6.855   4.176   4.380 -1.4863 -1.4506 -0.7735
   28MOL   H37610690   6.732   4.247   4.296  0.1661  0.5945  0.2642
   28MOL   H37710691   6.822   4.130   4.204 -0.1932  1.2519 -1.9534
   28MOL   H37810692   7.010   4.211   4.061 -0.4854 -0.6843  0.0619
   28MOL   H37910693   7.142   4.396   3.970  0.9090  0.2621  0.4134
   28MOL   H38010694   7.242   4.741   3.889  0.3237 -0.2049  0.1355
   28MOL   H38110695   7.100   4.652   3.857 -1.2797  1.3139  1.0612
   28MOL   H38210696   7.251   4.566   3.883  0.1233 -0.1763  0.3848
   29MOL     C110697   3.893   7.906   0.258 -0.4816  0.7853 -0.2341
   29MOL     C210698   3.951   7.945   0.123  0.1034 -0.3219  0.8383
   29MOL     C310699   4.047   8.049   0.126  0.0393  1.1530  0.2514
   29MOL     C410700   4.115   0.005   0.010  0.3990 -0.6699 -0.2292
   29MOL     C510701   4.084   8.029   7.966  0.2634 -0.6815  0.6394
   29MOL     C610702   4.159   0.006   7.839  0.3268  0.0788 -0.0465
   29MOL     C710703   3.988   7.929   7.961  0.9230  0.1960  0.0131
   29MOL     C810704   3.925   7.881   8.078  0.1971 -0.6148  0.5784
   29MOL     C910705   3.825   7.767   0.246  0.2216  0.4214  0.1012
   29MOL    H1010706   3.975   7.897   0.329 -0.8763 -0.8259  0.0457
   29MOL    H1110707   4.078   0.013   0.220  2.7384  2.2929 -1.1195
   29MOL    H1210708   4.184   0.088   0.012 -0.4308  0.1222 -2.8401
   29MOL    H1310709   4.237   8.021   7.799  0.1254  0.6165 -1.3202
   29MOL    H1410710   4.093   0.036   7.758  0.6675  0.2520 -0.2577
   29MOL    H1510711   4.206   0.100   7.868  1.1752 -0.1903 -0.5317
   29MOL    H1610712   3.960   7.885   7.866  0.6714  1.2017 -0.3849
   29MOL    H1710713   3.858   7.797   8.070  2.5498 -2.6526  1.6873
   29MOL    H1810714   3.888   7.686   0.208  0.3449 -0.0654  1.3059
   29MOL    H1910715   3.744   7.772   0.173  0.7646  0.2918 -0.5070
   29MOL    H2010716   3.826   7.983   0.296 -0.0351  1.4510 -0.7821
   29MOL    C2110717   3.800   7.700   0.386  0.3942 -0.0471 -0.0161
   29MOL    C2210718   3.825   7.551   0.381 -0.2025 -0.3943  0.0120
   29MOL    C2310719   3.733   7.465   0.313 -0.1126  0.1893 -0.6137
   29MOL    C2410720   3.758   7.327   0.309 -0.0372 -0.6604 -0.4991
   29MOL    C2510721   3.865   7.277   0.377 -0.2079  0.4725 -0.4410
   29MOL    C2610722   3.877   7.125   0.370 -0.1567 -0.2485  0.0299
   29MOL    C2710723   3.963   7.355   0.441  0.1941  0.1021 -0.8252
   29MOL    C2810724   3.935   7.496   0.447  0.4874  0.3668 -0.1361
   29MOL    C2910725   3.663   7.738   0.450 -0.8369 -0.4982  0.2146
   29MOL    H3010726   3.871   7.748   0.454 -4.0725  1.1599  4.0198
   29MOL    H3110727   3.647   7.506   0.261  0.8973  2.0897 -0.8255
   29MOL    H3210728   3.688   7.257   0.267 -0.4346  0.2172 -1.3212
   29MOL    H3310729   3.795   7.080   0.426  1.5324  0.0875  2.9118
   29MOL    H3410730   3.868   7.105   0.263  0.9075 -0.0095 -0.1042
   29MOL    H3510731   3.978   7.098   0.401  0.3983 -0.1238 -1.6413
   29MOL    H3610732   4.045   7.303   0.488 -0.6997 -1.4914 -0.9904
   29MOL    H3710733   4.011   7.559   0.492  0.1498 -0.2992  1.3700
   29MOL    H3810734   3.596   7.668   0.399  1.0250 -2.4330  0.3344
   29MOL    H3910735   3.631   7.841   0.434  4.3306  1.2674  0.0828
   29MOL    C4010736   3.655   7.700   0.602 -0.8134 -0.5503 -0.1951
   29MOL    C4110737   3.505   7.688   0.640  0.5239  0.1523 -0.2092
   29MOL    C4210738   3.415   7.794   0.628 -0.5900 -0.6906  0.2137
   29MOL    C4310739   3.281   7.767   0.643  0.0517  0.3271  0.5781
   29MOL    C4410740   3.227   7.644   0.678 -1.1257  0.5004  0.1626
   29MOL    C4510741   3.076   7.624   0.687 -0.3605 -0.2977 -0.1168
   29MOL    C4610742   3.318   7.548   0.707  0.1114  0.2599 -0.3338
   29MOL    C4710743   3.456   7.564   0.694 -0.6750  0.2804 -0.1131
   29MOL    C4810744   3.719   7.797   0.707  0.1774 -0.1439 -0.5294
   29MOL    H4910745   3.685   7.595   0.610  0.7062 -0.2597 -1.7846
   29MOL    H5010746   3.440   7.891   0.586 -1.1600 -0.8650 -0.5302
   29MOL    H5110747   3.208   7.847   0.636  1.3055  1.3737 -1.1174
   29MOL    H5210748   3.063   7.516   0.682  1.8581 -0.6472  1.3162
   29MOL    H5310749   3.043   7.661   0.784  0.4079 -3.4675  1.3836
   29MOL    H5410750   3.019   7.670   0.605  0.2482 -1.2816 -1.1030
   29MOL    H5510751   3.282   7.450   0.737  2.1248  0.0780  1.5968
   29MOL    H5610752   3.517   7.476   0.705 -0.7661  0.4138  1.6961
   29MOL    H5710753   3.643   7.808   0.785  1.1875  1.8737  0.2100
   29MOL    H5810754   3.715   7.900   0.671 -1.2770  0.3012  0.8232
   29MOL    C5910755   3.861   7.759   0.761 -0.0668  0.0382  0.5387
   29MOL    C6010756   3.861   7.619   0.814 -0.3364 -0.7860 -0.0470
   29MOL    C6110757   3.967   7.535   0.789 -0.2178  0.2336  0.0479
   29MOL    C6210758   3.970   7.406   0.845 -0.7265 -0.5875 -0.8591
   29MOL    C6310759   3.874   7.360   0.934 -0.4356 -0.2657 -0.3178
   29MOL    C6410760   3.880   7.224   0.989 -0.0663  0.3320 -0.6568
   29MOL    C6510761   3.770   7.448   0.967  0.3633  0.0076  0.5705
   29MOL    C6610762   3.761   7.576   0.905 -0.2255  0.7453 -0.0027
   29MOL    C6710763   3.912   7.857   0.872  0.0758  0.1596 -0.6258
   29MOL    H6810764   3.923   7.770   0.672 -0.9625 -1.4842 -0.2983
   29MOL    H6910765   4.044   7.568   0.721 -0.1383  1.7107  0.8421
   29MOL    H7010766   4.042   7.335   0.809 -1.0901 -1.9322  1.0186
   29MOL    H7110767   3.918   7.154   0.914  2.3553  1.8650 -0.9189
   29MOL    H7210768   3.951   7.216   1.071 -1.3269  1.0778  0.5339
   29MOL    H7310769   3.784   7.187   1.027  0.7444  0.0497  1.1845
   29MOL    H7410770   3.688   7.412   1.026 -0.0710 -1.9975 -1.1789
   29MOL    H7510771   3.675   7.638   0.926 -0.2495  0.0880  1.9258
   29MOL    H7610772   4.015   7.833   0.898 -0.8994 -1.6388  1.7482
   29MOL    H7710773   3.856   7.837   0.963  1.3901  1.0105  0.3882
   29MOL    C7810774   3.899   8.006   0.844 -0.6660  0.4652 -0.3431
   29MOL    C7910775   3.967   8.066   0.722  0.0692 -0.2913 -0.0871
   29MOL    C8010776   4.110   8.075   0.712  0.7253 -0.2836  0.4387
   29MOL    C8110777   4.167   0.072   0.608 -0.3804 -0.6641 -0.0904
   29MOL    C8210778   4.088   0.145   0.521  0.0412  0.0451 -0.5655
   29MOL    C8310779   4.159   0.223   0.411 -0.4605  0.2678  0.1201
   29MOL    C8410780   3.950   0.132   0.530  0.3276  0.2612  0.6598
   29MOL    C8510781   3.889   0.054   0.627  0.3643  0.2776 -0.3826
   29MOL    C8610782   3.910   0.005   0.973 -0.4644 -0.1550  0.5962
   29MOL    H8710783   3.792   8.013   0.825 -0.8751  0.9331  0.9489
   29MOL    H8810784   4.169   8.032   0.792 -1.3569 -4.2118 -0.0179
   29MOL    H8910785   4.274   0.087   0.605 -0.1489 -2.4777 -1.5120
   29MOL    H9010786   4.203   0.150   0.343 -1.0420  0.4433 -0.4461
   29MOL    H9110787   4.099   0.292   0.353  3.1697  2.2010 -1.4615
   29MOL    H9210788   4.238   0.285   0.455  1.0774 -0.9180 -0.9168
   29MOL    H9310789   3.885   0.195   0.471 -1.1150  0.3269  2.2862
   29MOL    H9410790   3.781   0.051   0.640  0.4492  1.5138  0.7075
   29MOL    H9510791   4.010   0.002   1.018 -0.6035 -0.2866  0.8948
   29MOL    H9610792   3.857   8.047   1.059  0.5807 -0.4819  1.1067
   29MOL    C9710793   3.872   0.152   0.947 -0.2330 -0.4622  0.0855
   29MOL    C9810794   3.990   0.246   0.962  0.6590 -0.0066  0.7768
   29MOL    C9910795   4.050   0.257   1.088 -0.2208  0.9253  0.5853
   29MOL   C10010796   4.169   0.332   1.099 -0.8352  0.2688  0.3406
   29MOL   C10110797   4.213   0.413   0.992 -0.4770 -0.0890 -0.1432
   29MOL   C10210798   4.331   0.504   1.016  0.4722 -0.1145  0.1547
   29MOL   C10310799   4.159   0.392   0.862  0.0161 -0.5276 -0.5516
   29MOL   C10410800   4.051   0.308   0.850 -0.3718  0.3558 -0.0147
   29MOL   C10510801   3.761   0.206   1.035 -0.1957  0.4430 -0.1826
   29MOL   H10610802   3.828   0.170   0.849 -0.6713 -0.3781  0.2969
   29MOL   H10710803   4.014   0.204   1.176 -1.0970  1.1527  0.3641
   29MOL   H10810804   4.212   0.334   1.198  0.4577 -0.3701 -0.2055
   29MOL   H10910805   4.319   0.549   1.115  0.6933 -2.4444  1.2810
   29MOL   H11010806   4.421   0.442   1.007  0.7463  0.3948 -0.5873
   29MOL   H11110807   4.333   0.580   0.938  1.4315 -0.2020  0.0873
   29MOL   H11210808   4.191   0.442   0.771  1.1610 -2.7270 -1.3798
   29MOL   H11310809   4.017   0.294   0.749  1.8306  1.5362 -0.9414
   29MOL   H11410810   3.751   0.314   1.027  1.5638  0.6281 -0.0825
   29MOL   H11510811   3.782   0.181   1.139 -5.7976 -0.2329  0.9857
   29MOL   C11610812   3.624   0.142   1.006 -0.0911  0.0531  0.1855
   29MOL   C11710813   3.563   0.178   0.874  0.4856  0.7333  0.3632
   29MOL   C11810814   3.548   0.315   0.827  0.1540 -0.4529  0.4581
   29MOL   C11910815   3.506   0.336   0.699 -0.8698 -0.2691  0.8323
   29MOL   C12010816   3.456   0.230   0.624  0.6623  0.3957 -0.2169
   29MOL   C12110817   3.387   0.260   0.491  0.1796  0.3072 -0.1949
   29MOL   C12210818   3.466   0.098   0.662 -0.9502  0.1434  0.4650
   29MOL   C12310819   3.526   0.070   0.787  0.1807  0.1255 -0.0132
   29MOL   C12410820   3.521   0.174   1.113  0.2121  0.2709 -0.3783
   29MOL   H12510821   3.637   0.034   0.998  0.1055  0.1026 -0.1518
   29MOL   H12610822   3.577   0.404   0.881  0.7819  0.2470 -1.0044
   29MOL   H12710823   3.491   0.437   0.664  0.2017 -0.9260 -1.6392
   29MOL   H12810824   3.281   0.236   0.493  0.3173 -0.2430  1.9734
   29MOL   H12910825   3.405   0.361   0.454  1.2813 -0.1555 -0.9597
   29MOL   H13010826   3.438   0.202   0.414  0.1031  0.6581 -0.5084
   29MOL   H13110827   3.426   0.024   0.595 -3.4288  0.7575  1.1999
   29MOL   H13210828   3.537   8.052   0.830 -0.3580 -0.2652 -0.7752
   29MOL   H13310829   3.419   0.159   1.075  0.0883 -0.9073  0.4095
   29MOL   H13410830   3.547   0.275   1.146  0.1406  0.0311  0.4223
   29MOL   C13510831   3.543   0.090   1.243  0.7318 -0.0416 -0.0231
   29MOL   C13610832   3.508   8.022   1.217 -0.1074 -0.0658 -0.3546
   29MOL   C13710833   3.613   7.929   1.207  0.2091 -0.3272  0.5404
   29MOL   C13810834   3.587   7.794   1.188  0.7725  0.2973  0.0626
   29MOL   C13910835   3.454   7.755   1.165  0.4625 -0.0472 -0.0896
   29MOL   C14010836   3.436   7.611   1.123 -0.4763  0.5358  0.0955
   29MOL   C14110837   3.346   7.841   1.171 -0.8544 -0.6770  0.3479
   29MOL   C14210838   3.373   7.978   1.191  0.4453 -0.3359 -0.4805
   29MOL   C14310839   3.468   0.144   1.364 -0.5998 -1.3958  0.6417
   29MOL   H14410840   3.648   0.091   1.270  0.9947 -0.8751 -0.9629
   29MOL   H14510841   3.714   7.967   1.202 -0.5721  2.0843  2.1960
   29MOL   H14610842   3.674   7.733   1.171  1.0799  0.1154  2.2017
   29MOL   H14710843   3.356   7.563   1.179 -0.8805  2.8525  1.5663
   29MOL   H14810844   3.424   7.599   1.015 -1.6278 -0.5831  0.3407
   29MOL   H14910845   3.523   7.549   1.146 -2.2238 -1.7897  0.6261
   29MOL   H15010846   3.242   7.817   1.154 -1.1073  1.3896 -1.2314
   29MOL   H15110847   3.285   8.041   1.197 -1.6409 -2.9729 -2.0597
   29MOL   H15210848   3.504   0.092   1.453  2.1996 -1.2978 -0.4089
   29MOL   H15310849   3.361   0.125   1.350 -0.7514 -0.0138 -0.1507
   29MOL   C15410850   3.484   0.294   1.402 -0.8529 -0.6275 -0.8022
   29MOL   C15510851   3.633   0.337   1.426  0.6160  0.0916  0.0299
   29MOL   C15610852   3.701   0.293   1.541 -0.3109  0.8951 -0.2112
   29MOL   C15710853   3.837   0.320   1.549 -0.6470 -0.0448  0.3494
   29MOL   C15810854   3.899   0.408   1.459  0.2017  0.6796  0.2834
   29MOL   C15910855   4.048   0.430   1.481  0.2685  0.3518  0.3480
   29MOL   C16010856   3.836   0.446   1.342  0.6149  0.0607  0.3630
   29MOL   C16110857   3.699   0.411   1.324 -0.2446 -0.4703 -0.3512
   29MOL   C16210858   3.389   0.345   1.515 -0.2154 -0.5804  0.3249
   29MOL   H16310859   3.449   0.350   1.315  0.1779  0.4111 -0.5583
   29MOL   H16410860   3.645   0.240   1.616  1.4336  1.5403  1.5932
   29MOL   H16510861   3.884   0.275   1.635  0.0270  0.9422  0.5119
   29MOL   H16610862   4.092   0.330   1.481 -2.4153 -0.8710  0.9148
   29MOL   H16710863   4.094   0.486   1.400  2.1273  1.7762  2.3257
   29MOL   H16810864   4.070   0.473   1.579 -1.8919 -1.6672  1.7825
   29MOL   H16910865   3.894   0.484   1.259 -1.7109 -0.1699 -1.4215
   29MOL   H17010866   3.651   0.434   1.230  0.2276 -0.6007 -0.6279
   29MOL   H17110867   3.460   0.392   1.583  0.1439 -2.5298  1.3530
   29MOL   H17210868   3.366   0.253   1.569  0.9048 -0.7392  0.5467
   29MOL   C17310869   3.264   0.426   1.467  0.2670  0.0516  0.0205
   29MOL   C17410870   3.182   0.332   1.384  0.5914  0.1885  0.5258
   29MOL   C17510871   3.093   0.241   1.451 -0.3110  0.1543 -0.1044
   29MOL   C17610872   3.005   0.164   1.379 -0.0495  0.8626 -0.0687
   29MOL   C17710873   3.021   0.150   1.241  0.7322  0.1522  0.0733
   29MOL   C17810874   2.942   0.049   1.161 -0.2681  0.2144  0.0202
   29MOL   C17910875   3.116   0.225   1.170 -0.8334 -0.3913  0.2155
   29MOL   C18010876   3.192   0.322   1.240 -0.4199  0.3220  0.4516
   29MOL   C18110877   3.272   0.563   1.392  0.3407  0.3265 -0.3013
   29MOL   H18210878   3.209   0.439   1.560  0.7563 -0.8810  0.4486
   29MOL   H18310879   3.095   0.234   1.558  2.3130 -1.2690 -0.1896
   29MOL   H18410880   2.936   0.100   1.432  1.1183 -0.8248 -0.5483
   29MOL   H18510881   2.925   0.100   1.066 -0.6768 -2.7937 -1.5942
   29MOL   H18610882   2.991   8.034   1.141 -1.8335 -0.4290 -0.8502
   29MOL   H18710883   2.843   0.027   1.201 -1.5294  0.4602 -2.8405
   29MOL   H18810884   3.136   0.232   1.064 -0.4885  2.2315  0.4257
   29MOL   H18910885   3.252   0.387   1.179  3.1686 -1.5750  1.7765
   29MOL   H19010886   3.171   0.585   1.359  0.5921 -0.9089 -1.9656
   29MOL   H19110887   3.316   0.559   1.292  1.1917 -0.4181  0.0932
   29MOL   C19210888   3.346   0.680   1.470 -0.0764  0.5046  0.5581
   29MOL   C19310889   3.272   0.809   1.442  0.0452 -0.7823  0.2752
   29MOL   C19410890   3.217   0.878   1.550  0.8073 -0.3019  0.7512
   29MOL   C19510891   3.148   0.996   1.529  0.3315 -0.3620  0.2713
   29MOL   C19610892   3.155   1.065   1.398 -0.0948 -0.1222 -0.0099
   29MOL   C19710893   3.110   1.205   1.373 -0.1507  0.4590 -0.4665
   29MOL   C19810894   3.229   0.997   1.295  1.1107 -0.0659 -0.5845
   29MOL   C19910895   3.282   0.867   1.314  0.2909 -0.6491  0.1896
   29MOL   C20010896   3.500   0.685   1.431  0.0769 -0.3607  0.1576
   29MOL   H20110897   3.338   0.662   1.578 -5.8327 -0.4647  0.1000
   29MOL   H20210898   3.231   0.836   1.649 -4.5319 -1.1993  1.2907
   29MOL   H20310899   3.100   1.033   1.618  0.0601 -1.7977  0.7257
   29MOL   H20410900   3.027   1.221   1.441  0.7616  1.6231  0.3909
   29MOL   H20510901   3.182   1.284   1.394  0.0281  0.4788 -1.1214
   29MOL   H20610902   3.071   1.216   1.272 -0.8893  1.0563 -0.1197
   29MOL   H20710903   3.239   1.052   1.203 -1.5809  0.3197 -0.6941
   29MOL   H20810904   3.340   0.821   1.236  2.6974  1.0577  0.9129
   29MOL   H20910905   3.503   0.699   1.323  0.3457  0.6468  0.2883
   29MOL   H21010906   3.542   0.587   1.454 -0.6483 -1.4630 -2.9586
   29MOL   C21110907   3.598   0.793   1.496 -0.2453 -0.2771 -0.3986
   29MOL   C21210908   3.594   0.926   1.424  0.1601 -0.1419 -0.1730
   29MOL   C21310909   3.544   1.046   1.479 -0.3167  0.1945  0.2601
   29MOL   C21410910   3.562   1.169   1.416 -0.3726 -0.4942 -0.1908
   29MOL   C21510911   3.618   1.170   1.289 -0.8539 -0.1154  0.0026
   29MOL   C21610912   3.636   1.306   1.224 -0.9860  0.1964  0.5302
   29MOL   C21710913   3.670   1.055   1.229  0.4352 -0.2007 -0.0603
   29MOL   C21810914   3.649   0.930   1.292  0.1542 -0.0684  0.2748
   29MOL   C21910915   3.743   0.730   1.513  0.5163 -0.8543 -0.2670
   29MOL   H22010916   3.564   0.796   1.599  2.4162 -0.5043  0.5376
   29MOL   H22110917   3.506   1.034   1.580  1.1760  0.5783  0.8954
   29MOL   H22210918   3.531   1.263   1.457 -1.1932 -0.7493 -0.2235
   29MOL   H22310919   3.547   1.335   1.168 -0.1995  1.3097 -0.1674
   29MOL   H22410920   3.653   1.377   1.305 -0.0270  0.1993  0.3322
   29MOL   H22510921   3.713   1.298   1.147 -1.5253 -0.0833  0.0212
   29MOL   H22610922   3.709   1.057   1.128 -0.5492  0.8421 -0.4252
   29MOL   H22710923   3.675   0.835   1.247 -1.6037  0.1418 -1.2456
   29MOL   H22810924   3.767   0.705   1.410  0.5300 -1.8529 -0.0259
   29MOL   H22910925   3.738   0.640   1.573  0.9294 -1.6526 -1.4190
   29MOL   C23010926   3.859   0.821   1.567  0.2148 -0.0214 -0.6554
   29MOL   C23110927   3.918   0.927   1.474 -0.1808 -0.3444 -0.1809
   29MOL   C23210928   3.909   1.066   1.506  0.1782  0.1920 -0.6592
   29MOL   C23310929   3.961   1.159   1.411 -0.2934  0.2344 -0.6456
   29MOL   C23410930   4.037   1.117   1.295  0.4092  0.4209 -0.2176
   29MOL   C23510931   4.087   1.222   1.197  0.2067 -0.2228  0.0251
   29MOL   C23610932   4.050   0.978   1.276 -0.2871  0.6605  0.6882
   29MOL   C23710933   3.986   0.883   1.360  0.0611  0.5872 -0.3564
   29MOL   C23810934   3.979   0.743   1.633  0.3040  0.1156  0.9877
   29MOL   H23910935   3.812   0.873   1.651 -1.9398 -1.4889 -0.9091
   29MOL   H24010936   3.866   1.098   1.600  2.0925 -0.8904  0.6011
   29MOL   H24110937   3.925   1.261   1.420  1.1869  0.9145 -2.0223
   29MOL   H24210938   4.059   1.319   1.240 -0.8398 -0.2525 -0.5830
   29MOL   H24310939   4.195   1.204   1.191  0.8470  3.3609 -0.3481
   29MOL   H24410940   4.038   1.200   1.103  1.0650 -0.3616 -0.3959
   29MOL   H24510941   4.099   0.949   1.184  0.9662  1.3145  1.1403
   29MOL   H24610942   4.003   0.778   1.342  1.4350  0.3676  2.0952
   29MOL   H24710943   4.038   0.693   1.556 -1.6549  0.8316 -1.0592
   29MOL   H24810944   3.925   0.663   1.684  0.2413  0.0266  0.7840
   29MOL   C24910945   4.075   0.815   1.732  0.3043 -0.3726 -0.8096
   29MOL   C25010946   4.222   0.777   1.704  0.7911  0.4635  0.1676
   29MOL   C25110947   4.287   0.843   1.596  0.1921  0.3386 -0.9116
   29MOL   C25210948   4.424   0.819   1.570 -0.2522 -0.2042 -0.0427
   29MOL   C25310949   4.494   0.727   1.643  0.2372 -0.3855 -0.2877
   29MOL   C25410950   4.643   0.719   1.614 -0.3811  0.7787 -0.2620
   29MOL   C25510951   4.432   0.651   1.744  0.0241  0.3356  1.0273
   29MOL   C25610952   4.298   0.679   1.776  0.2988 -0.1066  0.1210
   29MOL   C25710953   4.035   0.801   1.882 -0.1558  0.0076 -0.6176
   29MOL   H25810954   4.064   0.919   1.701  1.2001  0.3780  1.2796
   29MOL   H25910955   4.237   0.924   1.545 -2.6602 -0.7849 -0.0307
   29MOL   H26010956   4.468   0.882   1.494  2.9042 -0.3632  1.5943
   29MOL   H26110957   4.691   0.818   1.617 -0.9427  1.0387  0.0881
   29MOL   H26210958   4.693   0.653   1.685 -2.2390  1.1337  1.4282
   29MOL   H26310959   4.647   0.677   1.514  0.2422  0.4822 -0.1161
   29MOL   H26410960   4.490   0.596   1.816 -1.6669 -0.8371  1.5254
   29MOL   H26510961   4.254   0.630   1.862  1.3621  0.6097  1.0896
   29MOL   H26610962   4.072   0.704   1.915 -2.0764 -0.3545  0.5075
   29MOL   H26710963   3.928   0.796   1.898  0.0047 -0.4754  0.3201
   29MOL   C26810964   4.084   0.901   1.995  0.1915 -0.7061  0.4798
   29MOL   C26910965   4.092   0.842   2.139  0.3200 -0.6031  0.3116
   29MOL   C27010966   3.984   0.765   2.193 -0.0571 -0.9995  0.0926
   29MOL   C27110967   3.989   0.731   2.329 -0.8472  0.2727  0.1392
   29MOL   C27210968   4.095   0.780   2.409 -0.0048  0.1814  0.3704
   29MOL   C27310969   4.089   0.754   2.559 -0.5102 -0.1874  0.1138
   29MOL   C27410970   4.206   0.850   2.353  0.1986 -0.3745 -0.3692
   29MOL   C27510971   4.204   0.884   2.218 -0.4702  0.5141  0.3369
   29MOL   C27610972   3.994   1.030   1.998  0.5650  0.3597 -0.4389
   29MOL   H27710973   4.188   0.930   1.975  0.4195 -1.6478  0.2527
   29MOL   H27810974   3.905   0.730   2.128  0.1515  0.0232 -0.7109
   29MOL   H27910975   3.905   0.672   2.364  0.1012 -2.0344 -1.3186
   29MOL   H28010976   4.020   0.822   2.609 -0.6819 -0.8160  0.7381
   29MOL   H28110977   4.066   0.650   2.581  1.0087 -0.7370 -0.7801
   29MOL   H28210978   4.180   0.756   2.618  1.2229  2.1579 -2.5272
   29MOL   H28310979   4.290   0.880   2.414  1.5723 -0.6045 -2.0933
   29MOL   H28410980   4.282   0.946   2.177  0.7938 -0.0597  1.8266
   29MOL   H28510981   3.895   0.997   2.028  0.3927 -0.2091 -1.6060
   29MOL   H28610982   3.985   1.077   1.900 -0.2677  1.7164  0.2728
   29MOL   C28710983   4.045   1.149   2.089  0.3822 -0.1792 -0.1931
   29MOL   C28810984   3.929   1.240   2.143 -1.0757  0.4117  0.3848
   29MOL   C28910985   3.852   1.192   2.254 -0.2817 -0.1673  0.2913
   29MOL   C29010986   3.736   1.270   2.290 -0.6009 -0.7659  0.2593
   29MOL   C29110987   3.702   1.394   2.235 -0.3357  0.1317 -0.7013
   29MOL   C29210988   3.587   1.474   2.288 -0.2650 -0.0083  0.2792
   29MOL   C29310989   3.785   1.446   2.127 -0.1321  0.8279  0.3808
   29MOL   C29410990   3.900   1.366   2.093  0.5204 -0.1462 -0.0225
   29MOL   C29510991   4.173   1.224   2.031  0.2840  0.7724  0.0362
   29MOL   H29610992   4.077   1.104   2.183  2.4894  0.5253 -0.5344
   29MOL   H29710993   3.865   1.093   2.294  0.1505  0.2903  1.3107
   29MOL   H29810994   3.661   1.224   2.354  0.4103 -1.1370  1.1892
   29MOL   H29910995   3.611   1.524   2.382  1.1685 -1.9325  0.9593
   29MOL   H30010996   3.563   1.546   2.210 -2.1196  1.0781  1.8132
   29MOL   H30110997   3.496   1.414   2.284 -1.4682  1.8504 -0.5813
   29MOL   H30210998   3.770   1.542   2.081 -1.7431  0.3234 -0.1772
   29MOL   H30310999   3.953   1.412   2.011 -1.3561  0.5891 -0.8641
   29MOL   H30411000   4.144   1.270   1.936 -0.1121 -0.5740 -0.5085
   29MOL   H30511001   4.254   1.153   2.016  1.2821  2.0519 -0.7867
   29MOL   C30611002   4.224   1.339   2.118 -0.2611 -0.1212 -0.6966
   29MOL   C30711003   4.300   1.430   2.028 -0.2544 -0.8194 -0.1342
   29MOL   C30811004   4.244   1.555   1.985 -0.4907 -0.5543  0.1021
   29MOL   C30911005   4.328   1.650   1.922  0.1824 -0.2520  0.4177
   29MOL   C31011006   4.463   1.626   1.893 -0.6601 -0.1718  0.5190
   29MOL   C31111007   4.551   1.735   1.832  0.1127 -0.5811 -0.1879
   29MOL   C31211008   4.513   1.504   1.924 -0.4020  0.0608 -0.1051
   29MOL   C31311009   4.437   1.410   1.993 -0.6114 -0.2822  0.1668
   29MOL   C31411010   4.308   1.297   2.252  0.3964  0.0864 -0.7113
   29MOL   H31511011   4.143   1.399   2.159  0.9548  1.5589 -0.6737
   29MOL   H31611012   4.139   1.573   2.002 -0.1601  0.6849  0.8713
   29MOL   H31711013   4.282   1.745   1.901  0.5158  0.0310  0.9390
   29MOL   H31811014   4.517   1.726   1.729 -1.8362  0.5152  0.3304
   29MOL   H31911015   4.531   1.838   1.864 -2.0007 -1.5798  1.7695
   29MOL   H32011016   4.656   1.710   1.848  0.0867  0.2931  1.4625
   29MOL   H32111017   4.609   1.472   1.885 -1.0540 -1.8125 -0.2076
   29MOL   H32211018   4.473   1.315   2.028 -2.7966 -0.9041  0.7905
   29MOL   H32311019   4.391   1.228   2.239 -0.3162 -0.6965 -1.1394
   29MOL   H32411020   4.234   1.241   2.310  1.0875 -0.4073 -0.3025
   29MOL   C32511021   4.355   1.424   2.345  0.2923  0.2996 -0.3549
   29MOL   C32611022   4.421   1.365   2.469 -0.1697 -0.0841 -0.4482
   29MOL   C32711023   4.349   1.305   2.573 -0.1636 -0.2709 -0.6106
   29MOL   C32811024   4.405   1.262   2.692  0.0777 -0.0044  0.3202
   29MOL   C32911025   4.540   1.290   2.712  0.1436 -0.6139 -0.9458
   29MOL   C33011026   4.608   1.233   2.835  0.4086 -0.2287 -0.4146
   29MOL   C33111027   4.612   1.368   2.621 -0.1305 -0.0955  0.5764
   29MOL   C33211028   4.551   1.401   2.496 -0.5913  0.1751  0.4748
   29MOL   C33311029   4.246   1.528   2.378  1.3187 -0.1482  0.0167
   29MOL   H33411030   4.432   1.474   2.287 -0.4513 -0.4207 -1.9949
   29MOL   H33511031   4.245   1.290   2.548 -0.0892  0.4838 -1.3870
   29MOL   H33611032   4.341   1.223   2.770  1.0844 -1.0018  0.6690
   29MOL   H33711033   4.591   1.301   2.918 -0.1379 -1.2156  0.3043
   29MOL   H33811034   4.557   1.141   2.863  0.2033 -0.1677 -0.5871
   29MOL   H33911035   4.715   1.222   2.822  0.5255 -0.3526  0.6204
   29MOL   H34011036   4.711   1.409   2.636 -0.5389  1.1135  0.0595
   29MOL   H34111037   4.611   1.452   2.422  1.5094 -0.0296  2.0107
   29MOL   H34211038   4.174   1.500   2.454  1.1537  3.0055  1.1127
   29MOL   H34311039   4.187   1.553   2.289 -2.0204  1.0748  2.4474
   29MOL   C34411040   4.303   1.661   2.433  0.1104 -0.4651  0.0917
   29MOL   C34511041   4.195   1.741   2.501  0.6326  0.0902  0.1888
   29MOL   C34611042   4.194   1.743   2.641 -0.0976 -0.2130 -0.7408
   29MOL   C34711043   4.088   1.805   2.712  0.0148  0.1947  0.3418
   29MOL   C34811044   3.995   1.883   2.636  0.2553 -0.5628 -0.4020
   29MOL   C34911045   3.886   1.966   2.703 -0.3563  0.1984  0.2572
   29MOL   C35011046   4.001   1.884   2.492  0.4920  0.0020 -0.5753
   29MOL   C35111047   4.096   1.810   2.420 -0.1801 -0.6473 -0.6178
   29MOL   C35211048   4.371   1.752   2.323  0.8227  0.2766 -0.6376
   29MOL   H35311049   4.378   1.630   2.505  0.6216  0.3559 -0.0892
   29MOL   H35411050   4.271   1.691   2.695  1.2706  2.7266  0.2516
   29MOL   H35511051   4.089   1.800   2.820 -1.6174  2.1719  0.4725
   29MOL   H35611052   3.881   1.941   2.809 -0.7672 -1.8583 -0.2298
   29MOL   H35711053   3.903   2.073   2.694 -0.3624  0.3747  2.0548
   29MOL   H35811054   3.785   1.948   2.668 -0.3600 -0.0120  0.3738
   29MOL   H35911055   3.940   1.953   2.434  1.1708  2.0268  1.0428
   29MOL   H36011056   4.097   1.805   2.312  0.5692  1.1765 -0.7225
   29MOL   H36111057   4.302   1.787   2.246  0.6143  0.9998 -0.1224
   29MOL   H36211058   4.441   1.685   2.272  0.9666  1.3012 -1.8273
   29MOL   C36311059   4.461   1.870   2.371  0.0126  0.0682  0.0450
   29MOL   C36411060   4.518   1.955   2.250  0.1802  0.8074  0.4119
   29MOL   C36511061   4.501   2.097   2.251  0.0549 -0.4272  0.4720
   29MOL   C36611062   4.568   2.176   2.156  0.8948 -0.0022  0.2928
   29MOL   C36711063   4.644   2.123   2.058 -0.1451 -0.2643 -0.2005
   29MOL   C36811064   4.705   2.211   1.951 -0.1858 -0.1756  1.0277
   29MOL   C36911065   4.661   1.984   2.053 -0.3530  0.3412  0.1144
   29MOL   C37011066   4.602   1.897   2.150 -0.2165  0.4547  0.1375
   29MOL   C37111067   4.584   1.835   2.465  0.7674  0.6502  0.1747
   29MOL   H37211068   4.385   1.933   2.417 -0.3580 -1.2233  1.2394
   29MOL   H37311069   4.444   2.139   2.333  1.2633 -1.7918  2.0659
   29MOL   H37411070   4.549   2.282   2.153  2.2142  0.2123 -0.7123
   29MOL   H37511071   4.764   2.289   1.998  3.6006 -2.6892  0.7564
   29MOL   H37611072   4.784   2.164   1.891 -0.0792  0.5355  0.6090
   29MOL   H37711073   4.622   2.244   1.889  0.7519 -0.2437 -0.2808
   29MOL   H37811074   4.719   1.935   1.976 -2.3941 -0.3590 -1.0158
   29MOL   H37911075   4.615   1.790   2.153 -1.5319  0.2989  0.3939
   29MOL   H38011076   4.648   1.767   2.409  2.1893  1.9926  0.1432
   29MOL   H38111077   4.554   1.781   2.555  0.6344  1.3887  0.5759
   29MOL   H38211078   4.640   1.925   2.490  0.4198  1.5251 -2.0306
   30MOL     C111079   5.737   4.507   7.204  0.0185  0.8727  0.0689
   30MOL     C211080   5.765   4.496   7.056  0.1734  0.5098  0.1218
   30MOL     C311081   5.667   4.535   6.960 -0.1771  1.1839  0.6135
   30MOL     C411082   5.700   4.531   6.822  0.0741  0.1912 -0.1672
   30MOL     C511083   5.833   4.500   6.781 -0.4786  0.2351 -0.0717
   30MOL     C611084   5.869   4.482   6.634  0.2300  1.2275  0.7399
   30MOL     C711085   5.932   4.468   6.881  0.0856 -0.6891 -0.4017
   30MOL     C811086   5.899   4.458   7.019 -0.1993  0.1652  0.3974
   30MOL     C911087   5.747   4.378   7.286 -0.3151  0.1507  0.5180
   30MOL    H1011088   5.810   4.579   7.240 -1.3102  1.0447  2.5124
   30MOL    H1111089   5.571   4.577   6.987 -0.1977  2.7494 -1.6745
   30MOL    H1211090   5.626   4.555   6.747  1.6519  0.2834 -1.7248
   30MOL    H1311091   5.788   4.419   6.598  0.7431  0.1759  1.4147
   30MOL    H1411092   5.888   4.572   6.576  1.7671 -1.3388 -2.8912
   30MOL    H1511093   5.956   4.418   6.629 -0.8073 -0.1756  0.4015
   30MOL    H1611094   6.032   4.439   6.852  0.2503  1.1343 -1.7177
   30MOL    H1711095   5.979   4.432   7.087 -0.3963  1.0633  0.9729
   30MOL    H1811096   5.848   4.343   7.268 -1.3235 -1.2477 -2.7957
   30MOL    H1911097   5.683   4.304   7.239  0.1312 -0.3528  0.7077
   30MOL    H2011098   5.644   4.555   7.234  0.4344  0.5782  1.9182
   30MOL    C2111099   5.720   4.399   7.440  0.3288  0.4147  0.0368
   30MOL    C2211100   5.798   4.516   7.504 -0.0348 -0.2988  0.5749
   30MOL    C2311101   5.742   4.649   7.509 -0.3814  0.1577  0.2181
   30MOL    C2411102   5.813   4.759   7.569 -0.6102 -0.9107  0.0929
   30MOL    C2511103   5.949   4.734   7.600 -0.2222 -0.0548 -0.4440
   30MOL    C2611104   6.045   4.839   7.620  0.5840  0.1461 -0.0413
   30MOL    C2711105   6.005   4.607   7.594 -0.2900  0.1523  0.3386
   30MOL    C2811106   5.927   4.500   7.552  0.4220  0.1227  0.2692
   30MOL    C2911107   5.734   4.273   7.526 -0.0566 -0.0360  0.4246
   30MOL    H3011108   5.618   4.428   7.466  0.5381 -0.8108  2.2854
   30MOL    H3111109   5.641   4.666   7.477 -0.1455  0.0386 -0.6027
   30MOL    H3211110   5.769   4.858   7.568 -0.3436 -0.7818 -1.6114
   30MOL    H3311111   6.121   4.825   7.543 -2.1114 -0.1101 -2.7513
   30MOL    H3411112   6.001   4.934   7.592  2.2668  0.9432 -0.0565
   30MOL    H3511113   6.086   4.837   7.721  1.1984  1.0731 -0.2668
   30MOL    H3611114   6.111   4.594   7.609 -0.0462  1.5381 -0.1323
   30MOL    H3711115   5.972   4.402   7.542 -2.0768 -1.0466  0.0061
   30MOL    H3811116   5.724   4.311   7.628  0.4752 -1.4754  1.0282
   30MOL    H3911117   5.836   4.235   7.515  0.2697  1.0394 -0.4916
   30MOL    C4011118   5.639   4.160   7.505  0.0027 -0.1675  0.4760
   30MOL    C4111119   5.504   4.199   7.552  0.1004 -0.2021 -0.4135
   30MOL    C4211120   5.466   4.187   7.684 -0.3522  0.1940 -0.4838
   30MOL    C4311121   5.348   4.247   7.724  0.5708  0.3001  0.2654
   30MOL    C4411122   5.258   4.314   7.635 -0.2120  0.7601 -0.8604
   30MOL    C4511123   5.141   4.390   7.684  0.0636  0.8782  0.3776
   30MOL    C4611124   5.287   4.302   7.502 -0.1494  0.2721 -0.2876
   30MOL    C4711125   5.410   4.249   7.454 -0.0286 -0.2766 -1.0811
   30MOL    C4811126   5.690   4.032   7.580  0.0033  0.2117  0.0852
   30MOL    H4911127   5.642   4.146   7.397  1.2764  0.2858  0.4356
   30MOL    H5011128   5.538   4.152   7.757  1.2332 -0.3758 -2.2707
   30MOL    H5111129   5.338   4.244   7.832  0.9915 -0.9346  0.2725
   30MOL    H5211130   5.059   4.399   7.614  0.1658  2.6233  0.4687
   30MOL    H5311131   5.107   4.353   7.780 -0.2246  2.3320  0.8487
   30MOL    H5411132   5.178   4.492   7.696 -0.4107  1.0478  0.3683
   30MOL    H5511133   5.205   4.322   7.435 -1.2094  0.0423  0.9179
   30MOL    H5611134   5.434   4.256   7.349  0.5593  1.3457 -0.8556
   30MOL    H5711135   5.602   3.972   7.602 -0.1580  0.2997 -0.3098
   30MOL    H5811136   5.729   4.047   7.681 -0.1561  0.2960  0.1331
   30MOL    C5911137   5.791   3.939   7.497  0.0789 -0.0631 -0.4033
   30MOL    C6011138   5.893   4.008   7.411 -0.0898  0.1123  0.0997
   30MOL    C6111139   6.021   4.045   7.461 -0.1296  0.8912 -0.9595
   30MOL    C6211140   6.123   4.100   7.381 -0.2366  0.4358  0.8473
   30MOL    C6311141   6.090   4.133   7.253  0.3389  0.1836  0.1885
   30MOL    C6411142   6.195   4.199   7.168  0.1470  0.6813 -0.6251
   30MOL    C6511143   5.969   4.096   7.196  0.8450 -0.3159 -0.1913
   30MOL    C6611144   5.872   4.027   7.273  0.2401  0.6888 -0.4828
   30MOL    C6711145   5.714   3.822   7.421  0.7786 -0.1069 -0.1789
   30MOL    H6811146   5.861   3.888   7.563  0.7471  0.7829 -0.4435
   30MOL    H6911147   6.044   4.030   7.565 -1.6637 -0.1630 -0.7536
   30MOL    H7011148   6.220   4.130   7.415  0.5257 -1.3057  0.2984
   30MOL    H7111149   6.285   4.223   7.224 -0.6611 -0.4262  1.1963
   30MOL    H7211150   6.210   4.143   7.076  1.7531 -0.6249  0.4207
   30MOL    H7311151   6.156   4.295   7.133  0.6528  0.9532 -0.4524
   30MOL    H7411152   5.950   4.123   7.093  0.4382 -0.6490 -0.2030
   30MOL    H7511153   5.780   4.005   7.222 -0.3101  1.2696  0.2527
   30MOL    H7611154   5.661   3.854   7.331 -0.7573 -0.9651  0.4108
   30MOL    H7711155   5.633   3.796   7.489  0.6411  0.5691 -0.0759
   30MOL    C7811156   5.789   3.684   7.401  0.1603 -0.3708  0.0571
   30MOL    C7911157   5.750   3.614   7.276 -0.6420  0.1166  0.0195
   30MOL    C8011158   5.838   3.608   7.163  0.6371 -0.4883 -0.0182
   30MOL    C8111159   5.803   3.552   7.041 -0.1314  0.2197 -0.1431
   30MOL    C8211160   5.688   3.482   7.032  0.8270 -0.1248  0.6480
   30MOL    C8311161   5.654   3.410   6.905 -0.6197 -0.4199 -0.6749
   30MOL    C8411162   5.598   3.487   7.143  0.1419 -0.1156 -0.3169
   30MOL    C8511163   5.627   3.556   7.263 -0.7429  0.0667  0.6741
   30MOL    C8611164   5.786   3.598   7.524 -0.3171 -0.4950  0.1895
   30MOL    H8711165   5.897   3.699   7.390 -0.3503  1.2631 -3.2276
   30MOL    H8811166   5.938   3.648   7.158 -0.1347  1.5514  0.2394
   30MOL    H8911167   5.873   3.558   6.959  0.2261 -0.2734  0.1250
   30MOL    H9011168   5.705   3.314   6.909  0.1582  0.0493  0.5976
   30MOL    H9111169   5.546   3.394   6.896 -0.7471  0.6835 -1.2777
   30MOL    H9211170   5.690   3.481   6.830  1.0342 -0.7570 -0.2162
   30MOL    H9311171   5.505   3.433   7.131 -0.0450  0.1021  0.1425
   30MOL    H9411172   5.555   3.545   7.343 -1.4822 -2.2577 -0.2580
   30MOL    H9511173   5.686   3.559   7.545 -0.6232 -0.2881 -0.8573
   30MOL    H9611174   5.805   3.655   7.615 -0.3496  0.8666 -0.6400
   30MOL    C9711175   5.892   3.490   7.519 -0.2742 -0.3469 -0.4636
   30MOL    C9811176   5.843   3.345   7.546 -0.0393  0.4042  0.2603
   30MOL    C9911177   5.802   3.270   7.434  0.5136  0.1473 -0.4635
   30MOL   C10011178   5.753   3.137   7.454 -0.2899  0.3357  0.2699
   30MOL   C10111179   5.740   3.081   7.577 -0.3770  0.0038 -0.0049
   30MOL   C10211180   5.698   2.942   7.594  0.2853  0.5526  1.0340
   30MOL   C10311181   5.794   3.153   7.688 -0.8785  0.2952 -0.2937
   30MOL   C10411182   5.852   3.280   7.670  1.3888  0.7178 -0.9625
   30MOL   C10511183   5.998   3.516   7.629  0.1078 -0.1061 -0.3760
   30MOL   H10611184   5.936   3.488   7.419 -0.1736 -2.4858 -0.3933
   30MOL   H10711185   5.802   3.314   7.335  0.3925 -0.5552 -0.7761
   30MOL   H10811186   5.721   3.081   7.367 -0.5587  2.0151 -0.7410
   30MOL   H10911187   5.603   2.924   7.543  0.6458  2.0606 -0.2033
   30MOL   H11011188   5.772   2.877   7.547 -2.9970 -1.9985 -0.8245
   30MOL   H11111189   5.695   2.922   7.701  0.2195  2.4183  1.3890
   30MOL   H11211190   5.781   3.112   7.788 -1.7331 -1.3267 -1.0442
   30MOL   H11311191   5.901   3.322   7.756 -2.7208  0.6169  1.5627
   30MOL   H11411192   6.056   3.423   7.638 -1.7931 -1.3111 -0.3776
   30MOL   H11511193   5.953   3.531   7.727  1.2350  3.3703 -0.3442
   30MOL   C11611194   6.093   3.633   7.610 -0.1351  0.0125  0.7972
   30MOL   C11711195   6.175   3.617   7.494 -0.1625 -0.5718 -0.2785
   30MOL   C11811196   6.266   3.506   7.488  0.1759  0.2707 -0.0097
   30MOL   C11911197   6.341   3.485   7.373 -0.7949  0.3238 -1.3607
   30MOL   C12011198   6.341   3.579   7.269  0.5770 -0.3642 -0.4317
   30MOL   C12111199   6.424   3.547   7.139 -0.8154  0.4735 -1.0426
   30MOL   C12211200   6.253   3.684   7.270  0.3170  0.0800 -0.2228
   30MOL   C12311201   6.168   3.710   7.385 -0.4126 -0.0195 -0.3285
   30MOL   C12411202   6.190   3.667   7.728  0.1920  0.3691 -0.1024
   30MOL   H12511203   6.033   3.723   7.594 -0.1152  0.3349  2.3822
   30MOL   H12611204   6.261   3.437   7.571  0.3644 -0.1562 -0.3514
   30MOL   H12711205   6.404   3.397   7.380 -1.0326  0.0715 -2.2685
   30MOL   H12811206   6.378   3.604   7.058 -2.4095  1.2566  0.3884
   30MOL   H12911207   6.529   3.575   7.152 -0.1488 -1.2777 -2.4847
   30MOL   H13011208   6.428   3.439   7.125  1.1084  0.4038 -0.1179
   30MOL   H13111209   6.265   3.752   7.187 -0.1044  0.1643 -0.2138
   30MOL   H13211210   6.101   3.795   7.389  1.0949  1.1301  1.0678
   30MOL   H13311211   6.283   3.713   7.694  0.4231 -0.5979 -0.8059
   30MOL   H13411212   6.211   3.570   7.773 -1.0726  0.3702  0.5264
   30MOL   C13511213   6.126   3.752   7.846  0.2223  0.0787  0.4627
   30MOL   C13611214   6.114   3.902   7.813 -0.0957  0.2280  0.4678
   30MOL   C13711215   6.232   3.979   7.787  0.5546  0.8292  0.5015
   30MOL   C13811216   6.226   4.119   7.784 -0.6108 -0.1907  0.2775
   30MOL   C13911217   6.105   4.185   7.808 -0.1267  0.0123 -0.2378
   30MOL   C14011218   6.104   4.340   7.817 -0.0400 -0.0607 -0.8771
   30MOL   C14111219   5.992   4.107   7.833  0.4402 -0.2376  0.1519
   30MOL   C14211220   5.991   3.966   7.828  0.0635  0.9039  0.2209
   30MOL   C14311221   6.202   3.739   7.981 -0.1051 -0.0258 -0.0822
   30MOL   H14411222   6.023   3.719   7.862  0.1165  0.1190 -0.1009
   30MOL   H14511223   6.318   3.915   7.770 -0.7194 -0.2085 -2.2247
   30MOL   H14611224   6.322   4.168   7.787 -1.0958  0.7850 -0.1943
   30MOL   H14711225   6.009   4.376   7.856  0.0437 -0.8974  0.1111
   30MOL   H14811226   6.191   4.369   7.876 -1.2088 -2.0913  1.9321
   30MOL   H14911227   6.123   4.381   7.718 -2.9981 -2.3059 -2.4535
   30MOL   H15011228   5.903   4.163   7.854  0.2284 -0.3640 -0.3992
   30MOL   H15111229   5.902   3.905   7.839  1.1836 -0.9887 -1.0143
   30MOL   H15211230   6.170   3.816   8.052 -0.2798 -1.2664  1.1978
   30MOL   H15311231   6.310   3.749   7.971  0.0528 -1.7066 -0.1607
   30MOL   C15411232   6.192   3.598   8.050  0.2267 -0.0213  0.4928
   30MOL   C15511233   6.058   3.531   8.047  0.2460 -0.9583 -0.6308
   30MOL   C15611234   6.054   3.398   8.013  0.2314 -0.0415 -0.2663
   30MOL   C15711235   5.935   3.325   8.021  1.1767  0.5930 -0.0331
   30MOL   C15811236   5.814   3.389   8.051 -0.1253 -0.7930 -0.2749
   30MOL   C15911237   5.685   3.305   8.058 -0.2036  0.1790  0.1433
   30MOL   C16011238   5.811   3.530   8.076 -0.0987  0.4387  0.5448
   30MOL   C16111239   5.937   3.598   0.004  0.1957  0.4103 -0.6645
   30MOL   C16211240   6.260   3.595   0.109 -0.3403  0.0192 -0.2725
   30MOL   H16311241   6.248   3.528   7.988 -0.1101 -0.3964  0.6131
   30MOL   H16411242   6.140   3.343   7.978  0.5371  0.2233  0.0683
   30MOL   H16511243   5.940   3.223   7.987 -1.4348  0.8818 -1.3893
   30MOL   H16611244   5.616   3.338   7.980 -0.4986 -1.6512 -0.3907
   30MOL   H16711245   5.708   3.200   8.041 -0.6022 -0.0687  1.0854
   30MOL   H16811246   5.626   3.315   0.070 -0.9333  0.2655 -0.3258
   30MOL   H16911247   5.727   3.595   0.016 -1.0343  0.8097 -3.9640
   30MOL   H17011248   5.937   3.702   0.034 -3.2618 -0.1518  1.6438
   30MOL   H17111249   6.257   3.492   0.144  0.5692  0.5566  1.4212
   30MOL   H17211250   6.204   3.658   0.178  1.2653  2.7042 -1.3072
   30MOL   C17311251   6.409   3.618   0.113  0.4285  0.1178  0.8455
   30MOL   C17411252   6.494   3.528   0.015  0.3394 -0.3148  0.0054
   30MOL   C17511253   6.544   3.576   7.971  0.2943  0.6753 -0.5103
   30MOL   C17611254   6.609   3.490   7.881  0.5354  0.5606 -0.2014
   30MOL   C17711255   6.631   3.354   7.912  0.0054 -0.6786 -0.3737
   30MOL   C17811256   6.698   3.256   7.813  0.4164 -0.0775  0.1476
   30MOL   C17911257   6.577   3.302   8.033  0.1313  0.2809  0.6811
   30MOL   C18011258   6.517   3.390   0.048  0.0902  0.4853  0.6942
   30MOL   C18111259   6.465   3.617   0.260  0.3358 -0.0449 -0.5596
   30MOL   H18211260   6.427   3.719   0.076 -2.1411  0.0526 -0.6940
   30MOL   H18311261   6.525   3.674   7.929  2.2725  2.2591  2.0905
   30MOL   H18411262   6.633   3.536   7.786 -3.1022 -1.1213 -2.0436
   30MOL   H18511263   6.668   3.269   7.709 -0.4871 -0.9196  0.2955
   30MOL   H18611264   6.807   3.264   7.812  0.3673  0.7257  0.6447
   30MOL   H18711265   6.675   3.152   7.837 -3.1734  0.9070  1.2594
   30MOL   H18811266   6.598   3.204   8.073  2.3916  0.0965 -0.8598
   30MOL   H18911267   6.491   3.338   0.139  1.0172 -1.6974 -0.2346
   30MOL   H19011268   6.573   3.613   0.252  0.4052 -0.1198  0.4465
   30MOL   H19111269   6.437   3.520   0.300  2.1385 -0.2347  0.2522
   30MOL   C19211270   6.420   3.731   0.353  0.1288 -0.8051 -0.2561
   30MOL   C19311271   6.470   3.863   0.303 -0.0259 -0.2945  0.5026
   30MOL   C19411272   6.389   3.939   0.212 -0.5826  0.4041  0.2896
   30MOL   C19511273   6.433   4.060   0.163 -0.4847 -0.5270 -0.3443
   30MOL   C19611274   6.563   4.115   0.207 -0.3539 -0.4828 -0.4967
   30MOL   C19711275   6.602   4.261   0.164  0.3319  0.2391 -0.0194
   30MOL   C19811276   6.646   4.037   0.295 -0.2741  0.0246 -0.4108
   30MOL   C19911277   6.597   3.911   0.344  0.0828 -0.3943  0.3656
   30MOL   C20011278   6.456   3.700   0.502  0.1862  0.2009 -0.0642
   30MOL   H20111279   6.312   3.741   0.341  0.4054  0.0517 -2.1989
   30MOL   H20211280   6.297   3.902   0.170 -0.3502  0.3804 -0.2056
   30MOL   H20311281   6.360   4.109   0.101 -0.3272  0.1077 -0.0403
   30MOL   H20411282   6.706   4.286   0.184  0.9221 -2.0992  0.0063
   30MOL   H20511283   6.584   4.270   0.056 -0.4894 -0.6554  0.0326
   30MOL   H20611284   6.533   4.325   0.219  0.8709  1.3261 -0.5995
   30MOL   H20711285   6.748   4.060   0.322  0.2090 -3.3682  0.8818
   30MOL   H20811286   6.664   3.855   0.407  0.8525 -1.2397 -1.1819
   30MOL   H20911287   6.564   3.712   0.504  0.1392  0.7441 -0.8682
   30MOL   H21011288   6.430   3.599   0.536 -0.5120 -0.0340 -1.2594
   30MOL   C21111289   6.402   3.793   0.609  1.2528 -0.2299 -0.9330
   30MOL   C21211290   6.478   3.777   0.737 -1.0454 -0.1781 -0.0428
   30MOL   C21311291   6.494   3.652   0.799  0.3314  0.1561 -0.7156
   30MOL   C21411292   6.560   3.634   0.923  0.0870 -0.9812  0.2150
   30MOL   C21511293   6.620   3.744   0.981  0.2008  0.0832 -0.4942
   30MOL   C21611294   6.695   3.729   1.120  0.1922  0.0687  0.5276
   30MOL   C21711295   6.597   3.876   0.926 -0.0197  0.4891 -0.3230
   30MOL   C21811296   6.532   3.887   0.802  0.3610  0.8917 -0.2800
   30MOL   C21911297   6.249   3.773   0.628 -0.3067  0.0951 -0.3341
   30MOL   H22011298   6.421   3.893   0.571  2.2047  0.8653  2.2162
   30MOL   H22111299   6.455   3.566   0.746 -0.7267  1.2515 -1.7508
   30MOL   H22211300   6.578   3.538   0.968  1.5142 -0.9590 -0.2812
   30MOL   H22311301   6.792   3.683   1.101 -0.0468 -0.2519  0.0713
   30MOL   H22411302   6.694   3.825   1.172 -1.4083  0.3521  0.0080
   30MOL   H22511303   6.637   3.659   1.181  1.0849 -1.8853 -0.8404
   30MOL   H22611304   6.628   3.960   0.987  2.6495 -1.7929  1.5408
   30MOL   H22711305   6.529   3.985   0.759 -0.9841  0.9493 -0.0858
   30MOL   H22811306   6.232   3.667   0.650  2.4638 -0.0005  1.7770
   30MOL   H22911307   6.200   3.785   0.532  1.8958  1.9417 -1.2777
   30MOL   C23011308   6.174   3.856   0.731 -0.3859 -0.5725  0.6675
   30MOL   C23111309   6.022   3.819   0.735  0.5807  0.5404 -0.7596
   30MOL   C23211310   5.933   3.794   0.625 -0.7201 -0.1863  0.7677
   30MOL   C23311311   5.806   3.744   0.640 -0.1963 -0.3267 -0.6309
   30MOL   C23411312   5.750   3.713   0.765  0.5236 -0.0723 -0.3599
   30MOL   C23511313   5.616   3.651   0.772 -0.0221  0.1964  0.8935
   30MOL   C23611314   5.830   3.739   0.875  0.0498 -0.6438 -0.7335
   30MOL   C23711315   5.963   3.786   0.860 -0.2048 -0.0160  0.3295
   30MOL   C23811316   6.188   4.009   0.700 -0.2297 -0.0449  0.7322
   30MOL   H23911317   6.234   3.839   0.820  0.6766 -0.2125  0.0387
   30MOL   H24011318   5.976   3.805   0.526  2.5951  2.6205  2.4219
   30MOL   H24111319   5.751   3.725   0.549 -2.0402 -3.2943  0.9955
   30MOL   H24211320   5.622   3.556   0.824  0.5194  0.6299  1.6299
   30MOL   H24311321   5.547   3.717   0.824 -1.2075 -0.6015  0.3455
   30MOL   H24411322   5.565   3.644   0.675  1.3153 -2.1488  0.3235
   30MOL   H24511323   5.790   3.717   0.972 -0.2116  1.5636 -0.3081
   30MOL   H24611324   6.018   3.812   0.950 -1.9284  1.3840  1.0227
   30MOL   H24711325   6.134   4.043   0.612  3.4350  1.2125 -1.1370
   30MOL   H24811326   6.295   4.027   0.696 -0.3617  1.5761  3.3182
   30MOL   C24911327   6.142   4.109   0.811 -0.0192 -0.5485  0.4762
   30MOL   C25011328   6.149   4.250   0.755  0.2344  0.4306  0.7954
   30MOL   C25111329   6.033   4.331   0.755  0.5336 -0.0127  0.2340
   30MOL   C25211330   6.034   4.461   0.701  0.0941 -0.8163 -0.4338
   30MOL   C25311331   6.154   4.511   0.650 -0.2510 -0.3025  0.1259
   30MOL   C25411332   6.168   4.658   0.597 -0.2206 -0.0013 -0.8187
   30MOL   C25511333   6.269   4.431   0.651  0.0733  0.6271  0.5322
   30MOL   C25611334   6.267   4.301   0.699 -0.2466 -0.2365 -0.5965
   30MOL   C25711335   6.214   4.088   0.945 -1.1009  0.6768  0.2066
   30MOL   H25811336   6.037   4.088   0.830 -0.4447 -1.0182 -2.2920
   30MOL   H25911337   5.946   4.289   0.802 -0.5980  2.5247  0.5003
   30MOL   H26011338   5.947   4.524   0.699  2.0237  2.0764  2.0592
   30MOL   H26111339   6.074   4.712   0.596  0.0903  0.5415 -1.0489
   30MOL   H26211340   6.223   4.698   0.682  0.1492 -1.8842 -0.1474
   30MOL   H26311341   6.225   4.653   0.504 -0.0956  2.3620 -0.8885
   30MOL   H26411342   6.359   4.474   0.609  1.0299 -1.8283 -0.0179
   30MOL   H26511343   6.347   4.229   0.699 -0.0909 -0.1128  1.6565
   30MOL   H26611344   6.321   4.085   0.922 -1.1986  1.2778 -0.3400
   30MOL   H26711345   6.201   3.984   0.976  0.0600 -0.0756 -1.7319
   30MOL   C26811346   6.165   4.181   1.052  0.3282  0.7382  0.2817
   30MOL   C26911347   6.266   4.295   1.064  0.0778 -0.4690  0.3544
   30MOL   C27011348   6.226   4.430   1.045  0.1587 -0.7824  0.4500
   30MOL   C27111349   6.322   4.536   1.039 -0.0186 -0.4914 -0.4593
   30MOL   C27211350   6.458   4.510   1.065 -0.0524  1.1913 -0.4193
   30MOL   C27311351   6.560   4.618   1.075 -0.1882  0.0726 -0.1057
   30MOL   C27411352   6.497   4.383   1.098  0.0721  0.2565 -0.4717
   30MOL   C27511353   6.401   4.279   1.095  0.1918 -0.6908 -0.0981
   30MOL   C27611354   6.155   4.119   1.194 -0.1647  0.0187  0.2558
   30MOL   H27711355   6.076   4.225   1.007 -0.4180  0.4116  1.4076
   30MOL   H27811356   6.124   4.455   1.018 -0.4148 -1.7917  1.6106
   30MOL   H27911357   6.295   4.639   1.027  1.1847 -0.1202  0.0002
   30MOL   H28011358   6.523   4.710   1.121  0.4628 -0.8522  2.3022
   30MOL   H28111359   6.635   4.584   1.146 -1.9755 -1.4945  1.0608
   30MOL   H28211360   6.595   4.647   0.976  0.8564  0.8095  0.4677
   30MOL   H28311361   6.594   4.353   1.133 -1.1207 -0.2428  2.5766
   30MOL   H28411362   6.445   4.185   1.123 -0.4394 -0.5852  1.3556
   30MOL   H28511363   6.148   4.200   1.267  0.1846  0.7513 -0.5265
   30MOL   H28611364   6.243   4.062   1.221  0.1366  0.2530 -0.2463
   30MOL   C28711365   6.028   4.027   1.225 -0.1003  0.3676  0.2551
   30MOL   C28811366   5.903   4.108   1.207 -0.2520 -0.8192 -0.6665
   30MOL   C28911367   5.824   4.077   1.099 -0.8068  0.6803  0.3329
   30MOL   C29011368   5.697   4.135   1.074  0.4005  0.9375 -0.3416
   30MOL   C29111369   5.642   4.213   1.177 -0.0406 -0.4385 -0.0971
   30MOL   C29211370   5.509   4.278   1.155 -0.4997 -0.2004 -0.0174
   30MOL   C29311371   5.725   4.257   1.285  0.0158  0.5933 -0.1463
   30MOL   C29411372   5.853   4.209   1.298 -0.1283  0.3957  0.8268
   30MOL   C29511373   6.033   3.955   1.354  0.1111 -0.0417 -1.8487
   30MOL   H29611374   6.033   3.947   1.152  1.4997 -0.8679  1.6713
   30MOL   H29711375   5.853   3.995   1.035 -0.3764  1.8674 -1.0230
   30MOL   H29811376   5.629   4.109   0.995  0.0654  2.2565 -0.5026
   30MOL   H29911377   5.468   4.352   1.223  0.4560  2.1181 -1.8776
   30MOL   H30011378   5.498   4.318   1.054 -0.4113  2.6663  1.0567
   30MOL   H30111379   5.439   4.195   1.162 -0.6404 -0.0432  0.4299
   30MOL   H30211380   5.689   4.321   1.364 -0.1197  0.8591 -0.4246
   30MOL   H30311381   5.916   4.245   1.378  1.1080  1.1086 -0.4352
   30MOL   H30411382   6.060   4.024   1.434 -0.1705 -0.2124 -1.6057
   30MOL   H30511383   6.122   3.893   1.355  1.1502  1.4480 -0.6507
   30MOL   C30611384   5.907   3.871   1.394 -0.4327  0.5053  0.4454
   30MOL   C30711385   5.903   3.839   1.541 -0.3949 -0.2040 -0.5927
   30MOL   C30811386   5.842   3.938   1.622  0.2500  0.0042 -0.4526
   30MOL   C30911387   5.831   3.914   1.756  0.3125 -0.6788  0.6241
   30MOL   C31011388   5.869   3.792   1.813 -0.6011 -0.0842  0.2037
   30MOL   C31111389   5.844   3.772   1.958  0.6564 -0.2433  0.5101
   30MOL   C31211390   5.943   3.701   1.734  0.6113  0.0239  0.4337
   30MOL   C31311391   5.957   3.724   1.597 -0.9170  0.8167 -0.6456
   30MOL   C31411392   5.881   3.748   1.310 -0.0889  0.2786 -0.7103
   30MOL   H31511393   5.819   3.927   1.361 -1.8013 -1.8571 -0.0318
   30MOL   H31611394   5.798   4.028   1.582  1.0906  0.9660  0.7352
   30MOL   H31711395   5.764   3.972   1.818 -1.3156 -0.8052 -0.9826
   30MOL   H31811396   5.924   3.837   1.994  0.7893 -0.3547  0.4190
   30MOL   H31911397   5.747   3.804   1.996  0.8484  1.4273 -0.3783
   30MOL   H32011398   5.863   3.670   1.990 -2.4229 -0.4463  1.8886
   30MOL   H32111399   5.977   3.611   1.784 -0.2315  0.7309  2.3113
   30MOL   H32211400   6.022   3.655   1.545  1.3611  0.2997  2.7562
   30MOL   H32311401   5.958   3.673   1.328 -0.2052  0.4254  0.4203
   30MOL   H32411402   5.899   3.767   1.204  1.2579  0.5481 -0.4376
   30MOL   C32511403   5.747   3.683   1.333  0.5224  0.4359 -0.2714
   30MOL   C32611404   5.756   3.528   1.316  0.6120  0.8095  0.2608
   30MOL   C32711405   5.803   3.453   1.424 -0.1418  0.6503 -0.7595
   30MOL   C32811406   5.813   3.313   1.412  0.0510  0.1320 -0.0792
   30MOL   C32911407   5.783   3.247   1.289  0.2905 -0.2372  0.0343
   30MOL   C33011408   5.798   3.097   1.289 -0.4471  0.0884 -0.3493
   30MOL   C33111409   5.731   3.323   1.184  0.5188 -0.3531 -0.0681
   30MOL   C33211410   5.717   3.459   1.197  0.2157 -0.0400  0.3819
   30MOL   C33311411   5.633   3.751   1.249 -0.2502  0.1688 -0.4812
   30MOL   H33411412   5.702   3.687   1.432  0.3548  1.3413 -0.3792
   30MOL   H33511413   5.824   3.493   1.522  0.1279 -3.0502  0.7717
   30MOL   H33611414   5.842   3.259   1.500 -0.8919 -0.4039 -0.0934
   30MOL   H33711415   5.904   3.074   1.277 -0.6333 -0.7456 -0.4607
   30MOL   H33811416   5.750   3.047   1.373 -1.1503 -0.4804 -1.0819
   30MOL   H33911417   5.745   3.052   1.205  0.0784  0.3480 -0.8243
   30MOL   H34011418   5.695   3.264   1.100  0.2720 -0.0192 -0.1957
   30MOL   H34111419   5.676   3.514   1.114  2.1059  0.8206 -0.0061
   30MOL   H34211420   5.602   3.690   1.164  0.5018 -0.2565 -0.4507
   30MOL   H34311421   5.671   3.844   1.207  0.4318  0.6718  1.1762
   30MOL   C34411422   5.506   3.800   1.325  0.5340  0.2693 -0.3587
   30MOL   C34511423   5.386   3.825   1.243 -0.5410  0.2570  0.4943
   30MOL   C34611424   5.396   3.924   1.139 -0.1808  0.0833 -0.0813
   30MOL   C34711425   5.279   3.958   1.063 -0.6783 -0.2855 -0.2960
   30MOL   C34811426   5.162   3.879   1.080 -0.6188 -0.1438 -0.0418
   30MOL   C34911427   5.039   3.916   1.004  0.4675  0.2506  0.2998
   30MOL   C35011428   5.161   3.769   1.175  1.1205  0.7809  0.5732
   30MOL   C35111429   5.270   3.746   1.260  0.5129 -0.1159 -0.1929
   30MOL   C35211430   5.530   3.925   1.417  0.8641  0.0530  0.0909
   30MOL   H35311431   5.472   3.717   1.387  0.7993  0.7666  0.4559
   30MOL   H35411432   5.488   3.977   1.119 -1.0575  1.0704 -1.6288
   30MOL   H35511433   5.290   4.034   0.988 -0.8049 -1.4388 -1.5086
   30MOL   H35611434   4.946   3.884   1.051  1.7035  0.8918  3.3054
   30MOL   H35711435   5.038   4.023   0.983 -1.6297 -0.4375 -3.3664
   30MOL   H35811436   5.038   3.876   0.903  0.9924  3.0539 -0.8579
   30MOL   H35911437   5.080   3.698   1.187  1.5726  0.0063 -0.9434
   30MOL   H36011438   5.270   3.674   1.340 -0.0285  0.4526  0.3275
   30MOL   H36111439   5.555   4.009   1.353  0.7415  1.4777  1.8575
   30MOL   H36211440   5.619   3.910   1.478  1.1418 -0.6592 -0.4868
   30MOL   C36311441   5.413   3.962   1.509 -0.8003 -0.1961 -0.2808
   30MOL   C36411442   5.378   4.109   1.490 -0.1375 -0.5290 -0.5154
   30MOL   C36511443   5.463   4.218   1.525 -0.4045 -0.6341 -0.2114
   30MOL   C36611444   5.416   4.349   1.524  0.1306  0.1786 -0.0192
   30MOL   C36711445   5.277   4.376   1.499 -0.1349 -0.7728  0.1687
   30MOL   C36811446   5.214   4.514   1.523  0.4563 -0.6422 -0.6395
   30MOL   C36911447   5.195   4.275   1.445  0.0356 -0.2293  0.3357
   30MOL   C37011448   5.248   4.138   1.438 -0.3991  0.2862 -0.3512
   30MOL   C37111449   5.436   3.925   1.665 -0.1742  0.2941 -0.5605
   30MOL   H37211450   5.326   3.902   1.483  0.6388 -3.0740  1.2342
   30MOL   H37311451   5.565   4.190   1.548 -0.9168 -1.5892  0.9882
   30MOL   H37411452   5.482   4.430   1.550 -0.4312  0.0457  1.8722
   30MOL   H37511453   5.274   4.585   1.466 -2.4129  1.3389 -1.2785
   30MOL   H37611454   5.111   4.525   1.488  1.0088  0.7612 -1.8629
   30MOL   H37711455   5.200   4.535   1.629 -0.5517 -0.2654 -0.8407
   30MOL   H37811456   5.099   4.299   1.401  0.8026  1.4184 -0.4963
   30MOL   H37911457   5.182   4.065   1.394 -1.5092  0.7832  0.4757
   30MOL   H38011458   5.368   3.975   1.734  2.3060  0.5114  1.8391
   30MOL   H38111459   5.535   3.965   1.688 -0.0722 -0.5518  0.4637
   30MOL   H38211460   5.444   3.817   1.674 -1.2172  0.0092 -2.7233
   31MOL     C111461   3.089   7.679   4.887  0.1445 -0.3043  0.7331
   31MOL     C211462   3.208   7.768   4.915  0.6737  0.1757  0.2880
   31MOL     C311463   3.218   7.896   4.857 -0.5934 -1.1704  0.1529
   31MOL     C411464   3.320   7.986   4.903 -0.5039  0.8894 -0.0025
   31MOL     C511465   3.403   7.943   5.007  0.1342  0.3573  0.0012
   31MOL     C611466   3.514   8.037   5.064 -0.0563 -0.5043  0.3671
   31MOL     C711467   3.403   7.811   5.052  0.0178  0.0855  0.9200
   31MOL     C811468   3.307   7.718   5.008  0.0866 -0.2658 -0.3739
   31MOL     C911469   2.985   7.687   5.012 -0.0866  0.0707  0.1687
   31MOL    H1011470   3.028   7.713   4.803  2.2829 -0.6527 -1.0029
   31MOL    H1111471   3.158   7.938   4.777 -0.0525 -1.7775 -0.5869
   31MOL    H1211472   3.336   8.080   4.853  0.7313  0.1052 -1.1092
   31MOL    H1311473   3.612   8.014   5.021 -0.9766 -0.3114 -1.9405
   31MOL    H1411474   3.482   0.060   5.052  1.0316  0.0447  2.0529
   31MOL    H1511475   3.517   8.020   5.171 -0.2549  1.1860  0.6520
   31MOL    H1611476   3.459   7.781   5.139  1.8788  2.0299  0.4323
   31MOL    H1711477   3.297   7.624   5.060 -0.3666  1.1177  2.1216
   31MOL    H1811478   2.988   7.784   5.062 -0.9577 -0.6168  1.5904
   31MOL    H1911479   3.028   7.614   5.080  0.3655  1.0333  0.9231
   31MOL    H2011480   3.123   7.580   4.861 -0.4060 -0.2649 -0.1463
   31MOL    C2111481   2.836   7.638   4.983 -0.0133  0.4750 -0.1421
   31MOL    C2211482   2.834   7.489   4.958  0.3461  0.4901 -0.0080
   31MOL    C2311483   2.855   7.436   4.836  0.9428  0.7270 -0.6469
   31MOL    C2411484   2.851   7.298   4.811 -0.1204 -0.0169 -0.0330
   31MOL    C2511485   2.829   7.206   4.922 -0.3679 -0.5403  0.5957
   31MOL    C2611486   2.814   7.061   4.892 -0.1429  0.7743  0.3105
   31MOL    C2711487   2.817   7.261   5.052 -0.3649  0.0949  0.3116
   31MOL    C2811488   2.813   7.400   5.066  0.0019 -0.0120 -0.2068
   31MOL    C2911489   2.761   7.720   4.873  0.1517  0.0009  0.0178
   31MOL    H3011490   2.779   7.639   5.076  2.5879 -2.1268  1.5619
   31MOL    H3111491   2.860   7.499   4.748  0.5794 -1.3864 -2.2541
   31MOL    H3211492   2.875   7.259   4.713  3.2638  1.2167  0.2717
   31MOL    H3311493   2.845   7.002   4.978  1.3432  0.8556 -0.1565
   31MOL    H3411494   2.716   7.037   4.850  0.0206  2.8670 -1.3387
   31MOL    H3511495   2.884   7.031   4.815  0.7328  0.9006  1.0486
   31MOL    H3611496   2.812   7.202   5.142 -0.2420  1.0720  0.9641
   31MOL    H3711497   2.814   7.435   5.168  0.8142 -0.0283 -0.2090
   31MOL    H3811498   2.666   7.671   4.850  0.6051 -1.1424  0.5566
   31MOL    H3911499   2.820   7.715   4.781  0.6530  3.1998  0.1017
   31MOL    C4011500   2.746   7.873   4.908 -0.1976  0.3542  0.4023
   31MOL    C4111501   2.650   7.893   5.020  0.5863 -0.1673 -0.2889
   31MOL    C4211502   2.696   7.899   5.155  0.1061 -0.2672 -0.4172
   31MOL    C4311503   2.608   7.907   5.263  0.0723 -0.3074 -0.5092
   31MOL    C4411504   2.470   7.911   5.240  0.2387  0.3916  0.5926
   31MOL    C4511505   2.370   7.915   5.354  0.5951 -0.1800 -0.5016
   31MOL    C4611506   2.424   7.907   5.107 -0.1795  0.8222 -0.1543
   31MOL    C4711507   2.508   7.904   4.993 -0.2865  0.1383 -0.8030
   31MOL    C4811508   2.724   7.973   4.789  0.8924  0.8445 -0.7820
   31MOL    H4911509   2.846   7.898   4.943  0.2373 -1.2282  0.2999
   31MOL    H5011510   2.801   7.890   5.177  0.2728  0.3480 -0.9353
   31MOL    H5111511   2.657   7.891   5.358  1.0370  0.0701 -0.9448
   31MOL    H5211512   2.288   7.985   5.337 -0.2696 -0.9367  0.5331
   31MOL    H5311513   2.326   7.816   5.355  0.1978 -0.0194 -1.1299
   31MOL    H5411514   2.410   7.932   5.453  0.2160  2.4051 -0.7537
   31MOL    H5511515   2.317   7.915   5.099 -0.3655 -0.0773  1.1643
   31MOL    H5611516   2.464   7.913   4.895  1.1390 -0.0708 -1.4775
   31MOL    H5711517   2.630   7.938   4.745  1.8771 -1.8163 -0.8392
   31MOL    H5811518   2.800   7.959   4.712  0.9889  0.0710 -0.5486
   31MOL    C5911519   2.727   0.048   4.837  0.7418  0.3902 -0.2572
   31MOL    C6011520   2.607   0.133   4.791 -0.2829  0.1175  0.1771
   31MOL    C6111521   2.595   0.170   4.654  0.4148  0.8767 -0.5601
   31MOL    C6211522   2.475   0.238   4.619 -0.3574 -0.3155 -0.5872
   31MOL    C6311523   2.367   0.257   4.711 -1.5781  0.2161  1.0043
   31MOL    C6411524   2.235   0.311   4.668  0.4837 -0.2385 -0.4896
   31MOL    C6511525   2.382   0.219   4.846  0.1878 -0.1219  0.0288
   31MOL    C6611526   2.506   0.158   4.884  0.0395 -0.5450 -0.2786
   31MOL    C6711527   2.872   0.098   4.803  0.4297  0.0814 -0.0500
   31MOL    H6811528   2.722   0.061   4.945 -5.4462 -0.0122 -0.2965
   31MOL    H6911529   2.672   0.148   4.581  0.5490  0.2936 -0.2449
   31MOL    H7011530   2.469   0.274   4.517 -0.0719  0.5540 -0.3031
   31MOL    H7111531   2.152   0.274   4.728 -2.1428  0.9774 -3.2311
   31MOL    H7211532   2.228   0.420   4.668 -1.4907 -0.3379  0.7752
   31MOL    H7311533   2.210   0.282   4.566  0.6753 -1.5465 -0.1737
   31MOL    H7411534   2.302   0.235   4.917  0.9830  0.0475  0.8947
   31MOL    H7511535   2.507   0.134   4.990 -3.3381  0.8976  0.1684
   31MOL    H7611536   2.905   0.051   4.711 -0.1562 -3.0956  1.3170
   31MOL    H7711537   2.936   0.037   4.866  0.8242  0.9477  0.4009
   31MOL    C7811538   2.904   0.255   4.816 -0.6547 -0.4719  0.5743
   31MOL    C7911539   3.009   0.305   4.719 -0.0456 -0.1102  0.1788
   31MOL    C8011540   3.132   0.241   4.727  0.4707 -0.1654  0.7837
   31MOL    C8111541   3.242   0.290   4.660  0.3373 -0.2064 -0.1330
   31MOL    C8211542   3.227   0.399   4.566  0.6752  0.0115 -0.1642
   31MOL    C8311543   3.347   0.461   4.496 -0.1050  0.1822 -0.1454
   31MOL    C8411544   3.097   0.453   4.545 -0.0481 -0.6279 -0.1505
   31MOL    C8511545   2.988   0.408   4.627  1.1808  0.1164 -0.0542
   31MOL    C8611546   2.924   0.295   4.961 -0.3337  0.1730 -0.0620
   31MOL    H8711547   2.818   0.313   4.784  1.6785  3.1329  0.6422
   31MOL    H8811548   3.127   0.154   4.791  0.9093 -0.2400  0.7195
   31MOL    H8911549   3.332   0.231   4.663 -0.2262 -1.0495  0.4548
   31MOL    H9011550   3.419   0.380   4.481 -1.7784 -0.8016 -3.2142
   31MOL    H9111551   3.323   0.490   4.394 -0.8585 -1.5146 -0.4702
   31MOL    H9211552   3.390   0.547   4.547  0.8611 -1.8387  2.6045
   31MOL    H9311553   3.093   0.532   4.471 -0.2078  0.7444  1.2827
   31MOL    H9411554   2.885   0.440   4.621  0.7990 -0.8315  1.2144
   31MOL    H9511555   3.021   0.256   4.994 -0.5472  0.8832  1.4514
   31MOL    H9611556   2.850   0.253   5.028 -0.5538 -0.4553 -0.6969
   31MOL    C9711557   2.917   0.438   5.011  0.4924  0.2116 -0.5938
   31MOL    C9811558   3.012   0.535   4.944 -0.4531 -0.1432  0.0228
   31MOL    C9911559   3.149   0.501   4.935  0.5647  0.0392  0.4754
   31MOL   C10011560   3.249   0.600   4.906  0.3576 -0.6091  0.6089
   31MOL   C10111561   3.211   0.737   4.892 -0.3535 -0.0490 -0.1375
   31MOL   C10211562   3.314   0.844   4.850  0.4694 -0.0201  0.0290
   31MOL   C10311563   3.077   0.771   4.891  0.5733  0.9551 -0.2364
   31MOL   C10411564   2.978   0.673   4.924 -0.6139 -0.2094  0.5931
   31MOL   C10511565   2.954   0.459   5.165  0.0748 -0.0391  0.4335
   31MOL   H10611566   2.817   0.480   5.004  0.1054 -0.2722  1.6774
   31MOL   H10711567   3.177   0.402   4.967  0.4414 -0.4149 -0.7879
   31MOL   H10811568   3.352   0.570   4.894  0.3744 -0.7698  1.1366
   31MOL   H10911569   3.287   0.947   4.871 -0.0526 -0.2126  0.3072
   31MOL   H11011570   3.416   0.832   4.888  0.7326 -0.3173 -0.7424
   31MOL   H11111571   3.329   0.824   4.744  1.4456 -0.7501  0.2951
   31MOL   H11211572   3.038   0.871   4.884 -2.1539  0.0901  1.6474
   31MOL   H11311573   2.877   0.710   4.938 -0.3755  1.2591 -1.3767
   31MOL   H11411574   2.940   0.566   5.185 -0.7109  0.1294 -0.9489
   31MOL   H11511575   3.060   0.443   5.181  0.4691  2.3266  0.4528
   31MOL   C11611576   2.876   0.372   5.269  0.0059  0.3047  0.4514
   31MOL   C11711577   2.724   0.380   5.251  0.1108 -0.4457 -0.1537
   31MOL   C11811578   2.649   0.263   5.245 -1.5984  0.2804  0.2995
   31MOL   C11911579   2.510   0.272   5.231  0.0586 -0.3347 -0.6744
   31MOL   C12011580   2.448   0.401   5.220 -0.2593  0.7032 -1.1386
   31MOL   C12111581   2.294   0.404   5.218 -0.2656  0.4217  0.4796
   31MOL   C12211582   2.531   0.517   5.215 -0.0541 -0.6695 -0.0506
   31MOL   C12311583   2.669   0.507   5.232  0.7148 -0.6118  1.3017
   31MOL   C12411584   2.914   0.404   5.417 -0.3911  0.8834  0.4203
   31MOL   H12511585   2.906   0.271   5.242 -1.2769 -0.1604  0.7547
   31MOL   H12611586   2.700   0.168   5.244 -1.2604  0.4639 -0.1533
   31MOL   H12711587   2.459   0.177   5.241 -0.1509 -0.0784  0.7817
   31MOL   H12811588   2.260   0.302   5.235 -0.5547 -0.3128 -3.8042
   31MOL   H12911589   2.260   0.458   5.306  0.4254  0.9576  0.4246
   31MOL   H13011590   2.264   0.438   5.118  1.5353  0.6259 -0.0114
   31MOL   H13111591   2.486   0.615   5.216 -0.1520 -0.7102 -0.4904
   31MOL   H13211592   2.713   0.606   5.233 -0.6665  0.0617 -1.1562
   31MOL   H13311593   2.862   0.496   5.446  0.8222  1.0851  2.0740
   31MOL   H13411594   3.021   0.423   5.426 -0.4023  0.1895  2.2460
   31MOL   C13511595   2.882   0.294   5.521 -0.0827 -0.3561 -0.1157
   31MOL   C13611596   2.849   0.357   5.659 -0.2915 -0.9951 -0.3501
   31MOL   C13711597   2.949   0.380   5.758  0.2139  0.2792  0.4251
   31MOL   C13811598   2.910   0.421   5.890  0.4504  0.2999  0.3612
   31MOL   C13911599   2.774   0.458   5.914  0.9908  0.0725 -0.1900
   31MOL   C14011600   2.736   0.514   6.049 -0.4317  0.2874  0.0010
   31MOL   C14111601   2.678   0.449   5.809 -0.8740 -0.1292  0.4788
   31MOL   C14211602   2.715   0.400   5.681 -0.6105  0.6557 -0.1435
   31MOL   C14311603   2.996   0.187   5.526  0.4054 -0.8235  0.0361
   31MOL   H14411604   2.787   0.254   5.484  0.3139 -1.4613  0.0568
   31MOL   H14511605   3.056   0.366   5.746  0.1621  0.9738 -0.8775
   31MOL   H14611606   2.991   0.431   5.961 -1.3881 -1.9716  2.9042
   31MOL   H14711607   2.806   0.597   6.061 -0.9864  0.8129 -0.3706
   31MOL   H14811608   2.633   0.549   6.049  0.1223  1.9781 -1.8171
   31MOL   H14911609   2.746   0.441   6.129 -0.7443  0.9199  0.6226
   31MOL   H15011610   2.578   0.480   5.834 -0.0464  1.3082  2.0600
   31MOL   H15111611   2.642   0.391   5.602 -0.5955 -0.4171 -0.0413
   31MOL   H15211612   3.083   0.222   5.582  0.1578 -1.4548  0.8118
   31MOL   H15311613   3.030   0.164   5.425  0.6831  1.7508 -0.5004
   31MOL   C15411614   2.968   0.053   5.592  0.7640  0.4581  0.0653
   31MOL   C15511615   3.077   8.033   5.568 -0.6759 -0.2447 -0.1609
   31MOL   C15611616   3.146   7.973   5.673  0.3095  0.5585 -0.5131
   31MOL   C15711617   3.236   7.871   5.646 -0.6278  0.0114  0.2602
   31MOL   C15811618   3.242   7.822   5.511 -0.3829  0.0782  0.2524
   31MOL   C15911619   3.332   7.701   5.481  0.2075 -0.0697 -0.0947
   31MOL   C16011620   3.177   7.876   5.404 -0.3992  0.4485  0.3696
   31MOL   C16111621   3.097   7.987   5.436  0.1047  1.0917 -0.5210
   31MOL   C16211622   2.826   8.073   5.554 -0.1777  0.4207  0.6750
   31MOL   H16311623   2.971   0.067   5.700 -0.7566  1.9309 -0.0661
   31MOL   H16411624   3.136   8.003   5.776 -0.3154 -1.9803  0.1894
   31MOL   H16511625   3.298   7.834   5.726  0.7072 -1.1340 -1.2629
   31MOL   H16611626   3.349   7.639   5.569  2.4946 -1.7123 -1.6204
   31MOL   H16711627   3.283   7.632   5.413 -0.8482  0.2895  0.2905
   31MOL   H16811628   3.429   7.736   5.444 -0.7863  2.2346 -0.5823
   31MOL   H16911629   3.190   7.845   5.301 -0.5161  1.5440  0.0189
   31MOL   H17011630   3.039   8.033   5.357  0.1112  0.4749 -0.8838
   31MOL   H17111631   2.851   7.969   5.536  2.2586  1.1705 -0.4743
   31MOL   H17211632   2.797   0.040   5.461 -1.9736  3.4652  2.6810
   31MOL   C17311633   2.718   0.014   5.662 -0.8991  0.1535  0.2205
   31MOL   C17411634   2.726   7.984   5.764 -0.8164 -0.3212  0.2650
   31MOL   C17511635   2.759   8.008   5.897 -0.7171  0.2160 -0.3568
   31MOL   C17611636   2.772   7.903   5.995 -0.0638 -0.0043 -0.0935
   31MOL   C17711637   2.744   7.773   5.953 -0.0813 -0.4472 -0.3103
   31MOL   C17811638   2.762   7.648   6.042 -0.1729 -0.4671  0.2246
   31MOL   C17911639   2.706   7.745   5.820 -0.1295  0.1853  0.6086
   31MOL   C18011640   2.696   7.855   5.730  0.2599  0.1526  0.2881
   31MOL   C18111641   2.579   0.034   5.607 -0.6801 -0.1699 -0.0513
   31MOL   H18211642   2.745   0.103   5.718  2.4728  0.4734 -1.7721
   31MOL   H18311643   2.792   0.025   5.933  0.4865  0.1669 -1.2682
   31MOL   H18411644   2.808   7.932   6.093 -1.8826  1.2624  0.2153
   31MOL   H18511645   2.865   7.667   6.074  0.0588  3.8349 -2.6124
   31MOL   H18611646   2.688   7.640   6.121  1.0294  0.5579  1.4972
   31MOL   H18711647   2.774   7.559   5.980  2.6057 -0.4380  0.6577
   31MOL   H18811648   2.694   7.646   5.777  1.0091 -0.2472  1.2716
   31MOL   H18911649   2.667   7.828   5.629  0.0808  0.0481  0.3680
   31MOL   H19011650   2.564   8.024   5.548 -1.5560 -0.4244  0.5458
   31MOL   H19111651   2.572   0.124   5.546  0.9482  0.1074  0.1582
   31MOL   C19211652   2.463   0.052   5.707 -0.3913 -0.2410  0.0759
   31MOL   C19311653   2.322   0.051   5.634  0.2906  0.6412 -0.0094
   31MOL   C19411654   2.285   0.141   5.530  0.0922 -0.0583 -0.6135
   31MOL   C19511655   2.157   0.134   5.477 -0.0501 -0.5390  0.1564
   31MOL   C19611656   2.070   0.031   5.518 -0.0977  0.1033  0.1530
   31MOL   C19711657   1.928   0.023   5.464  0.1058 -0.1454 -0.0648
   31MOL   C19811658   2.106   8.014   5.613 -0.5310  0.1293 -0.2497
   31MOL   C19911659   2.234   8.028   5.673  0.5038 -0.2444  0.1236
   31MOL   C20011660   2.475   0.167   5.804  0.5821  0.6799  0.4695
   31MOL   H20111661   2.461   8.046   5.774 -2.1538 -0.1843  0.1332
   31MOL   H20211662   2.350   0.222   5.502 -1.3593  0.8658 -1.3751
   31MOL   H20311663   2.124   0.213   5.411  0.2733 -0.0479  0.5757
   31MOL   H20411664   1.879   0.119   5.478 -0.0011  0.0765 -1.8998
   31MOL   H20511665   1.929   8.077   5.358  1.5169 -1.4301  0.2514
   31MOL   H20611666   1.868   8.034   5.522 -1.2697  1.7256  0.7853
   31MOL   H20711667   2.050   7.926   5.639  1.7469 -1.4233 -0.4830
   31MOL   H20811668   2.265   7.946   5.735  2.9378  1.1141  0.8120
   31MOL   H20911669   2.506   0.259   5.755  0.7000  1.2614  1.6260
   31MOL   H21011670   2.567   0.146   5.859 -0.9090 -3.0274  1.6999
   31MOL   C21111671   2.359   0.198   5.897  0.0170 -0.3599 -0.0649
   31MOL   C21211672   2.235   0.269   5.837  0.1338 -0.0914  0.3031
   31MOL   C21311673   2.250   0.400   5.781 -0.0064 -0.1021 -1.0456
   31MOL   C21411674   2.142   0.472   5.732 -0.5316 -0.1078 -0.2438
   31MOL   C21511675   2.015   0.417   5.726  0.3312  0.4119  0.1596
   31MOL   C21611676   1.898   0.484   5.663  0.8701  0.0201  1.2407
   31MOL   C21711677   1.995   0.294   5.791 -0.1549  0.0096  0.1873
   31MOL   C21811678   2.103   0.221   5.845  0.8558 -0.2742  0.1598
   31MOL   C21911679   2.419   0.270   6.026 -0.2020 -0.8163  0.5673
   31MOL   H22011680   2.312   0.108   5.937  1.3512 -1.7951 -1.6741
   31MOL   H22111681   2.347   0.444   5.800 -0.0132 -1.2746  2.0310
   31MOL   H22211682   2.169   0.572   5.701  1.6446 -0.6486 -0.1748
   31MOL   H22311683   1.868   0.425   5.577 -0.1955 -0.6084  2.0128
   31MOL   H22411684   1.817   0.470   5.735 -0.6027  0.5785 -0.2695
   31MOL   H22511685   1.914   0.590   5.644  0.6324 -0.3735 -1.2151
   31MOL   H22611686   1.895   0.254   5.793  0.4659 -2.0544 -4.2695
   31MOL   H22711687   2.096   0.127   5.897 -0.5042 -0.5054 -0.4267
   31MOL   H22811688   2.472   0.356   5.986  1.1459 -2.4718 -1.3696
   31MOL   H22911689   2.487   0.197   6.070  1.2730  0.4643  0.4382
   31MOL   C23011690   2.318   0.320   6.134 -0.8521  0.5852  1.4348
   31MOL   C23111691   2.405   0.398   6.231  0.7447 -1.0613  0.4518
   31MOL   C23211692   2.508   0.340   6.307  0.1801  0.0239  0.9272
   31MOL   C23311693   2.589   0.426   6.391  1.3821  0.1142 -0.5081
   31MOL   C23411694   2.559   0.563   6.402  0.2225  0.7077  0.1505
   31MOL   C23511695   2.641   0.653   6.490  0.2054  0.0230  0.0351
   31MOL   C23611696   2.459   0.618   6.320 -0.3909  0.2956  0.3316
   31MOL   C23711697   2.374   0.536   6.248 -0.4719 -0.2344 -0.5117
   31MOL   C23811698   2.233   0.210   6.212  0.8302  0.5713  0.3156
   31MOL   H23911699   2.253   0.388   6.078 -0.6887 -1.8944 -1.8642
   31MOL   H24011700   2.516   0.233   6.305  2.0877  0.1505  0.9596
   31MOL   H24111701   2.663   0.380   6.454  0.1664  0.9946  1.6526
   31MOL   H24211702   2.619   0.759   6.482 -1.9976 -0.2864  1.4807
   31MOL   H24311703   2.624   0.620   6.593  0.0154 -0.5824 -0.1881
   31MOL   H24411704   2.746   0.643   6.462  0.7121 -0.4265  2.0204
   31MOL   H24511705   2.440   0.724   6.327 -1.2944  0.1245  0.4967
   31MOL   H24611706   2.289   0.583   6.202 -1.1433  0.1385  1.0756
   31MOL   H24711707   2.277   0.198   6.311 -0.6347  1.2926  1.0680
   31MOL   H24811708   2.245   0.120   6.152  2.4816  1.5535 -0.8668
   31MOL   C24911709   2.090   0.242   6.233  0.5226 -0.1633 -0.3092
   31MOL   C25011710   2.059   0.383   6.280 -0.3917  0.2011  0.3484
   31MOL   C25111711   1.987   0.466   6.195  0.2673 -0.6564 -0.3846
   31MOL   C25211712   1.945   0.593   6.253  0.1805 -0.2465  0.5949
   31MOL   C25311713   1.983   0.639   6.372  0.0609 -0.4175 -0.3059
   31MOL   C25411714   1.938   0.775   6.421  0.1291  0.7754  0.1322
   31MOL   C25511715   2.070   0.557   6.444  0.4502  0.6877 -0.3890
   31MOL   C25611716   2.105   0.428   6.402  0.3387  0.5396 -0.0594
   31MOL   C25711717   2.020   0.140   6.331  0.3704  0.1055  0.2122
   31MOL   H25811718   2.058   0.223   6.131 -2.0458 -0.7142  0.5314
   31MOL   H25911719   1.969   0.437   6.092  0.2296  0.2642 -0.6436
   31MOL   H26011720   1.887   0.659   6.190  1.5573  0.3496 -0.0716
   31MOL   H26111721   1.862   0.768   6.498  0.0004  1.3086  0.0624
   31MOL   H26211722   2.019   0.837   6.460 -1.1685  1.0344  2.4702
   31MOL   H26311723   1.886   0.826   6.340  0.3269  1.0039  0.1450
   31MOL   H26411724   2.108   0.589   6.540 -1.9274  0.3303  0.7144
   31MOL   H26511725   2.150   0.366   6.478 -2.4564 -0.9724  0.4410
   31MOL   H26611726   2.066   0.140   6.430 -0.4836  0.2740  0.6153
   31MOL   H26711727   2.068   0.053   6.287 -0.7432 -0.2005 -0.4128
   31MOL   C26811728   1.864   0.132   6.316  0.0890  0.8265  0.4920
   31MOL   C26911729   1.798   0.242   6.394 -0.2251 -0.3866  0.2064
   31MOL   C27011730   1.682   0.296   6.348  1.0710 -0.3196  0.6820
   31MOL   C27111731   1.613   0.396   6.420  0.5349  0.5238 -0.1484
   31MOL   C27211732   1.662   0.452   6.539  0.3809  0.5512 -0.2453
   31MOL   C27311733   1.596   0.566   6.602  0.0198 -0.1926  0.5895
   31MOL   C27411734   1.775   0.393   6.587  0.0967 -0.1689  0.6131
   31MOL   C27511735   1.843   0.292   6.517 -0.0546  0.4894 -0.2772
   31MOL   C27611736   1.817   8.072   6.365  0.4023  0.2458 -0.0192
   31MOL   H27711737   1.830   0.155   6.215 -1.1818  0.6314  0.8605
   31MOL   H27811738   1.644   0.263   6.253 -1.0254  1.9159  0.7178
   31MOL   H27911739   1.524   0.428   6.369 -0.5272 -3.9879 -1.3271
   31MOL   H28011740   1.524   0.532   6.676 -1.3860 -1.4080 -1.2643
   31MOL   H28111741   1.666   0.637   6.646 -0.1908 -0.7409  1.8304
   31MOL   H28211742   1.543   0.619   6.523  1.7593 -0.0750 -0.5420
   31MOL   H28311743   1.807   0.424   6.686  1.9387 -0.0552  0.0132
   31MOL   H28411744   1.935   0.252   6.556  0.7271  0.7394 -1.8270
   31MOL   H28511745   1.720   8.074   6.415  0.9421  2.3833  0.9953
   31MOL   H28611746   1.887   8.038   6.441  0.0470  1.5363  0.9113
   31MOL   C28711747   1.819   7.951   6.266 -0.4157 -0.3294  0.4401
   31MOL   C28811748   1.761   7.983   6.132 -0.0708  0.5606  0.4543
   31MOL   C28911749   1.846   8.042   6.032  0.0475 -0.3446  0.1029
   31MOL   C29011750   1.792   8.071   5.912  0.2660 -0.3983 -0.5697
   31MOL   C29111751   1.656   8.038   5.884 -0.0206 -0.3623 -0.0844
   31MOL   C29211752   1.600   8.067   5.750  0.0280 -0.5721 -0.1335
   31MOL   C29311753   1.569   7.986   5.979 -0.2293 -0.6856  0.5561
   31MOL   C29411754   1.623   7.961   6.107  0.4171 -0.0259 -0.0728
   31MOL   C29511755   1.760   7.820   6.327 -0.1956  0.3153  0.0984
   31MOL   H29611756   1.921   7.926   6.235  0.1122  0.3936  1.5904
   31MOL   H29711757   1.951   8.054   6.054  0.0613  0.9992 -0.6883
   31MOL   H29811758   1.857   0.024   5.832 -0.5118  0.3310 -0.9096
   31MOL   H29911759   1.589   7.984   5.680 -0.3508  0.0777 -0.8529
   31MOL   H30011760   1.498   0.024   5.767  0.7581  1.8635 -0.8925
   31MOL   H30111761   1.650   0.070   5.699  0.2831 -0.0313  0.9724
   31MOL   H30211762   1.464   7.967   5.965 -1.1304  1.8703  3.1385
   31MOL   H30311763   1.561   7.911   6.180 -0.2630  1.1483  0.1727
   31MOL   H30411764   1.658   7.847   6.354 -0.4891 -1.5825  0.9397
   31MOL   H30511765   1.799   7.806   6.428 -0.6289 -1.7804  0.0010
   31MOL   C30611766   1.744   7.693   6.245 -0.1752  0.0218  0.5640
   31MOL   C30711767   1.617   7.618   6.291 -0.5550  0.1013  0.0850
   31MOL   C30811768   1.639   7.540   6.401 -0.0952 -0.0931  0.6316
   31MOL   C30911769   1.527   7.467   6.450  0.2130  0.1469 -0.8835
   31MOL   C31011770   1.398   7.475   6.391  0.3601 -0.0230 -1.0300
   31MOL   C31111771   1.293   7.395   6.457 -0.1349 -0.2906  0.1543
   31MOL   C31211772   1.383   7.551   6.274 -0.4890 -0.1284 -0.0516
   31MOL   C31311773   1.493   7.619   6.224 -0.0728  0.4047  0.8134
   31MOL   C31411774   1.865   7.594   6.234 -0.2291 -0.2593  0.1330
   31MOL   H31511775   1.721   7.724   6.143  0.4368 -0.0280  0.4032
   31MOL   H31611776   1.735   7.532   6.449  0.1168  2.2087  0.6406
   31MOL   H31711777   1.539   7.399   6.532 -2.1327 -1.5589 -1.8942
   31MOL   H31811778   1.218   7.377   6.380  0.8120  0.5456 -0.9817
   31MOL   H31911779   1.337   7.305   6.498  0.5765 -0.5159 -1.0635
   31MOL   H32011780   1.257   7.461   6.536 -0.6320 -0.0886 -0.2419
   31MOL   H32111781   1.294   7.565   6.216  0.9591  1.8438 -1.8650
   31MOL   H32211782   1.468   7.683   6.142  4.3038 -1.2732 -1.9955
   31MOL   H32311783   1.828   7.493   6.217 -1.0641  0.4268 -2.3033
   31MOL   H32411784   1.906   7.578   6.334 -1.6810  0.4125  0.8609
   31MOL   C32511785   1.978   7.635   6.129  0.1776  0.6183 -0.5558
   31MOL   C32611786   1.929   7.614   5.985  0.5325 -0.6159  0.0196
   31MOL   C32711787   1.913   7.730   5.908 -0.0659  0.2380  0.3382
   31MOL   C32811788   1.856   7.711   5.778 -0.0188  0.0184  0.2598
   31MOL   C32911789   1.826   7.583   5.722  0.2419 -0.0382  0.3403
   31MOL   C33011790   1.769   7.584   5.588 -0.1682  0.0740 -0.9480
   31MOL   C33111791   1.834   7.475   5.802 -0.6054  0.3624  0.1177
   31MOL   C33211792   1.887   7.486   5.930  0.3234 -0.0074 -0.3793
   31MOL   C33311793   2.113   7.571   6.162 -0.7063  1.1351 -0.1866
   31MOL   H33411794   1.984   7.743   6.142  1.3670  0.4040  0.7712
   31MOL   H33511795   1.932   7.828   5.949 -1.7552  0.0198  1.7141
   31MOL   H33611796   1.845   7.801   5.720 -2.0679  0.3009  1.0511
   31MOL   H33711797   1.716   7.493   5.560 -0.3020 -0.7347  1.8683
   31MOL   H33811798   1.702   7.669   5.581 -1.9108 -1.3477 -1.8986
   31MOL   H33911799   1.849   7.588   5.513 -2.7279 -0.5157 -3.7832
   31MOL   H34011800   1.806   7.376   5.770 -1.2932  0.7205 -0.4150
   31MOL   H34111801   1.897   7.401   5.995  0.2391  1.3818  1.5210
   31MOL   H34211802   2.096   7.475   6.113  0.3561  0.8162  0.0582
   31MOL   H34311803   2.128   7.553   6.268 -2.9184 -4.5129 -0.6564
   31MOL   C34411804   2.232   7.652   6.100 -0.5591  0.0413 -0.2281
   31MOL   C34511805   2.338   7.566   6.048 -0.1945  0.1963 -0.6912
   31MOL   C34611806   2.372   7.576   5.912 -1.0058 -0.6706 -0.7437
   31MOL   C34711807   2.472   7.497   5.854 -0.4392 -0.8198 -0.4977
   31MOL   C34811808   2.534   7.394   5.924 -0.6711 -1.0863 -0.4843
   31MOL   C34911809   2.653   7.320   5.861 -0.4466  0.1894 -0.1741
   31MOL   C35011810   2.497   7.381   6.061 -0.0858 -0.2075 -0.2836
   31MOL   C35111811   2.405   7.467   6.121 -0.2768 -0.3530  1.0630
   31MOL   C35211812   2.283   7.758   6.208 -0.7128 -0.9534  0.1419
   31MOL   H35311813   2.190   7.714   6.022 -0.7242 -0.7637 -0.7782
   31MOL   H35411814   2.321   7.647   5.848  0.4627 -0.1906 -1.3995
   31MOL   H35511815   2.493   7.507   5.748  0.2359  1.9528 -0.1265
   31MOL   H35611816   2.746   7.317   5.919 -0.8002 -0.2520  0.3765
   31MOL   H35711817   2.611   7.227   5.823 -1.3516  1.5533 -2.5796
   31MOL   H35811818   2.678   7.382   5.775  1.7422  0.8023  0.8707
   31MOL   H35911819   2.555   7.315   6.124  1.0079  1.2022  0.2283
   31MOL   H36011820   2.389   7.461   6.228  3.8343 -0.4044  1.7847
   31MOL   H36111821   2.298   7.703   6.301 -1.6493 -0.1224  0.7918
   31MOL   H36211822   2.203   7.824   6.240 -0.7741 -1.7978  1.7780
   31MOL   C36311823   2.409   7.833   6.165 -1.1602 -0.4365  0.2028
   31MOL   C36411824   2.462   7.910   6.280 -0.0907 -0.4429 -0.3519
   31MOL   C36511825   2.384   8.011   6.345  0.1849  0.3021 -0.7538
   31MOL   C36611826   2.440   0.012   6.444 -0.5751 -0.0674 -0.3024
   31MOL   C36711827   2.577   8.077   6.475 -0.4180  0.1465 -0.1658
   31MOL   C36811828   2.643   0.074   6.584  0.3640 -0.3128  0.3835
   31MOL   C36911829   2.655   7.983   6.413 -0.1176  0.2841 -0.0080
   31MOL   C37011830   2.599   7.901   6.315 -0.0573 -0.0585  0.3229
   31MOL   C37111831   2.389   7.921   6.046 -0.3413 -0.1433  0.4864
   31MOL   H37211832   2.487   7.765   6.132  2.4705  4.4627 -2.0817
   31MOL   H37311833   2.281   8.026   6.315 -0.1135  1.5721  0.8088
   31MOL   H37411834   2.380   0.092   6.484 -1.0606 -0.7572  0.3766
   31MOL   H37511835   2.628   0.025   6.680 -3.3786 -1.4113 -0.6860
   31MOL   H37611836   2.751   0.075   6.569  0.1860  1.3732 -0.9600
   31MOL   H37711837   2.594   0.172   6.578  2.0666  0.6193  1.2748
   31MOL   H37811838   2.763   7.978   6.424 -0.1970 -0.7804  0.2865
   31MOL   H37911839   2.667   7.833   6.266  1.1990  1.0950  0.4230
   31MOL   H38011840   2.306   7.992   6.048  2.1651  3.0415 -1.5769
   31MOL   H38111841   2.358   7.855   5.965 -3.7807 -2.8631  3.8811
   31MOL   H38211842   2.478   7.981   6.029 -0.2308 -0.4210  0.0678
   32MOL     C111843   3.628   4.565   5.548  0.1845  0.1327 -0.3507
   32MOL     C211844   3.526   4.662   5.516  0.5117 -0.3333 -0.6880
   32MOL     C311845   3.488   4.682   5.379  0.8439  0.2233 -0.0448
   32MOL     C411846   3.397   4.779   5.339 -0.0542 -0.1152 -0.4570
   32MOL     C511847   3.336   4.855   5.440 -0.2263 -0.0531 -0.2615
   32MOL     C611848   3.221   4.954   5.409 -0.3750 -0.5756 -0.0110
   32MOL     C711849   3.373   4.844   5.579  0.1964 -0.0607  0.1231
   32MOL     C811850   3.459   4.741   5.620 -0.7565 -0.0042 -0.1448
   32MOL     C911851   3.600   4.422   5.491  0.1761 -0.1941  0.0196
   32MOL    H1011852   3.719   4.602   5.501 -1.3922  1.8957 -2.1102
   32MOL    H1111853   3.539   4.626   5.302 -0.0055 -1.5873  0.7019
   32MOL    H1211854   3.375   4.797   5.235 -1.0397 -0.3547 -0.2930
   32MOL    H1311855   3.258   5.049   5.372  1.3437 -1.7418 -1.3870
   32MOL    H1411856   3.161   4.920   5.324 -2.1605 -1.7039  1.6729
   32MOL    H1511857   3.150   4.967   5.490 -0.4370  0.3577 -0.2078
   32MOL    H1611858   3.320   4.906   5.650  0.0117 -0.4951  0.3682
   32MOL    H1711859   3.480   4.728   5.726 -0.9738  1.0802  0.0323
   32MOL    H1811860   3.679   4.354   5.523  1.4626  0.4807 -1.6232
   32MOL    H1911861   3.598   4.427   5.382 -1.2729 -0.0682  0.0398
   32MOL    H2011862   3.646   4.557   5.655 -0.1065 -0.1576 -0.3229
   32MOL    C2111863   3.466   4.356   5.549  0.0038  0.4066  0.6136
   32MOL    C2211864   3.479   4.342   5.697 -0.6405 -0.1031  0.3340
   32MOL    C2311865   3.579   4.256   5.751 -0.2487  0.1652 -0.1931
   32MOL    C2411866   3.592   4.250   5.888  0.2237 -0.4661  0.1842
   32MOL    C2511867   3.512   4.329   5.976 -0.4714  0.0602  0.0908
   32MOL    C2611868   3.514   4.311   6.125  0.0223  0.0507  0.2620
   32MOL    C2711869   3.421   4.418   5.916  0.5252  0.0323  0.3067
   32MOL    C2811870   3.404   4.427   5.778  0.5451  0.5852 -0.3463
   32MOL    C2911871   3.440   4.229   5.461 -0.7428 -0.1569  0.5835
   32MOL    H3011872   3.383   4.423   5.528 -0.9718 -1.4079 -1.7142
   32MOL    H3111873   3.651   4.209   5.686  1.0213  3.3791 -1.2130
   32MOL    H3211874   3.665   4.184   5.932 -0.1854  1.3818  3.8164
   32MOL    H3311875   3.474   4.398   6.176 -1.2030 -1.0112  1.1436
   32MOL    H3411876   3.442   4.234   6.153 -1.7923  1.6275  0.0594
   32MOL    H3511877   3.609   4.291   6.174 -0.8438  0.1497  2.0259
   32MOL    H3611878   3.352   4.478   5.974 -1.1155 -0.6651 -0.8750
   32MOL    H3711879   3.330   4.488   5.727 -0.1326 -0.0637 -0.1448
   32MOL    H3811880   3.360   4.168   5.504 -1.3485  1.2407  1.4679
   32MOL    H3911881   3.524   4.161   5.452 -1.5363 -0.7326 -3.2358
   32MOL    C4011882   3.385   4.272   5.321  0.4002  0.2785 -0.5839
   32MOL    C4111883   3.236   4.308   5.344  0.4189 -0.1425  0.0367
   32MOL    C4211884   3.197   4.441   5.360 -0.7167  0.4662 -0.1119
   32MOL    C4311885   3.071   4.490   5.366 -0.1433  0.4122  0.0613
   32MOL    C4411886   2.970   4.393   5.353  0.4391 -0.8143 -0.5350
   32MOL    C4511887   2.817   4.428   5.356  0.5916  0.2607 -1.4562
   32MOL    C4611888   3.004   4.258   5.349  0.0401  0.0456  0.1383
   32MOL    C4711889   3.135   4.210   5.344  0.0832 -0.3924  0.1947
   32MOL    C4811890   3.408   4.170   5.208 -0.4090 -0.2766 -0.6639
   32MOL    H4911891   3.430   4.364   5.285 -0.8161  1.4680  0.8930
   32MOL    H5011892   3.278   4.512   5.366 -0.4494  0.1125  0.4502
   32MOL    H5111893   3.050   4.596   5.357  1.0096  0.6598  0.1532
   32MOL    H5211894   2.773   4.381   5.443  0.1154 -0.4301 -2.0660
   32MOL    H5311895   2.807   4.536   5.361 -0.1988  0.1330 -0.1479
   32MOL    H5411896   2.764   4.388   5.270 -1.0841  1.6931 -1.1046
   32MOL    H5511897   2.928   4.181   5.346  0.9434 -0.8988  1.1121
   32MOL    H5611898   3.156   4.106   5.322 -0.0925 -0.4444  0.2712
   32MOL    H5711899   3.359   4.202   5.116  1.9719  1.1332 -1.4963
   32MOL    H5811900   3.365   4.075   5.240 -0.3177  0.4630  1.7258
   32MOL    C5911901   3.553   4.125   5.181  0.0830  0.7084  0.2344
   32MOL    C6011902   3.630   4.252   5.142 -0.0383 -0.8415 -0.3664
   32MOL    C6111903   3.758   4.274   5.196  0.0530  0.4696 -0.4731
   32MOL    C6211904   3.842   4.385   5.159  0.3423 -0.0208  0.4079
   32MOL    C6311905   3.783   4.481   5.076 -0.2829 -0.5385  0.0922
   32MOL    C6411906   3.856   4.616   5.053  0.0519  0.2261 -0.5809
   32MOL    C6511907   3.658   4.461   5.019 -0.4530  0.2893  0.3654
   32MOL    C6611908   3.581   4.350   5.048  0.1020  0.0485 -0.2048
   32MOL    C6711909   3.554   4.028   5.057  0.7319 -0.5946  0.0703
   32MOL    H6811910   3.590   4.080   5.273  2.8550 -0.6332 -1.4680
   32MOL    H6911911   3.802   4.192   5.252  0.2069  0.9265  0.0750
   32MOL    H7011912   3.941   4.394   5.202  0.8247  0.5385 -0.7956
   32MOL    H7111913   3.812   4.670   4.969 -1.2922  0.1077  0.0322
   32MOL    H7211914   3.854   4.661   5.152 -1.1783  0.5584 -0.7527
   32MOL    H7311915   3.961   4.603   5.027  0.2086  1.5602 -0.6419
   32MOL    H7411916   3.609   4.536   4.959 -1.1189 -0.6878 -0.3413
   32MOL    H7511917   3.477   4.350   5.017 -0.6704 -0.4549  2.2719
   32MOL    H7611918   3.652   4.029   5.010  0.7630  0.5441  0.1534
   32MOL    H7711919   3.481   4.064   4.985  1.2029  2.8170  1.2274
   32MOL    C7811920   3.521   3.878   5.092  0.4568 -0.0136  0.2951
   32MOL    C7911921   3.616   3.836   5.204 -0.3541  1.1348  0.0733
   32MOL    C8011922   3.564   3.832   5.339  0.3441  0.7752 -0.4070
   32MOL    C8111923   3.656   3.805   5.440 -0.6664  0.3674 -0.0413
   32MOL    C8211924   3.784   3.767   5.411 -0.6674 -0.3605 -0.1818
   32MOL    C8311925   3.892   3.746   5.515 -0.2361  0.3083  0.1895
   32MOL    C8411926   3.838   3.769   5.280  0.6768  0.0868 -0.2758
   32MOL    C8511927   3.748   3.809   5.173  0.0163  0.1704  0.2451
   32MOL    C8611928   3.513   3.772   4.982  0.0623 -0.0394  0.7947
   32MOL    H8711929   3.422   3.885   5.135  1.0213 -0.7766  1.7462
   32MOL    H8811930   3.462   3.857   5.365  0.2606  0.3600 -0.3292
   32MOL    H8911931   3.619   3.806   5.541  0.6859  2.1115  0.4805
   32MOL    H9011932   3.958   3.832   5.528 -0.3368  0.5136 -0.6617
   32MOL    H9111933   3.850   3.701   5.605  0.4217  0.3041  0.5008
   32MOL    H9211934   3.949   3.658   5.483 -3.5340 -2.0257  0.5307
   32MOL    H9311935   3.941   3.745   5.256  0.9144 -0.0223  0.8057
   32MOL    H9411936   3.781   3.830   5.072 -2.4201  1.4826 -0.3085
   32MOL    H9511937   3.602   3.779   4.920 -0.3132 -1.1646  0.1086
   32MOL    H9611938   3.435   3.800   4.912  0.1996 -1.9470 -0.1560
   32MOL    C9711939   3.501   3.625   5.015  0.8990 -0.2670 -0.9160
   32MOL    C9811940   3.500   3.537   4.891 -0.2070 -0.0412 -0.4945
   32MOL    C9911941   3.383   3.518   4.810  0.7769  0.0360  0.3213
   32MOL   C10011942   3.386   3.434   4.692 -0.0555 -0.6767 -0.0067
   32MOL   C10111943   3.508   3.373   4.659 -0.1395 -0.6471  0.8811
   32MOL   C10211944   3.525   3.289   4.538  0.2168 -0.2542  0.0927
   32MOL   C10311945   3.623   3.376   4.746  0.3235 -1.1277 -0.2807
   32MOL   C10411946   3.618   3.460   4.862 -0.0769  0.4158 -0.2163
   32MOL   C10511947   3.374   3.579   5.097 -0.4227 -0.3316  0.0863
   32MOL   H10611948   3.590   3.595   5.070  0.2942 -0.3091  0.0578
   32MOL   H10711949   3.294   3.574   4.837  1.6403  0.7622  1.7161
   32MOL   H10811950   3.301   3.416   4.628  0.8373  1.7341 -1.9682
   32MOL   H10911951   3.495   3.186   4.559  0.2360 -0.2289  0.2408
   32MOL   H11011952   3.471   3.338   4.457  1.1899  1.0848  0.2454
   32MOL   H11111953   3.629   3.288   4.507 -0.3120 -1.7029 -1.7474
   32MOL   H11211954   3.712   3.329   4.707  0.9986  0.8025 -1.1311
   32MOL   H11311955   3.708   3.483   4.917  0.1530  1.5862 -1.0384
   32MOL   H11411956   3.279   3.593   5.046 -0.8549  1.3804  1.2983
   32MOL   H11511957   3.355   3.651   5.177  1.2030  2.1132 -1.6227
   32MOL   C11611958   3.375   3.432   5.147  0.5834  0.0920  0.0730
   32MOL   C11711959   3.231   3.375   5.143 -0.5951  0.0714  0.7261
   32MOL   C11811960   3.203   3.247   5.082  0.0345  0.6460 -0.8554
   32MOL   C11911961   3.076   3.191   5.086 -0.0164 -0.0102  0.2267
   32MOL   C12011962   2.967   3.259   5.160 -0.7788  0.4323  0.1115
   32MOL   C12111963   2.827   3.206   5.172 -0.7601  0.0677  0.1082
   32MOL   C12211964   3.005   3.377   5.235  0.3885 -0.1313 -0.6061
   32MOL   C12311965   3.132   3.438   5.220  0.0358 -0.3018 -0.4901
   32MOL   C12411966   3.435   3.414   5.287  0.5307 -0.4730  0.3842
   32MOL   H12511967   3.431   3.374   5.073  1.7250  1.5202 -0.2183
   32MOL   H12611968   3.284   3.191   5.038  0.6015  0.1580  0.7677
   32MOL   H12711969   3.058   3.098   5.035  0.1801 -0.2738  0.6358
   32MOL   H12811970   2.745   3.274   5.147  0.3825  2.0366  1.5882
   32MOL   H12911971   2.807   3.133   5.094 -1.3403  0.1104  0.2169
   32MOL   H13011972   2.820   3.164   5.272 -0.7669 -1.8335 -0.6799
   32MOL   H13111973   2.933   3.430   5.295  0.7778  1.0448 -1.1581
   32MOL   H13211974   3.159   3.518   5.287  0.9997 -2.5165  1.8251
   32MOL   H13311975   3.360   3.420   5.366  1.1873  2.6586  0.8342
   32MOL   H13411976   3.474   3.513   5.313  0.5750  0.1729 -2.0262
   32MOL   C13511977   3.524   3.287   5.311  0.5385 -0.1761 -0.0710
   32MOL   C13611978   3.644   3.283   5.218 -0.0196 -0.1794  0.0476
   32MOL   C13711979   3.655   3.185   5.117  0.7499  0.4678  0.4327
   32MOL   C13811980   3.766   3.183   5.030 -0.5657 -0.5895  0.2680
   32MOL   C13911981   3.874   3.266   5.062  0.6781 -0.4971 -0.1592
   32MOL   C14011982   4.013   3.245   5.001 -0.4153 -0.2245  0.1612
   32MOL   C14111983   3.863   3.367   5.156  0.0679  0.6837  0.4473
   32MOL   C14211984   3.748   3.382   5.233  0.7282 -0.9465 -0.1860
   32MOL   C14311985   3.437   3.156   5.325 -0.7342 -0.1053  0.4462
   32MOL   H14411986   3.577   3.303   5.405  2.9662 -1.6969 -1.1344
   32MOL   H14511987   3.566   3.125   5.104  0.5884  1.2508 -2.3197
   32MOL   H14611988   3.779   3.100   4.963 -1.7349 -0.9201  0.4333
   32MOL   H14711989   4.085   3.208   5.074  0.0912 -1.5896 -0.9924
   32MOL   H14811990   4.014   3.171   4.921 -1.4227  0.4693 -0.5074
   32MOL   H14911991   4.062   3.336   4.967  0.0779 -0.3759  0.4692
   32MOL   H15011992   3.948   3.431   5.171  1.2307 -0.8878  0.6437
   32MOL   H15111993   3.745   3.455   5.312  0.3405 -1.4105  0.2333
   32MOL   H15211994   3.498   3.067   5.345  0.4858  0.6718  0.2358
   32MOL   H15311995   3.399   3.134   5.226  1.1292  1.2135 -0.6021
   32MOL   C15411996   3.331   3.158   5.429 -0.2885 -0.5194 -0.5025
   32MOL   C15511997   3.384   3.164   5.574  0.0496 -0.3093 -0.1805
   32MOL   C15611998   3.475   3.060   5.617 -0.0733 -0.0711  0.3941
   32MOL   C15711999   3.538   3.078   5.741 -0.1840  0.5732  0.2327
   32MOL   C15812000   3.509   3.196   5.820  0.2203 -0.4208  0.1848
   32MOL   C15912001   3.580   3.221   5.951  0.3256 -0.0859 -0.5051
   32MOL   C16012002   3.426   3.298   5.779  0.1143  0.0713 -0.3701
   32MOL   C16112003   3.359   3.275   5.660 -0.3666 -0.3012  0.1241
   32MOL   C16212004   3.237   3.033   5.404 -0.3644  0.0956  0.6574
   32MOL   H16312005   3.260   3.238   5.409 -0.8473 -0.8784  0.0167
   32MOL   H16412006   3.483   2.971   5.556  1.5085  0.2510  0.0907
   32MOL   H16512007   3.605   2.998   5.767 -0.6911  0.6340  1.8125
   32MOL   H16612008   3.688   3.228   5.936  0.6487 -0.2402  1.6458
   32MOL   H16712009   3.537   3.302   6.009  0.8584 -0.3367  0.2418
   32MOL   H16812010   3.570   3.131   6.012  1.3186  1.2486  1.6765
   32MOL   H16912011   3.411   3.394   5.826  1.4186 -0.1269  0.4742
   32MOL   H17012012   3.288   3.349   5.624  0.1523 -0.7675 -1.8836
   32MOL   H17112013   3.296   2.941   5.394 -1.6916 -0.8947  1.7188
   32MOL   H17212014   3.191   3.048   5.307 -0.6500 -3.7018  0.1184
   32MOL   C17312015   3.120   3.010   5.502  0.4345  0.3897 -0.9342
   32MOL   C17412016   3.082   2.863   5.511  0.3136 -0.2983  0.8630
   32MOL   C17512017   3.045   2.793   5.396  0.3447 -0.0866 -0.5828
   32MOL   C17612018   3.021   2.655   5.405  0.1076  1.1580 -0.1810
   32MOL   C17712019   3.022   2.584   5.531 -0.5035 -0.9707  0.1826
   32MOL   C17812020   3.010   2.434   5.536  0.6600 -0.1172 -0.1313
   32MOL   C17912021   3.051   2.659   5.648  0.2569  0.6192  0.2589
   32MOL   C18012022   3.080   2.796   5.636  0.2732  0.2325 -0.1693
   32MOL   C18112023   3.005   3.112   5.487 -0.2228 -0.2823  0.4647
   32MOL   H18212024   3.159   3.030   5.601 -2.0160 -0.2966  0.2036
   32MOL   H18312025   3.043   2.838   5.298 -0.1748  2.3159  0.4900
   32MOL   H18412026   3.006   2.600   5.314  2.3488 -1.6031  1.0382
   32MOL   H18512027   2.964   2.382   5.452  0.5240 -2.3594  1.2999
   32MOL   H18612028   3.111   2.397   5.551  0.4515 -0.5521  0.2095
   32MOL   H18712029   2.956   2.397   5.623  1.8643 -0.5052  0.4480
   32MOL   H18812030   3.054   2.609   5.744 -0.9532  0.1787  0.0715
   32MOL   H18912031   3.109   2.852   5.724  0.6270 -0.8226  0.3956
   32MOL   H19012032   2.958   3.083   5.393 -0.4633 -0.7954  0.7435
   32MOL   H19112033   3.029   3.215   5.463  1.3217 -0.8846 -0.6710
   32MOL   C19212034   2.889   3.119   5.591 -0.3060  0.6676 -0.7674
   32MOL   C19312035   2.766   3.191   5.524 -0.0566 -0.1643  0.4363
   32MOL   C19412036   2.776   3.326   5.494 -0.2805  0.1890 -0.7334
   32MOL   C19512037   2.662   3.394   5.443  0.1442 -0.8067 -0.5071
   32MOL   C19612038   2.539   3.325   5.426  1.2300  0.3308 -0.3931
   32MOL   C19712039   2.409   3.396   5.384 -0.2670 -0.7534  1.0589
   32MOL   C19812040   2.529   3.192   5.463 -0.2021  0.0297  0.0633
   32MOL   C19912041   2.645   3.123   5.504 -0.0288 -0.2407 -1.3967
   32MOL   C20012042   2.933   3.188   5.719  0.1687  0.2782 -0.3781
   32MOL   H20112043   2.864   3.013   5.603  1.6359 -0.2490 -3.9720
   32MOL   H20212044   2.865   3.385   5.510 -0.8851  1.2013 -1.0717
   32MOL   H20312045   2.685   3.498   5.422  3.1647 -1.2717  0.3415
   32MOL   H20412046   2.329   3.327   5.357 -3.1650  2.8638 -0.0817
   32MOL   H20512047   2.364   3.456   5.463  0.3413  0.8774  0.1916
   32MOL   H20612048   2.426   3.469   5.305  1.3950 -1.2628  0.9262
   32MOL   H20712049   2.440   3.139   5.432 -0.8225  0.5492  0.9419
   32MOL   H20812050   2.642   3.020   5.537  0.9242 -0.5090 -2.1377
   32MOL   H20912051   2.988   3.278   5.691  0.8243 -0.5033 -1.6783
   32MOL   H21012052   3.017   3.130   5.758  1.1127  1.0505 -1.2135
   32MOL   C21112053   2.820   3.215   5.824  0.2575 -0.4193 -0.4019
   32MOL   C21212054   2.872   3.309   5.935  0.1810 -0.3068 -0.6202
   32MOL   C21312055   2.975   3.268   6.020  0.0252 -0.1653  0.1636
   32MOL   C21412056   3.028   3.351   6.122  0.5026 -0.0970 -0.0373
   32MOL   C21512057   2.972   3.479   6.138  0.0558 -0.2591 -0.2262
   32MOL   C21612058   3.022   3.576   6.248 -0.6503  0.3891  0.2810
   32MOL   C21712059   2.877   3.529   6.049  0.0792 -0.4358  0.4359
   32MOL   C21812060   2.823   3.438   5.954 -0.2988 -0.1820  0.5471
   32MOL   C21912061   2.754   3.085   5.870  0.2015 -0.0105 -0.0648
   32MOL   H22012062   2.754   3.285   5.774  0.3280  0.4970  0.7955
   32MOL   H22112063   3.014   3.170   6.001 -0.8393 -0.6546  0.8533
   32MOL   H22212064   3.105   3.322   6.192 -0.4776  0.0164  1.1024
   32MOL   H22312065   3.083   3.534   6.328 -2.2669 -1.8988  0.3675
   32MOL   H22412066   3.075   3.658   6.201  0.9044  0.0451  1.4013
   32MOL   H22512067   2.934   3.608   6.304 -0.2215  0.2832  1.0256
   32MOL   H22612068   2.844   3.630   6.064  2.3558  0.6519 -1.4730
   32MOL   H22712069   2.741   3.471   5.892  2.4708  0.4378 -2.9748
   32MOL   H22812070   2.831   3.033   5.927 -3.2736 -2.2527  2.7517
   32MOL   H22912071   2.747   3.022   5.781 -2.6807 -0.6680  0.5999
   32MOL   C23012072   2.616   3.094   5.941 -0.3000 -0.0994  0.1757
   32MOL   C23112073   2.592   2.956   6.006  0.1385 -0.4734 -0.1768
   32MOL   C23212074   2.541   2.848   5.942 -0.4003 -0.3566  0.9086
   32MOL   C23312075   2.514   2.727   6.006 -0.1289  0.5227 -0.4835
   32MOL   C23412076   2.542   2.715   6.140  0.3798  0.3147 -1.1085
   32MOL   C23512077   2.516   2.584   6.211 -0.2149 -0.2356 -0.5360
   32MOL   C23612078   2.602   2.822   6.212  0.4338  0.3107  0.6886
   32MOL   C23712079   2.616   2.948   6.144  0.7845 -1.0402  0.6432
   32MOL   C23812080   2.500   3.142   5.844  0.1679  0.7913 -0.6616
   32MOL   H23912081   2.640   3.159   6.025 -0.2372  0.5546 -0.3507
   32MOL   H24012082   2.525   2.849   5.836  1.4206  1.9502  0.5889
   32MOL   H24112083   2.474   2.648   5.945  0.1153  1.1657 -1.5013
   32MOL   H24212084   2.562   2.508   6.147  2.6665  1.6543 -0.7794
   32MOL   H24312085   2.563   2.582   6.309 -1.2566  0.7051 -0.0058
   32MOL   H24412086   2.408   2.565   6.209 -0.8015  2.8378 -0.2258
   32MOL   H24512087   2.634   2.815   6.314  0.2937 -0.3112  0.6894
   32MOL   H24612088   2.656   3.028   6.205  1.3896 -0.6102 -0.3080
   32MOL   H24712089   2.446   3.063   5.791 -2.1648  0.9018  1.4119
   32MOL   H24812090   2.540   3.202   5.762  1.5216 -1.0880 -1.3927
   32MOL   C24912091   2.394   3.225   5.918 -0.7619 -0.0833 -0.0975
   32MOL   C25012092   2.276   3.238   5.823  0.2711  0.1545  0.0381
   32MOL   C25112093   2.167   3.152   5.828 -0.2245  0.1429  0.2850
   32MOL   C25212094   2.060   3.153   5.736  0.4967 -0.5314 -0.4695
   32MOL   C25312095   2.053   3.260   5.646 -0.1197 -0.1576 -0.5821
   32MOL   C25412096   1.947   3.258   5.542  0.4173 -0.6526  0.1625
   32MOL   C25512097   2.158   3.351   5.644 -0.2964  0.0474  0.3921
   32MOL   C25612098   2.274   3.339   5.730 -0.1350 -0.7767  0.0448
   32MOL   C25712099   2.458   3.359   5.966 -0.2425 -0.7923 -0.4731
   32MOL   H25812100   2.356   3.173   6.007  0.7498 -3.1530 -1.1634
   32MOL   H25912101   2.172   3.073   5.902 -2.1833 -1.4259 -1.1857
   32MOL   H26012102   1.993   3.068   5.736 -0.2018  0.0046  1.0270
   32MOL   H26112103   1.965   3.171   5.478 -0.2148 -1.7974  1.5086
   32MOL   H26212104   1.843   3.246   5.571  0.4538 -0.3875  0.3972
   32MOL   H26312105   1.969   3.346   5.481 -1.3142 -1.7471 -2.1357
   32MOL   H26412106   2.144   3.432   5.574  0.3019  2.6919  3.2434
   32MOL   H26512107   2.356   3.408   5.723 -0.4626  0.0769  3.7259
   32MOL   H26612108   2.505   3.415   5.885  1.1712 -2.0979 -0.5733
   32MOL   H26712109   2.546   3.343   6.027 -0.0583  2.7616  0.3116
   32MOL   C26812110   2.365   3.457   6.044  0.1821 -0.9170  0.1722
   32MOL   C26912111   2.453   3.577   6.072  0.1440  0.0245  0.3334
   32MOL   C27012112   2.539   3.586   6.188  0.3304  0.2740  0.3394
   32MOL   C27112113   2.609   3.701   6.217  0.7389 -0.3460  0.1483
   32MOL   C27212114   2.611   3.799   6.116 -0.3245  0.0218 -0.1895
   32MOL   C27312115   2.700   3.918   6.142 -0.2029  0.0194 -0.2315
   32MOL   C27412116   2.538   3.789   5.997 -0.0979 -0.1171  0.6527
   32MOL   C27512117   2.452   3.681   5.984 -0.0353 -0.6414  0.0246
   32MOL   C27612118   2.303   3.385   6.168  0.7192  0.6580 -0.5511
   32MOL   H27712119   2.282   3.480   5.977  0.2569 -2.1290 -0.3521
   32MOL   H27812120   2.532   3.505   6.259  2.2535 -1.7257 -1.6966
   32MOL   H27912121   2.655   3.718   6.313  0.0908 -0.4947  0.4864
   32MOL   H28012122   2.653   3.984   6.216  0.3612  0.2189 -0.0502
   32MOL   H28112123   2.791   3.873   6.179  0.0985  0.7406 -0.0932
   32MOL   H28212124   2.725   3.964   6.046 -2.6220 -1.3696 -1.5825
   32MOL   H28312125   2.543   3.865   5.921 -0.0963 -1.6674 -0.9136
   32MOL   H28412126   2.384   3.677   5.901  0.0497  0.1087 -0.0924
   32MOL   H28512127   2.390   3.359   6.228 -1.9941 -2.4620  2.2621
   32MOL   H28612128   2.251   3.300   6.125  0.6195 -0.3582  1.5355
   32MOL   C28712129   2.208   3.478   6.253 -0.3206  0.9375  0.1697
   32MOL   C28812130   2.251   3.474   6.401  0.6243  0.1112  0.0418
   32MOL   C28912131   2.299   3.354   6.467  0.0601 -0.5214  0.7538
   32MOL   C29012132   2.330   3.369   6.604 -0.1539  0.1307  0.0908
   32MOL   C29112133   2.332   3.496   6.665 -0.0874 -0.2154 -0.5823
   32MOL   C29212134   2.372   3.512   6.810  0.1279 -0.1832  0.0701
   32MOL   C29312135   2.298   3.613   6.597  0.4386 -0.3476 -0.0689
   32MOL   C29412136   2.250   3.599   6.467  0.7468 -0.5800  0.9528
   32MOL   C29512137   2.061   3.435   6.240  0.0917 -0.1802  0.0730
   32MOL   H29612138   2.212   3.582   6.220 -0.3816  1.5352  1.9801
   32MOL   H29712139   2.307   3.257   6.421 -0.4770 -0.4052  0.4080
   32MOL   H29812140   2.350   3.283   6.667 -0.0766 -0.1442 -0.3053
   32MOL   H29912141   2.343   3.430   6.876 -1.4041 -0.6160 -1.0989
   32MOL   H30012142   2.479   3.531   6.817 -0.1165  0.4373  2.6252
   32MOL   H30112143   2.336   3.604   6.856  1.8766  1.2285 -1.2775
   32MOL   H30212144   2.306   3.711   6.641 -0.0687 -1.0927  1.7555
   32MOL   H30312145   2.223   3.688   6.413  0.2065 -0.6405  1.1226
   32MOL   H30412146   2.003   3.471   6.325  0.1471 -1.3539  0.6152
   32MOL   H30512147   2.063   3.327   6.236 -0.9138 -0.1541 -2.2652
   32MOL   C30612148   1.990   3.503   6.115  0.5226  0.0353  0.6261
   32MOL   C30712149   1.928   3.638   6.153  0.1742  0.4383  0.3387
   32MOL   C30812150   1.994   3.754   6.122 -0.2270  0.9904  0.5584
   32MOL   C30912151   1.938   3.876   6.157 -0.2265 -1.1209 -0.1080
   32MOL   C31012152   1.818   3.884   6.230  0.0540  0.1424 -0.1935
   32MOL   C31112153   1.758   4.023   6.263  0.0340 -1.2776  0.3870
   32MOL   C31212154   1.754   3.767   6.268 -0.6097  1.0301 -0.1213
   32MOL   C31312155   1.812   3.642   6.233  0.1184  0.0378  0.1946
   32MOL   C31412156   1.880   3.407   6.059  0.0514  0.4045  0.4704
   32MOL   H31512157   2.059   3.531   6.035 -2.1555  2.6241 -0.8724
   32MOL   H31612158   2.079   3.753   6.055 -0.5015 -0.4660  0.2219
   32MOL   H31712159   1.986   3.970   6.134 -0.6298 -0.5439  1.3458
   32MOL   H31812160   1.810   4.047   6.355  1.8645 -1.0927 -0.6825
   32MOL   H31912161   1.784   4.098   6.189  2.5591 -2.4479  0.0301
   32MOL   H32012162   1.652   4.001   6.281  0.3570 -2.6416  0.6895
   32MOL   H32112163   1.660   3.771   6.321  1.0162 -0.6992  3.0790
   32MOL   H32212164   1.774   3.547   6.269  0.3439 -0.2381 -0.2894
   32MOL   H32312165   1.823   3.375   6.146 -1.7817 -2.1366 -1.5570
   32MOL   H32412166   1.919   3.313   6.018 -0.7511  0.8260 -1.2914
   32MOL   C32512167   1.779   3.471   5.950 -0.7195  0.0115 -0.4419
   32MOL   C32612168   1.671   3.375   5.903 -0.4940  1.0205  0.6042
   32MOL   C32712169   1.540   3.396   5.944  0.1411  0.4603  0.3166
   32MOL   C32812170   1.442   3.301   5.908  0.1003 -0.7081 -0.5771
   32MOL   C32912171   1.474   3.185   5.842  0.4975  0.0799  0.9160
   32MOL   C33012172   1.365   3.087   5.815 -0.6097 -0.4741  0.0548
   32MOL   C33112173   1.605   3.165   5.808 -0.5090 -0.4329 -0.2997
   32MOL   C33212174   1.707   3.255   5.838 -0.1550  0.2959 -0.2032
   32MOL   C33312175   1.854   3.536   5.830  0.2179 -0.0205 -0.2109
   32MOL   H33412176   1.726   3.545   6.012 -0.4020 -0.3200  0.2252
   32MOL   H33512177   1.515   3.486   5.999  1.0164  0.0951  1.3403
   32MOL   H33612178   1.339   3.323   5.932  1.0443 -0.2436  3.4208
   32MOL   H33712179   1.389   3.021   5.731  1.9826  1.4534 -0.7917
   32MOL   H33812180   1.354   3.032   5.908  0.6241  0.9808  1.0776
   32MOL   H33912181   1.273   3.144   5.800  0.8965  1.9711 -0.2972
   32MOL   H34012182   1.633   3.076   5.754 -2.3042 -1.0641 -0.2405
   32MOL   H34112183   1.809   3.235   5.808 -0.0124  0.9692 -0.1746
   32MOL   H34212184   1.887   3.452   5.769  0.2435 -2.1514  2.6338
   32MOL   H34312185   1.945   3.590   5.858 -0.5835  1.9167 -1.2501
   32MOL   C34412186   1.766   3.627   5.754  0.7059  0.7885 -0.2994
   32MOL   C34512187   1.795   3.630   5.604  0.1864 -0.0513  0.0168
   32MOL   C34612188   1.693   3.647   5.504  0.3853  0.7140 -0.3465
   32MOL   C34712189   1.721   3.647   5.365  0.3861 -0.9814  0.6774
   32MOL   C34812190   1.858   3.643   5.321 -0.3998 -0.0172  0.0235
   32MOL   C34912191   1.898   3.668   5.177 -0.2466  0.0949 -0.8608
   32MOL   C35012192   1.961   3.629   5.413 -0.0720  0.4384 -0.6133
   32MOL   C35112193   1.926   3.622   5.552 -0.8855 -0.1988  0.4155
   32MOL   C35212194   1.768   3.768   5.797  0.3773  0.5195 -0.3146
   32MOL   H35312195   1.662   3.593   5.748  0.7911  0.3691  0.5997
   32MOL   H35412196   1.587   3.655   5.526  0.5424  0.8236  0.4079
   32MOL   H35512197   1.648   3.670   5.289  4.1298  0.9492 -2.5072
   32MOL   H35612198   2.005   3.689   5.176 -0.2690  0.3005  0.3450
   32MOL   H35712199   1.879   3.590   5.103 -2.4110 -0.2588  0.0240
   32MOL   H35812200   1.835   3.752   5.150 -1.2273 -0.3385  0.0557
   32MOL   H35912201   2.064   3.615   5.381  0.4000 -1.8263  1.7206
   32MOL   H36012202   2.011   3.600   5.615 -1.5703 -0.2558  1.3304
   32MOL   H36112203   1.805   3.838   5.722  0.9911 -1.4833 -1.9199
   32MOL   H36212204   1.837   3.770   5.882 -0.8924 -1.5776  0.8028
   32MOL   C36312205   1.628   3.813   5.847 -0.2162 -0.2428  0.1021
   32MOL   C36412206   1.524   3.820   5.732  0.4132 -0.2823 -0.4804
   32MOL   C36512207   1.411   3.736   5.736  0.3981  0.1163  0.7195
   32MOL   C36612208   1.303   3.754   5.647  0.2141  0.0306  0.5165
   32MOL   C36712209   1.319   3.855   5.550  0.5538 -1.0466 -0.1196
   32MOL   C36812210   1.203   3.866   5.451  0.2384 -0.3132  0.0094
   32MOL   C36912211   1.431   3.939   5.543 -0.1884  0.5758 -0.0649
   32MOL   C37012212   1.531   3.927   5.639 -0.1188  0.2767 -0.0206
   32MOL   C37112213   1.641   3.947   5.918 -0.3596 -0.0800 -0.5217
   32MOL   H37212214   1.595   3.744   5.925 -0.7353 -1.4036 -1.1158
   32MOL   H37312215   1.394   3.661   5.813 -0.9473 -0.4132 -0.0773
   32MOL   H37412216   1.220   3.685   5.638  1.0089 -0.8303 -0.3980
   32MOL   H37512217   1.121   3.908   5.510  1.4959  0.5488  1.1885
   32MOL   H37612218   1.230   3.931   5.368 -0.7738 -1.2603 -1.0710
   32MOL   H37712219   1.165   3.773   5.409  0.5918 -0.0954 -0.8033
   32MOL   H37812220   1.449   3.999   5.455  1.0079  0.1948 -0.0891
   32MOL   H37912221   1.624   3.981   5.642  1.1031 -1.7772 -0.1165
   32MOL   H38012222   1.691   4.022   5.857  1.4238 -0.9468 -0.1722
   32MOL   H38112223   1.701   3.932   6.007  0.7527  1.9692 -0.9022
   32MOL   H38212224   1.547   3.990   5.951  0.7488  1.1294  1.1330
   33MOL     C112225   6.491   6.587   5.036 -0.2572  0.5030 -0.8506
   33MOL     C212226   6.466   6.518   5.167  0.3781  0.9104 -0.8126
   33MOL     C312227   6.384   6.403   5.173 -0.3414 -0.0059 -0.7197
   33MOL     C412228   6.342   6.351   5.299 -0.0889 -0.0362 -0.6186
   33MOL     C512229   6.418   6.405   5.409 -0.2081 -0.0054 -0.5130
   33MOL     C612230   6.375   6.365   5.544  0.0832  1.1431 -0.4999
   33MOL     C712231   6.495   6.519   5.406  0.1224 -0.1181 -0.5329
   33MOL     C812232   6.527   6.572   5.282  0.1441 -0.2984  0.0523
   33MOL     C912233   6.628   6.553   4.980 -0.3658 -0.8957 -0.9003
   33MOL    H1012234   6.419   6.555   4.960 -0.0300 -2.7224  0.1995
   33MOL    H1112235   6.353   6.365   5.077  1.3235 -1.8720 -0.5601
   33MOL    H1212236   6.274   6.268   5.314  1.2787 -0.9144  0.8597
   33MOL    H1312237   6.392   6.453   5.606  1.5802 -0.1150  0.8898
   33MOL    H1412238   6.272   6.328   5.545  0.4082  0.2273  2.7386
   33MOL    H1512239   6.445   6.298   5.593 -0.7287  0.8405  0.2610
   33MOL    H1612240   6.534   6.554   5.501 -0.3671 -0.6873 -0.1181
   33MOL    H1712241   6.579   6.666   5.290 -1.3640  0.4732  1.0137
   33MOL    H1812242   6.697   6.591   5.056 -0.8309  2.6738 -2.1999
   33MOL    H1912243   6.638   6.611   4.889 -2.6344 -0.6757 -1.0291
   33MOL    H2012244   6.467   6.691   5.056 -2.2925 -0.5678  2.7957
   33MOL    C2112245   6.647   6.407   4.930  0.5167 -0.0034  0.0145
   33MOL    C2212246   6.791   6.371   4.902  0.1343 -0.1033 -0.0410
   33MOL    C2312247   6.853   6.435   4.792 -0.3597 -0.4300  0.2246
   33MOL    C2412248   6.979   6.389   4.744  0.1117  0.1029 -0.1262
   33MOL    C2512249   7.047   6.289   4.817 -0.4025 -0.7155  0.5691
   33MOL    C2612250   7.189   6.242   4.778  0.1330 -0.4974 -0.1161
   33MOL    C2712251   6.984   6.230   4.927  0.0973 -0.3954  0.2931
   33MOL    C2812252   6.855   6.268   4.975 -0.0735  0.2285  0.4997
   33MOL    C2912253   6.564   6.383   4.805 -0.0056 -0.4378  0.0043
   33MOL    H3012254   6.614   6.338   5.007  0.4194  1.1353  1.0015
   33MOL    H3112255   6.793   6.510   4.742  0.5650  0.1898  0.0422
   33MOL    H3212256   7.016   6.433   4.652  0.2600 -0.0183 -0.1237
   33MOL    H3312257   7.192   6.160   4.706  1.1305  0.2623 -0.9488
   33MOL    H3412258   7.232   6.323   4.718 -0.7256  0.3420  0.3759
   33MOL    H3512259   7.248   6.213   4.865  0.6705  0.3155 -0.2112
   33MOL    H3612260   7.036   6.156   4.986 -0.7564 -0.1881  1.3366
   33MOL    H3712261   6.814   6.222   5.063  0.6802  2.2212  1.9501
   33MOL    H3812262   6.602   6.445   4.724 -0.7563  0.9845  0.7105
   33MOL    H3912263   6.464   6.425   4.816  0.2346 -0.0570  0.7887
   33MOL    C4012264   6.544   6.235   4.776  0.2775 -0.4986 -0.0375
   33MOL    C4112265   6.508   6.213   4.629 -0.2261 -0.1020  0.0828
   33MOL    C4212266   6.381   6.255   4.589  0.7424  0.4461  0.0511
   33MOL    C4312267   6.338   6.240   4.457 -0.1257 -0.0688 -0.1322
   33MOL    C4412268   6.419   6.161   4.375 -0.0642 -0.0206  0.1106
   33MOL    C4512269   6.376   6.131   4.234 -0.1616  0.0744 -0.1157
   33MOL    C4612270   6.557   6.133   4.410  0.8841 -0.1104  0.3160
   33MOL    C4712271   6.599   6.151   4.544  0.3304 -0.9857 -0.2656
   33MOL    C4812272   6.446   6.168   4.872 -0.0678  0.4698 -1.2040
   33MOL    H4912273   6.637   6.180   4.795  0.1368 -0.6668  0.1719
   33MOL    H5012274   6.312   6.310   4.651  1.2190  2.3899 -1.0698
   33MOL    H5112275   6.245   6.283   4.423 -1.2924 -2.2327  0.2608
   33MOL    H5212276   6.427   6.191   4.158  0.7082  2.4983  2.2954
   33MOL    H5312277   6.414   6.033   4.205 -1.2558 -0.4327  0.1425
   33MOL    H5412278   6.268   6.129   4.224 -0.2541 -1.7771  0.9991
   33MOL    H5512279   6.625   6.085   4.341 -0.4807 -1.4650 -0.1199
   33MOL    H5612280   6.702   6.127   4.563  0.5822 -1.3623 -2.0429
   33MOL    H5712281   6.348   6.217   4.877 -0.6707 -0.5245 -2.9324
   33MOL    H5812282   6.493   6.169   4.971 -0.8476  1.6361 -0.8280
   33MOL    C5912283   6.420   6.011   4.858  0.0490  0.3904 -0.4464
   33MOL    C6012284   6.298   5.989   4.953 -0.4164 -0.1015 -0.2040
   33MOL    C6112285   6.172   5.944   4.902  0.2910 -0.3912  0.8762
   33MOL    C6212286   6.060   5.927   4.996 -0.4699  0.7604  0.7922
   33MOL    C6312287   6.074   5.962   5.130  0.0974  0.0379  0.3999
   33MOL    C6412288   5.947   5.958   5.220  0.6234  0.0102  0.0267
   33MOL    C6512289   6.202   6.007   5.178  0.4339  0.8097 -0.1414
   33MOL    C6612290   6.308   6.019   5.088  0.1963 -0.0206 -0.1948
   33MOL    C6712291   6.540   5.928   4.896 -0.0279  0.1681 -0.1236
   33MOL    H6812292   6.391   5.986   4.756 -3.1778 -2.5459  1.0942
   33MOL    H6912293   6.155   5.921   4.797 -0.3979 -0.2187  0.9475
   33MOL    H7012294   5.963   5.894   4.962 -1.1516  2.1516  1.3895
   33MOL    H7112295   5.911   5.855   5.226 -1.5330  0.6667 -1.0562
   33MOL    H7212296   5.964   6.000   5.319 -0.5268  0.3743  0.0784
   33MOL    H7312297   5.866   6.019   5.180  0.8639  0.9574  0.9629
   33MOL    H7412298   6.222   6.031   5.281  0.9940 -1.7149  0.3806
   33MOL    H7512299   6.403   6.061   5.119 -0.3358  3.2527 -2.7312
   33MOL    H7612300   6.561   5.936   5.003 -1.1190 -1.3298  0.2181
   33MOL    H7712301   6.625   5.987   4.862 -1.3559  3.1383  1.4313
   33MOL    C7812302   6.543   5.783   4.840  0.7708  0.5892 -0.5781
   33MOL    C7912303   6.565   5.782   4.692 -0.0357 -0.4507 -0.8091
   33MOL    C8012304   6.472   5.721   4.600  0.3656  0.4610 -0.4182
   33MOL    C8112305   6.486   5.737   4.459  0.4434  0.0990 -0.2594
   33MOL    C8212306   6.609   5.780   4.408 -0.4382  0.4387  0.0685
   33MOL    C8312307   6.618   5.785   4.253 -0.2100  0.3388  0.3222
   33MOL    C8412308   6.703   5.841   4.496  0.7767  0.3612  0.0571
   33MOL    C8512309   6.680   5.837   4.634  0.4019 -0.4180 -0.6572
   33MOL    C8612310   6.434   5.688   4.889 -0.1445 -0.4779 -0.2295
   33MOL    H8712311   6.638   5.742   4.876  0.3293 -0.4462 -0.5709
   33MOL    H8812312   6.381   5.673   4.633 -1.0899  3.0281 -0.5781
   33MOL    H8912313   6.408   5.696   4.397 -0.0701 -0.1004  0.4988
   33MOL    H9012314   6.706   5.732   4.217 -1.6775 -0.9579 -1.4040
   33MOL    H9112315   6.532   5.739   4.206 -2.0463  1.2349  2.6940
   33MOL    H9212316   6.605   5.890   4.227  2.2618  0.6432  0.2004
   33MOL    H9312317   6.785   5.901   4.459 -0.0872 -0.0021 -2.5098
   33MOL    H9412318   6.748   5.889   4.700  1.1989 -0.8157 -1.1499
   33MOL    H9512319   6.460   5.592   4.844  1.1361  0.2282 -1.0508
   33MOL    H9612320   6.335   5.708   4.846 -0.6969 -0.4783  1.0307
   33MOL    C9712321   6.429   5.673   5.044 -0.5052  0.0544 -0.0065
   33MOL    C9812322   6.556   5.610   5.097  1.0102 -0.0928  0.7649
   33MOL    C9912323   6.581   5.474   5.074  0.4021 -0.1921 -0.4860
   33MOL   C10012324   6.703   5.422   5.126  0.9751  0.3839 -0.0848
   33MOL   C10112325   6.781   5.493   5.215 -1.0033 -0.2674  0.0352
   33MOL   C10212326   6.909   5.431   5.273 -0.0960 -0.3433 -0.0700
   33MOL   C10312327   6.745   5.624   5.255 -0.3756  0.2120 -0.4226
   33MOL   C10412328   6.628   5.679   5.202  0.0751  0.1694  0.6894
   33MOL   C10512329   6.304   5.591   5.090  0.0102  0.0384  0.4842
   33MOL   H10612330   6.415   5.770   5.093 -2.1493 -0.2048  0.0676
   33MOL   H10712331   6.515   5.407   5.021 -1.2435  0.5389  0.5819
   33MOL   H10812332   6.729   5.322   5.094  1.2578 -0.3084  2.1529
   33MOL   H10912333   6.902   5.454   5.379  1.5559 -0.2175  0.0308
   33MOL   H11012334   6.904   5.322   5.273 -0.1424 -0.3420 -0.3453
   33MOL   H11112335   7.001   5.464   5.224 -0.2872  0.9965  0.4512
   33MOL   H11212336   6.797   5.671   5.337 -0.2067 -0.8089  0.0565
   33MOL   H11312337   6.616   5.784   5.222 -0.1552  0.0594  1.1229
   33MOL   H11412338   6.301   5.498   5.033  2.1615  0.3450 -0.1687
   33MOL   H11512339   6.214   5.648   5.067 -0.8043 -0.1527  3.0057
   33MOL   C11612340   6.290   5.545   5.238 -0.3418  0.0843  0.0479
   33MOL   C11712341   6.163   5.466   5.251 -0.0543 -0.9228 -0.3585
   33MOL   C11812342   6.041   5.524   5.253  0.1256  1.4594 -0.1976
   33MOL   C11912343   5.929   5.444   5.275  0.0930 -0.6040  1.2844
   33MOL   C12012344   5.946   5.304   5.297  0.1274  0.4386 -0.7067
   33MOL   C12112345   5.819   5.226   5.315 -0.2050 -0.3097  0.4709
   33MOL   C12212346   6.068   5.243   5.277  0.9159  0.2431  0.2603
   33MOL   C12312347   6.182   5.328   5.258 -0.2650  0.1975 -0.4893
   33MOL   C12412348   6.297   5.663   5.345 -0.4550  0.5971  0.0740
   33MOL   H12512349   6.373   5.481   5.267  0.5649  1.4284  0.4147
   33MOL   H12612350   6.019   5.626   5.227 -2.8548  0.5379 -1.5682
   33MOL   H12712351   5.828   5.482   5.276 -0.0994 -1.0695  0.1741
   33MOL   H12812352   5.741   5.247   5.242  0.7669  1.2210 -0.1527
   33MOL   H12912353   5.846   5.121   5.313 -1.0159 -0.5251  0.7561
   33MOL   H13012354   5.775   5.258   5.409  3.1425 -0.1083  2.0522
   33MOL   H13112355   6.076   5.136   5.284  1.1462  0.1221 -1.4968
   33MOL   H13212356   6.281   5.285   5.255 -0.7945 -0.9655 -2.0463
   33MOL   H13312357   6.204   5.718   5.328 -0.3432  0.6289 -0.4343
   33MOL   H13412358   6.378   5.732   5.321  0.4854  0.1688  1.8677
   33MOL   C13512359   6.323   5.622   5.489  0.2477  0.0051  0.0484
   33MOL   C13612360   6.284   5.742   5.578  0.1523  0.1886  0.1032
   33MOL   C13712361   6.321   5.883   5.556  0.2643 -0.8739  0.9561
   33MOL   C13812362   6.283   5.983   5.644 -0.4040 -0.0320  0.1878
   33MOL   C13912363   6.197   5.953   5.753 -0.1031  0.3690  0.1022
   33MOL   C14012364   6.145   6.062   5.844  0.0559  0.3126 -0.5432
   33MOL   C14112365   6.159   5.818   5.774  0.1870 -0.5825  0.0672
   33MOL   C14212366   6.199   5.716   5.689  0.1285 -0.3193  0.3265
   33MOL   C14312367   6.457   5.570   5.525 -0.2191  0.0641  0.5346
   33MOL   H14412368   6.262   5.535   5.516  0.1310 -0.4562 -1.6135
   33MOL   H14512369   6.383   5.915   5.472 -0.7733 -0.8965  0.1738
   33MOL   H14612370   6.308   6.087   5.627  0.3534 -0.4139 -1.0831
   33MOL   H14712371   6.093   6.126   5.773  0.6430 -1.0044 -2.2176
   33MOL   H14812372   6.091   6.039   5.935 -1.8532 -0.3305 -1.8047
   33MOL   H14912373   6.231   6.125   5.868  0.1550  1.3843 -3.4197
   33MOL   H15012374   6.099   5.802   5.863 -0.2277 -2.2744 -0.5021
   33MOL   H15112375   6.166   5.617   5.718  0.9948 -0.9517 -0.8061
   33MOL   H15212376   6.511   5.662   5.543  0.4934 -0.0200 -1.1006
   33MOL   H15312377   6.500   5.515   5.441 -0.6674  0.1179  0.2667
   33MOL   C15412378   6.477   5.483   5.647 -0.0183 -0.5546 -0.0334
   33MOL   C15512379   6.626   5.475   5.687 -0.8020  0.1247 -0.0654
   33MOL   C15612380   6.674   5.558   5.794  0.1235  0.6386  0.3857
   33MOL   C15712381   6.806   5.553   5.837 -0.4085 -0.2763  0.2080
   33MOL   C15812382   6.898   5.466   5.769  0.1769  0.1803 -0.2897
   33MOL   C15912383   7.042   5.460   5.807 -0.1616 -0.2805 -0.1188
   33MOL   C16012384   6.854   5.379   5.667 -0.2087 -0.0918  0.1226
   33MOL   C16112385   6.715   5.379   5.629 -0.2838  0.2162  0.2216
   33MOL   C16212386   6.402   5.347   5.633  0.6964  0.4863 -0.2241
   33MOL   H16312387   6.436   5.546   5.726  3.0965  2.0338 -0.3624
   33MOL   H16412388   6.609   5.622   5.852  0.7133  0.3578  1.3753
   33MOL   H16512389   6.829   5.619   5.919 -0.5744  1.8872 -1.4411
   33MOL   H16612390   7.052   5.436   5.913 -0.9378  0.7772  0.1935
   33MOL   H16712391   7.092   5.385   5.745 -2.0155 -0.4868 -1.3962
   33MOL   H16812392   7.093   5.551   5.775 -0.6519 -0.4642 -1.4288
   33MOL   H16912393   6.921   5.314   5.614 -0.6618  0.3695 -1.0533
   33MOL   H17012394   6.697   5.312   5.546 -1.2260  1.0539 -0.2648
   33MOL   H17112395   6.413   5.304   5.534 -0.2706  1.0140 -0.5657
   33MOL   H17212396   6.295   5.365   5.636  0.0735 -2.7358 -1.2277
   33MOL   C17312397   6.436   5.237   5.740 -1.0912  0.3833  0.5849
   33MOL   C17412398   6.343   5.117   5.707  0.1298 -0.2534 -0.0423
   33MOL   C17512399   6.212   5.108   5.761  0.1550 -0.3360  0.3596
   33MOL   C17612400   6.113   5.016   5.716 -0.1371  0.0710  0.1319
   33MOL   C17712401   6.155   4.921   5.620  0.0127  0.0390  0.4265
   33MOL   C17812402   6.045   4.829   5.562  0.5828  0.6630 -0.1110
   33MOL   C17912403   6.290   4.919   5.569  0.3884  1.0276 -0.3518
   33MOL   C18012404   6.381   5.019   5.611 -0.1890 -0.0802  0.7600
   33MOL   C18112405   6.418   5.288   5.885 -1.0752  0.6565 -0.5563
   33MOL   H18212406   6.538   5.209   5.717 -1.4521  0.3691 -1.0204
   33MOL   H18312407   6.181   5.181   5.834 -0.1198  2.0612 -2.0397
   33MOL   H18412408   6.013   5.027   5.755 -0.5197  1.5376 -1.2381
   33MOL   H18512409   6.059   4.734   5.613 -1.4363  0.4990  0.1756
   33MOL   H18612410   5.955   4.888   5.576  1.3665  1.7118  0.5894
   33MOL   H18712411   6.051   4.802   5.456 -0.8047  0.5150 -0.1603
   33MOL   H18812412   6.322   4.856   5.487  2.8914  2.1165 -0.2598
   33MOL   H18912413   6.480   5.030   5.569 -1.5755  1.4583 -2.2384
   33MOL   H19012414   6.313   5.307   5.907 -1.8788  0.2667 -3.8021
   33MOL   H19112415   6.475   5.380   5.899 -2.9906  1.8443 -0.3537
   33MOL   C19212416   6.472   5.185   5.990  0.2630 -1.0871  0.5406
   33MOL   C19312417   6.413   5.200   6.132  0.1883 -0.5625 -0.1983
   33MOL   C19412418   6.398   5.327   6.189  0.6781  0.0969  0.4434
   33MOL   C19512419   6.339   5.331   6.317  0.1410 -0.0677 -0.3472
   33MOL   C19612420   6.311   5.215   6.391 -0.6751  0.2622  0.4425
   33MOL   C19712421   6.260   5.224   6.529  0.6561 -0.3208 -0.1713
   33MOL   C19812422   6.328   5.087   6.334 -0.6473 -0.1913 -1.1466
   33MOL   C19912423   6.384   5.084   6.206 -0.7771 -0.1447  0.5801
   33MOL   C20012424   6.624   5.174   5.992  0.3039 -0.3330 -0.4184
   33MOL   H20112425   6.444   5.090   5.945  0.3685 -1.5232  1.4064
   33MOL   H20212426   6.428   5.421   6.145  1.6393 -0.4598 -0.1398
   33MOL   H20312427   6.318   5.426   6.364 -1.6412 -0.2340 -0.7914
   33MOL   H20412428   6.246   5.328   6.557 -0.6087  0.2562 -2.7641
   33MOL   H20512429   6.169   5.163   6.539  1.0087 -1.0260 -1.1472
   33MOL   H20612430   6.337   5.179   6.591  0.3686  1.7810  1.7550
   33MOL   H20712431   6.317   4.998   6.395 -2.6736  0.6904 -0.1709
   33MOL   H20812432   6.401   4.985   6.166 -0.7103 -0.6791  1.9372
   33MOL   H20912433   6.651   5.246   6.069  0.5789  0.4452 -1.2326
   33MOL   H21012434   6.664   5.216   5.900  1.4675 -1.5407 -0.4883
   33MOL   C21112435   6.689   5.030   6.007 -0.0217 -0.5055 -0.2500
   33MOL   C21212436   6.840   5.040   6.036 -0.2989  0.2310 -0.2240
   33MOL   C21312437   6.882   5.056   6.167 -0.1963 -0.2796 -0.4086
   33MOL   C21412438   7.021   5.053   6.199  0.3519  0.0620  0.0295
   33MOL   C21512439   7.117   5.032   6.096 -0.1379  0.9046 -0.3960
   33MOL   C21612440   7.262   4.988   6.135  0.3116  0.5191  0.5621
   33MOL   C21712441   7.073   5.033   5.963 -0.3604  0.3987  0.7081
   33MOL   C21812442   6.931   5.035   5.928 -0.3859  0.3655  0.4092
   33MOL   C21912443   6.661   4.939   5.881  0.0774 -0.3025  0.1124
   33MOL   H22012444   6.651   4.978   6.096 -1.8542 -1.5157 -1.5886
   33MOL   H22112445   6.810   5.041   6.246  0.8596  1.2535  0.8631
   33MOL   H22212446   7.054   5.051   6.301 -0.7236  1.2333  0.4233
   33MOL   H22312447   7.336   5.038   6.072  0.5804  0.6761  1.0063
   33MOL   H22412448   7.286   5.018   6.236  0.4816  1.0378  0.3666
   33MOL   H22512449   7.263   4.879   6.128 -1.3072  0.6306 -2.1920
   33MOL   H22612450   7.137   5.014   5.877 -1.6802 -1.4085  0.1085
   33MOL   H22712451   6.899   5.036   5.825 -0.0298  2.2953  0.3008
   33MOL   H22812452   6.689   4.980   5.784  1.4064 -0.8489  0.2570
   33MOL   H22912453   6.554   4.932   5.865 -0.6100  2.0558  3.1913
   33MOL   C23012454   6.714   4.785   5.895  0.5575 -0.0073  0.2679
   33MOL   C23112455   6.700   4.732   5.758 -0.0481 -0.4636 -0.5091
   33MOL   C23212456   6.573   4.712   5.704  1.0094 -0.1424  0.1074
   33MOL   C23312457   6.552   4.659   5.575  0.4950  0.5619  0.1155
   33MOL   C23412458   6.657   4.639   5.487  0.0170  0.3878  0.0805
   33MOL   C23512459   6.635   4.597   5.340  0.2624 -0.0857 -0.1126
   33MOL   C23612460   6.787   4.661   5.547  0.2342 -0.6138 -0.0641
   33MOL   C23712461   6.810   4.707   5.676 -0.1687 -0.5242  0.4537
   33MOL   C23812462   6.627   4.709   6.002  0.1044 -0.3794 -0.1551
   33MOL   H23912463   6.816   4.793   5.933  0.2097 -0.4225  1.3119
   33MOL   H24012464   6.489   4.733   5.768  0.8790  1.3064 -0.5185
   33MOL   H24112465   6.454   4.642   5.533  0.9643 -1.2310 -0.3153
   33MOL   H24212466   6.731   4.569   5.297  0.8732  0.6145  0.7838
   33MOL   H24312467   6.567   4.513   5.321 -0.9376  0.1684  2.6963
   33MOL   H24412468   6.616   4.691   5.288 -0.4201 -1.0388 -1.6236
   33MOL   H24512469   6.871   4.655   5.480 -0.6730  2.2424 -1.5635
   33MOL   H24612470   6.909   4.725   5.716  0.2870  2.5920 -1.8434
   33MOL   H24712471   6.525   4.739   5.977  0.3353  0.9672  0.4459
   33MOL   H24812472   6.650   4.753   6.099 -0.2761 -1.0179  0.2266
   33MOL   C24912473   6.630   4.554   6.019 -0.0368 -0.7395 -0.1381
   33MOL   C25012474   6.527   4.513   6.124 -0.1335 -0.0639 -1.2921
   33MOL   C25112475   6.448   4.399   6.098 -0.4141  0.5337  0.4187
   33MOL   C25212476   6.347   4.351   6.186  0.6290  0.0319  0.1406
   33MOL   C25312477   6.316   4.427   6.304  1.0672  0.0717  0.2453
   33MOL   C25412478   6.214   4.375   6.401  0.0362  0.0460 -0.3012
   33MOL   C25512479   6.375   4.550   6.320 -0.2711  0.0345  0.3389
   33MOL   C25612480   6.485   4.588   6.242  0.5813  0.1478  0.7533
   33MOL   C25712481   6.774   4.504   6.039  0.5476  0.3491  0.0980
   33MOL   H25812482   6.599   4.513   5.923  1.1438 -2.3704  0.1487
   33MOL   H25912483   6.467   4.329   6.018 -1.9654  0.3550  0.1808
   33MOL   H26012484   6.292   4.261   6.167 -0.0295  0.0642  1.8130
   33MOL   H26112485   6.132   4.320   6.357  0.7806  0.4806 -2.2992
   33MOL   H26212486   6.250   4.305   6.477 -0.3701  0.0878 -0.0687
   33MOL   H26312487   6.166   4.461   6.448  0.1605 -0.2762  0.4227
   33MOL   H26412488   6.343   4.619   6.397  0.0077  2.0045 -1.2733
   33MOL   H26512489   6.532   4.684   6.260  0.5935  0.4145 -0.6154
   33MOL   H26612490   6.778   4.448   6.132 -0.4566 -0.7500 -0.5083
   33MOL   H26712491   6.846   4.584   6.060 -0.0038  0.4923  1.5153
   33MOL   C26812492   6.836   4.423   5.927 -0.3228 -0.1612 -0.5679
   33MOL   C26912493   6.748   4.309   5.880  0.5568  0.1341 -0.0624
   33MOL   C27012494   6.716   4.201   5.966 -0.3415  0.3133  0.3350
   33MOL   C27112495   6.642   4.087   5.916 -0.2702 -0.7047 -0.1344
   33MOL   C27212496   6.593   4.085   5.781  0.0056 -0.4106 -0.9280
   33MOL   C27312497   6.515   3.966   5.727 -0.3367 -0.1992 -0.4618
   33MOL   C27412498   6.629   4.197   5.704  0.4973 -1.1750 -0.0001
   33MOL   C27512499   6.704   4.304   5.746 -0.2030 -0.4093 -0.4009
   33MOL   C27612500   6.977   4.383   5.942  0.1427  0.5648 -0.0433
   33MOL   H27712501   6.834   4.491   5.842 -0.4588 -1.2479 -1.4520
   33MOL   H27812502   6.752   4.189   6.067 -0.9901 -0.8796  0.4329
   33MOL   H27912503   6.641   4.001   5.981  0.8591 -0.9915 -0.4770
   33MOL   H28012504   6.415   3.954   5.770 -0.6785  0.1839 -1.1491
   33MOL   H28112505   6.502   3.979   5.620 -1.9627  2.6566  0.0260
   33MOL   H28212506   6.586   3.887   5.752  0.0926  0.8820  1.9288
   33MOL   H28312507   6.591   4.203   5.603 -0.7665 -1.3940  0.4513
   33MOL   H28412508   6.730   4.380   5.673 -1.7966 -0.8346 -1.4588
   33MOL   H28512509   6.986   4.336   6.040  0.7880 -0.5307 -0.6109
   33MOL   H28612510   7.038   4.473   5.955  0.5857  0.4208 -1.1150
   33MOL   C28712511   7.043   4.280   5.844 -0.3150 -0.6799 -0.2766
   33MOL   C28812512   7.186   4.234   5.894  0.3128  0.0954  0.4567
   33MOL   C28912513   7.206   4.098   5.888 -0.6528  0.3989  0.3952
   33MOL   C29012514   7.337   4.056   5.918 -0.2101  0.0947  1.1916
   33MOL   C29112515   7.438   4.147   5.965  0.0363  0.0251 -0.0214
   33MOL   C29212516   7.568   4.091   6.012 -0.5327 -0.1306  0.4887
   33MOL   C29312517   7.415   4.284   5.967  0.1897 -0.6024 -0.6040
   33MOL   C29412518   7.282   4.328   5.937  0.4545 -0.7506  0.2057
   33MOL   C29512519   7.060   4.333   5.702 -0.5357 -0.5028 -0.4938
   33MOL   H29612520   6.972   4.197   5.836 -2.1438  0.8060  0.0489
   33MOL   H29712521   7.130   4.031   5.851  0.6917 -0.9767  0.0349
   33MOL   H29812522   7.362   3.951   5.915  3.4634  0.9211  0.0920
   33MOL   H29912523   7.562   3.982   6.022 -1.0492  0.0576  2.4210
   33MOL   H30012524   7.648   4.095   5.938 -0.4690  1.0498  0.6254
   33MOL   H30112525   7.609   4.124   6.107  2.6232  0.6874 -1.0839
   33MOL   H30212526   7.488   4.351   6.010 -1.4171  0.5100  0.4135
   33MOL   H30312527   7.251   4.431   5.945  0.8613 -0.4856 -1.4311
   33MOL   H30412528   7.155   4.386   5.709 -0.6337 -0.7229  2.8650
   33MOL   H30512529   6.976   4.396   5.672 -0.0167  0.7284  0.5970
   33MOL   C30612530   7.078   4.235   5.583 -0.2302  0.2321 -0.3309
   33MOL   C30712531   7.099   4.325   5.458  0.2187 -0.1750  0.1544
   33MOL   C30812532   7.230   4.339   5.405  0.5185 -0.7214 -0.2058
   33MOL   C30912533   7.255   4.426   5.303  0.1290 -0.2175 -0.3257
   33MOL   C31012534   7.157   4.507   5.239  0.5879 -0.1225  0.2839
   33MOL   C31112535   7.187   4.584   5.105 -0.1181  0.3630  0.5781
   33MOL   C31212536   7.022   4.489   5.286 -0.1738 -0.2012 -0.0899
   33MOL   C31312537   6.993   4.400   5.391 -0.0347 -0.4618 -1.1213
   33MOL   C31412538   6.967   4.131   5.569 -0.1259 -0.2807 -0.5519
   33MOL   H31512539   7.170   4.178   5.599  0.8269  2.1599  0.7087
   33MOL   H31612540   7.308   4.280   5.451  0.5517  1.6398  3.0257
   33MOL   H31712541   7.356   4.422   5.267  0.2162  0.6614 -0.2033
   33MOL   H31812542   7.091   4.608   5.058 -0.9769 -2.6545  0.6571
   33MOL   H31912543   7.238   4.679   5.121 -1.1438  1.1003 -0.4860
   33MOL   H32012544   7.244   4.528   5.031 -2.4094  1.2500 -1.9433
   33MOL   H32112545   6.945   4.549   5.242  1.7236 -0.2754 -3.6879
   33MOL   H32212546   6.891   4.388   5.426  0.5314  0.8522  1.0473
   33MOL   H32312547   6.874   4.186   5.553  0.3993  0.1733 -2.1642
   33MOL   H32412548   6.933   4.080   5.659  0.5904  0.5321  0.1887
   33MOL   C32512549   6.984   4.031   5.453  0.2786  0.0525  1.2225
   33MOL   C32612550   6.858   3.949   5.429 -0.2649 -0.6643 -0.3804
   33MOL   C32712551   6.823   3.848   5.522 -0.1789  0.0521  0.4022
   33MOL   C32812552   6.704   3.777   5.506 -0.0490  0.2251 -0.4137
   33MOL   C32912553   6.626   3.791   5.390  0.0309  0.1430  0.1970
   33MOL   C33012554   6.498   3.716   5.375  0.3032 -0.1838 -0.2183
   33MOL   C33112555   6.667   3.882   5.294 -0.1420 -0.2142 -0.0519
   33MOL   C33212556   6.777   3.964   5.314 -0.2944  0.0825 -0.0688
   33MOL   C33312557   7.109   3.941   5.454 -0.3473  0.2670 -0.0895
   33MOL   H33412558   7.002   4.087   5.361 -0.7907  1.8751  2.0993
   33MOL   H33512559   6.884   3.829   5.608  3.2025 -0.1528 -1.9596
   33MOL   H33612560   6.673   3.703   5.579  3.5554 -1.3968 -0.4274
   33MOL   H33712561   6.467   3.647   5.454 -0.8770  0.1545 -0.3909
   33MOL   H33812562   6.422   3.793   5.376  0.0629 -0.4157 -0.7541
   33MOL   H33912563   6.499   3.670   5.276  0.1745  0.2596 -0.4234
   33MOL   H34012564   6.615   3.897   5.200 -0.6552  2.3641  0.6132
   33MOL   H34112565   6.816   4.031   5.239 -1.3186  0.8266  0.0532
   33MOL   H34212566   7.099   3.878   5.542 -0.1332 -2.1597 -1.7436
   33MOL   H34312567   7.195   4.008   5.466 -1.0921  1.1763  0.1659
   33MOL   C34412568   7.127   3.863   5.323  0.9210  0.4059 -0.0941
   33MOL   C34512569   7.199   3.734   5.354  0.0205  0.3058 -0.4974
   33MOL   C34612570   7.330   3.736   5.399  0.2712 -0.7269 -0.1184
   33MOL   C34712571   7.399   3.618   5.425  0.5572  0.4326  0.7744
   33MOL   C34812572   7.328   3.495   5.418  0.6901  0.2501 -0.1831
   33MOL   C34912573   7.401   3.372   5.466 -0.1292 -0.4118 -0.0276
   33MOL   C35012574   7.195   3.489   5.379 -0.2733 -0.3678  0.2738
   33MOL   C35112575   7.136   3.610   5.338 -0.4588  0.2009  0.4305
   33MOL   C35212576   7.196   3.938   5.205 -0.4375  0.1701  0.0315
   33MOL   H35312577   7.031   3.831   5.284 -0.1907 -0.5214  3.2371
   33MOL   H35412578   7.385   3.829   5.405 -0.4836 -0.3738  2.2115
   33MOL   H35512579   7.503   3.621   5.453  0.7925  2.7034 -0.2465
   33MOL   H35612580   7.404   3.290   5.394 -0.6306 -0.3269 -0.1444
   33MOL   H35712581   7.504   3.404   5.484 -0.9431  2.3322 -0.0312
   33MOL   H35812582   7.355   3.333   5.557 -2.6620  0.4224 -0.9232
   33MOL   H35912583   7.140   3.397   5.379  0.8466 -1.0928 -2.4793
   33MOL   H36012584   7.033   3.605   5.303 -0.2152 -2.0711  0.0170
   33MOL   H36112585   7.292   3.975   5.239 -0.2971 -1.5166  1.5537
   33MOL   H36212586   7.132   4.023   5.180  0.2688  0.2189 -1.6690
   33MOL   C36312587   7.221   3.869   5.069 -0.6623 -0.0118  0.6939
   33MOL   C36412588   7.273   3.974   4.971  0.2258  0.3437 -0.0707
   33MOL   C36512589   7.405   3.966   4.918 -0.3749  0.1469  0.0479
   33MOL   C36612590   7.453   4.076   4.841  0.7223 -0.4098 -0.3550
   33MOL   C36712591   7.367   4.179   4.798 -0.6795 -0.0743  0.1054
   33MOL   C36812592   7.420   4.287   4.704  0.2885  0.5608 -0.1524
   33MOL   C36912593   7.231   4.177   4.836 -0.4919 -0.3659 -1.3466
   33MOL   C37012594   7.188   4.081   4.928  0.0945 -0.6614 -0.7077
   33MOL   C37112595   7.111   3.789   5.012  0.8073 -0.5842 -0.0909
   33MOL   H37212596   7.302   3.796   5.075 -2.2237 -1.8343  0.1017
   33MOL   H37312597   7.482   3.898   4.949  0.0569  1.3788  1.7894
   33MOL   H37412598   7.556   4.068   4.809  1.3247 -0.3074  1.5303
   33MOL   H37512599   7.412   4.260   4.599  1.3627  1.4159 -0.4470
   33MOL   H37612600   7.368   4.381   4.722 -2.4015 -0.5127 -1.9185
   33MOL   H37712601   7.520   4.326   4.718 -0.3480  2.0133  0.4437
   33MOL   H37812602   7.169   4.251   4.789 -1.5136 -0.8828 -0.8184
   33MOL   H37912603   7.085   4.089   4.959 -0.5919  2.3829 -3.4342
   33MOL   H38012604   7.017   3.841   4.998  1.7558  1.7819  1.9361
   33MOL   H38112605   7.090   3.707   5.081 -0.6087  0.1484  0.3548
   33MOL   H38212606   7.140   3.732   4.923 -1.8229 -2.3250  0.1288
   34MOL     C112607   4.209   5.265   1.187 -0.1101  0.1471 -0.1633
   34MOL     C212608   4.180   5.418   1.192 -0.3748  0.4363  0.4676
   34MOL     C312609   4.060   5.476   1.151 -0.1579 -0.3630  0.5604
   34MOL     C412610   4.037   5.609   1.154  0.1511 -0.3252  0.2429
   34MOL     C512611   4.134   5.697   1.209  0.3860  1.3680  0.3405
   34MOL     C612612   4.108   5.843   1.224  0.0329 -0.3690  0.4780
   34MOL     C712613   4.252   5.641   1.259 -0.0929 -0.3266 -0.1403
   34MOL     C812614   4.275   5.501   1.259  0.3572 -0.3655 -0.2718
   34MOL     C912615   4.317   5.234   1.082  0.4022 -0.0136 -0.8331
   34MOL    H1012616   4.231   5.233   1.289 -0.8796  2.5438  0.7889
   34MOL    H1112617   3.986   5.412   1.106  1.7205 -2.4574  0.3858
   34MOL    H1212618   3.944   5.652   1.120  1.4083  1.3563 -1.1910
   34MOL    H1312619   4.198   5.903   1.227  0.6291 -1.2965  1.7276
   34MOL    H1412620   4.041   5.872   1.143 -1.9412  0.1744  2.2611
   34MOL    H1512621   4.055   5.856   1.318  0.4539  0.1758  0.6402
   34MOL    H1612622   4.330   5.696   1.310 -0.5872  0.3813 -0.1367
   34MOL    H1712623   4.365   5.455   1.298  0.2500  1.4768  2.2182
   34MOL    H1812624   4.408   5.295   1.089 -0.0735  0.4757  1.7216
   34MOL    H1912625   4.270   5.267   0.990 -1.9140  0.2129  0.3998
   34MOL    H2012626   4.129   5.206   1.143  0.8705  0.2325 -2.1448
   34MOL    C2112627   4.344   5.080   1.075 -0.5675  0.0671  0.1929
   34MOL    C2212628   4.404   5.027   1.207 -0.4169 -0.8066 -0.3604
   34MOL    C2312629   4.545   5.047   1.224 -0.1340 -0.1469 -0.0034
   34MOL    C2412630   4.605   5.002   1.341 -0.0810  0.1019 -0.5484
   34MOL    C2512631   4.525   4.957   1.451  0.5394  0.3285  0.2478
   34MOL    C2612632   4.587   4.929   1.588 -0.1874  0.0764 -0.2080
   34MOL    C2712633   4.390   4.928   1.430  0.0013  0.3960  0.2049
   34MOL    C2812634   4.325   4.966   1.309  0.8774 -0.5612 -0.4671
   34MOL    C2912635   4.425   5.026   0.945 -0.1332 -0.4987 -0.4255
   34MOL    H3012636   4.254   5.018   1.078  0.0529 -0.7936  1.1166
   34MOL    H3112637   4.592   5.109   1.149  0.6940 -1.7050 -0.7927
   34MOL    H3212638   4.712   5.003   1.356 -0.0111 -0.5006 -0.9692
   34MOL    H3312639   4.596   4.826   1.622  1.8583  0.3117 -0.0092
   34MOL    H3412640   4.684   4.977   1.596  0.2105 -0.5091 -1.3860
   34MOL    H3512641   4.526   4.977   1.664 -1.3491 -1.9215  0.1691
   34MOL    H3612642   4.333   4.886   1.511 -0.5293  1.2049  0.2526
   34MOL    H3712643   4.221   4.952   1.284  0.8994 -3.0045  0.6269
   34MOL    H3812644   4.452   4.921   0.947  3.0510  0.2817  0.7334
   34MOL    H3912645   4.519   5.081   0.939 -0.4695  0.0627 -0.6550
   34MOL    C4012646   4.355   5.067   0.815 -0.1889 -0.4847  0.4157
   34MOL    C4112647   4.216   5.011   0.795 -0.0643 -0.0948  0.4966
   34MOL    C4212648   4.185   4.875   0.829 -0.2927  0.8756 -0.4024
   34MOL    C4312649   4.053   4.830   0.809 -0.2599 -0.4297  0.0131
   34MOL    C4412650   3.958   4.911   0.741 -0.8140  0.2199  0.0489
   34MOL    C4512651   3.823   4.849   0.717 -0.3451  0.4999 -0.5474
   34MOL    C4612652   3.992   5.045   0.699  0.0320 -0.2494  0.1545
   34MOL    C4712653   4.123   5.092   0.738  0.1055  0.2732 -0.4516
   34MOL    C4812654   4.447   5.029   0.690  0.0700  0.0259 -0.5350
   34MOL    H4912655   4.342   5.175   0.823 -1.1876 -0.3426 -2.4674
   34MOL    H5012656   4.264   4.816   0.871 -0.3295  0.6722 -0.6188
   34MOL    H5112657   4.034   4.725   0.823 -0.1991 -0.5855 -0.9973
   34MOL    H5212658   3.808   4.755   0.770 -0.2859  1.1031  0.5508
   34MOL    H5312659   3.735   4.908   0.742 -0.6890 -0.4988  0.6293
   34MOL    H5412660   3.813   4.830   0.610 -3.6757  2.5969 -0.7002
   34MOL    H5512661   3.918   5.106   0.651  2.3532  2.5125 -0.0297
   34MOL    H5612662   4.143   5.196   0.718  0.3107  0.5930  1.3304
   34MOL    H5712663   4.477   4.926   0.704 -0.1431 -0.2876 -2.2505
   34MOL    H5812664   4.548   5.067   0.706  0.6324 -0.5966 -2.4583
   34MOL    C5912665   4.393   5.043   0.545  0.8177 -0.7506  0.1401
   34MOL    C6012666   4.485   4.956   0.450  0.2616  0.7044  0.8063
   34MOL    C6112667   4.454   4.818   0.420 -0.2924  0.0456 -0.0133
   34MOL    C6212668   4.543   4.728   0.359  0.2163 -0.1400 -0.1748
   34MOL    C6312669   4.666   4.782   0.307  0.0463  0.1996  0.1138
   34MOL    C6412670   4.768   4.694   0.237 -0.4150  0.2632  0.3258
   34MOL    C6512671   4.695   4.917   0.339 -0.2208 -0.7329 -0.7039
   34MOL    C6612672   4.606   5.004   0.401  0.5402 -0.1911  0.1077
   34MOL    C6712673   4.376   5.189   0.485 -0.0394  0.5765 -0.2292
   34MOL    H6812674   4.294   4.997   0.547  0.1208  0.7436  1.1973
   34MOL    H6912675   4.356   4.778   0.445 -1.1975  3.0445  1.4839
   34MOL    H7012676   4.516   4.625   0.342  1.8591 -0.8042  1.0570
   34MOL    H7112677   4.811   4.746   0.151  0.8219  0.1279  0.8466
   34MOL    H7212678   4.843   4.669   0.312  0.1156  0.7983 -0.0208
   34MOL    H7312679   4.716   4.606   0.202  0.7664 -0.2193 -0.2491
   34MOL    H7412680   4.795   4.951   0.315 -0.0017  0.6061  1.9300
   34MOL    H7512681   4.653   5.096   0.436  2.4105 -1.0414 -0.0885
   34MOL    H7612682   4.467   5.248   0.479 -0.0378  0.4405 -1.9439
   34MOL    H7712683   4.312   5.245   0.552 -1.9097 -1.0423 -0.6260
   34MOL    C7812684   4.313   5.211   0.348 -0.5594 -0.0945 -0.7527
   34MOL    C7912685   4.328   5.358   0.322 -0.4023  0.1422  0.2187
   34MOL    C8012686   4.256   5.458   0.398  0.1875 -0.1823 -0.7245
   34MOL    C8112687   4.271   5.597   0.371 -0.4905 -0.1554 -0.6441
   34MOL    C8212688   4.346   5.640   0.259 -0.0470  0.1565  0.1969
   34MOL    C8312689   4.369   5.788   0.225  0.1103 -0.1725 -0.1340
   34MOL    C8412690   4.410   5.541   0.179  0.5472  0.7168 -0.2582
   34MOL    C8512691   4.403   5.403   0.210 -0.2579  0.4390  0.1627
   34MOL    C8612692   4.172   5.152   0.350 -0.7941  0.8348 -0.7521
   34MOL    H8712693   4.367   5.159   0.268 -0.1358 -1.9153  0.6841
   34MOL    H8812694   4.193   5.425   0.479 -0.4155 -1.2873 -1.6319
   34MOL    H8912695   4.226   5.672   0.434  0.6736  0.3115 -0.3512
   34MOL    H9012696   4.300   5.865   0.259  1.1782  2.0563 -2.7356
   34MOL    H9112697   4.470   5.816   0.254 -0.1224  0.6398 -0.1014
   34MOL    H9212698   4.365   5.799   0.116  2.0864 -1.3035 -0.3455
   34MOL    H9312699   4.448   5.570   0.082  1.0000  2.3456  0.3950
   34MOL    H9412700   4.451   5.332   0.145  0.3871  0.3541  0.7307
   34MOL    H9512701   4.126   5.194   0.440  0.3957  2.4685 -0.8822
   34MOL    H9612702   4.184   5.044   0.357  1.4873  0.9616 -2.4621
   34MOL    C9712703   4.080   5.180   0.230  0.1738  0.2622  1.0524
   34MOL    C9812704   3.938   5.142   0.254 -0.5147 -0.0436 -0.3109
   34MOL    C9912705   3.832   5.230   0.222  0.2188 -0.3391 -0.2194
   34MOL   C10012706   3.700   5.186   0.241  0.4975 -0.0606  0.0045
   34MOL   C10112707   3.667   5.058   0.286  0.6354  0.3050 -0.2069
   34MOL   C10212708   3.525   5.019   0.310 -0.0883  0.3942  0.2980
   34MOL   C10312709   3.772   4.967   0.303  0.1408 -0.0465 -0.3053
   34MOL   C10412710   3.906   5.010   0.290 -0.8409  0.0156 -0.4772
   34MOL   C10512711   4.137   5.132   0.096  0.7060  0.1954 -0.2408
   34MOL   H10612712   4.085   5.287   0.250  1.2028  0.3683  0.2417
   34MOL   H10712713   3.858   5.325   0.179 -0.4444 -0.3890 -0.7323
   34MOL   H10812714   3.622   5.248   0.201 -0.3746 -1.7635 -1.0011
   34MOL   H10912715   3.511   4.976   0.409 -0.5239 -0.3873 -0.0949
   34MOL   H11012716   3.463   5.107   0.296  0.2220  0.2687 -2.1644
   34MOL   H11112717   3.494   4.937   0.245 -0.6834 -0.4188  1.5797
   34MOL   H11212718   3.762   4.866   0.340  1.6697  0.2196  0.8461
   34MOL   H11312719   3.984   4.947   0.331 -0.2234  0.9467 -0.1965
   34MOL   H11412720   4.072   5.068   0.037  1.3109 -1.1168  0.5007
   34MOL   H11512721   4.222   5.065   0.111 -0.5883 -1.6672 -1.0875
   34MOL   C11612722   4.177   5.242   8.075 -0.6251 -0.6739 -0.5988
   34MOL   C11712723   4.072   5.347   8.053 -0.1889 -0.4349  0.0735
   34MOL   C11812724   4.078   5.471   0.038 -0.0584  0.6642  0.6228
   34MOL   C11912725   3.972   5.565   0.040 -0.3247 -0.1417  0.2077
   34MOL   C12012726   3.864   5.541   8.028  0.0428  0.3396 -0.1488
   34MOL   C12112727   3.754   5.648   8.023  0.0917  0.2830 -0.0300
   34MOL   C12212728   3.861   5.420   7.959 -0.2665  0.1595 -0.1279
   34MOL   C12312729   3.960   5.326   7.965 -0.1529 -0.1466  0.1355
   34MOL   C12412730   4.233   5.184   7.944 -1.2315  0.6386 -0.4295
   34MOL   H12512731   4.270   5.288   0.029 -0.0596 -1.3379 -1.2104
   34MOL   H12612732   4.160   5.503   0.101  1.1583  0.0596 -0.6328
   34MOL   H12712733   3.979   5.654   0.101 -2.0070 -0.1175  0.3814
   34MOL   H12812734   3.680   5.633   7.944 -0.9918 -0.7456  1.1455
   34MOL   H12912735   3.699   5.650   0.037  0.9929  2.4011  0.4798
   34MOL   H13012736   3.792   5.750   8.024  0.7175  0.0694 -1.0365
   34MOL   H13112737   3.786   5.397   7.886  1.6336 -0.4836 -1.9136
   34MOL   H13212738   3.951   5.230   7.915  0.7001 -0.2761  0.2240
   34MOL   H13312739   4.259   5.268   7.879 -0.5442 -0.1232 -1.1396
   34MOL   H13412740   4.143   5.139   7.902 -0.8614 -0.7427  0.2239
   34MOL   C13512741   4.355   5.088   7.949 -0.5004  0.2994  0.1955
   34MOL   C13612742   4.478   5.158   8.001 -0.0416  0.1775 -0.2784
   34MOL   C13712743   4.526   5.278   7.946 -0.0679 -0.2541  0.3638
   34MOL   C13812744   4.636   5.345   8.009 -0.2740  0.4692  0.1698
   34MOL   C13912745   4.701   5.292   0.045  0.0397 -0.6668  0.4404
   34MOL   C14012746   4.814   5.366   0.101  0.6433 -0.6239  0.3275
   34MOL   C14112747   4.669   5.160   0.080  0.3105  0.0070 -0.6059
   34MOL   C14212748   4.549   5.102   0.027  0.4455  0.5059  0.1202
   34MOL   C14312749   4.363   5.006   7.819  0.2075  0.0153  0.2847
   34MOL   H14412750   4.327   5.019   8.029  0.6802 -1.4893 -0.8859
   34MOL   H14512751   4.468   5.340   7.879 -0.1403 -0.2391  0.4390
   34MOL   H14612752   4.655   5.446   7.973  0.0615  0.7293  1.0649
   34MOL   H14712753   4.860   5.316   0.187  0.1864  0.4678  1.2228
   34MOL   H14812754   4.884   5.403   0.026 -0.4482  2.1810  0.6536
   34MOL   H14912755   4.769   5.455   0.144  2.1382  0.1303  0.3552
   34MOL   H15012756   4.720   5.114   0.162 -1.5792  1.4387  1.4417
   34MOL   H15112757   4.523   5.004   0.066  2.9306 -0.5795 -0.8021
   34MOL   H15212758   4.382   5.074   7.736  1.6709 -2.2413 -1.3144
   34MOL   H15312759   4.273   4.954   7.786 -0.5615  1.6568 -0.2700
   34MOL   C15412760   4.478   4.904   7.813  0.6240  0.5147  0.0637
   34MOL   C15512761   4.498   4.852   7.674 -0.0044 -0.5264 -0.0911
   34MOL   C15612762   4.394   4.791   7.605  0.1578  0.1825 -0.0337
   34MOL   C15712763   4.421   4.728   7.483 -0.2282 -0.0373  0.2436
   34MOL   C15812764   4.550   4.728   7.424 -0.0897 -0.6315  0.6990
   34MOL   C15912765   4.582   4.638   7.301  0.1979 -0.0165 -0.2421
   34MOL   C16012766   4.660   4.794   7.491 -0.2262 -0.3974  0.5622
   34MOL   C16112767   4.627   4.859   7.614  0.2733  0.4387  0.0510
   34MOL   C16212768   4.459   4.787   7.910 -0.2729 -0.6270  0.4364
   34MOL   H16312769   4.572   4.955   7.835 -0.8062  3.6157 -0.7632
   34MOL   H16412770   4.292   4.783   7.640  0.9237 -0.3157  2.1819
   34MOL   H16512771   4.343   4.688   7.420 -0.6765  0.3922  0.5239
   34MOL   H16612772   4.496   4.583   7.262  0.2895  0.4268 -1.0839
   34MOL   H16712773   4.628   4.703   7.226  0.5720  0.2713  0.2267
   34MOL   H16812774   4.663   4.570   7.328  1.7736  1.4867 -1.0355
   34MOL   H16912775   4.761   4.796   7.451  0.4947  0.1167  2.3737
   34MOL   H17012776   4.712   4.901   7.666  0.8857 -4.5618  3.4227
   34MOL   H17112777   4.363   4.742   7.885 -0.0805 -0.1041 -1.3517
   34MOL   H17212778   4.458   4.820   8.014  1.2690  0.8825  0.0007
   34MOL   C17312779   4.554   4.665   7.901  0.1047  0.2874 -0.7093
   34MOL   C17412780   4.485   4.553   7.984 -0.2798 -0.5643 -0.0942
   34MOL   C17512781   4.462   4.428   7.930 -0.5242 -0.1608  0.7995
   34MOL   C17612782   4.433   4.314   8.012  0.1344 -0.6425 -0.1305
   34MOL   C17712783   4.414   4.334   0.070 -0.8188  0.1071 -0.8037
   34MOL   C17812784   4.392   4.218   0.168  0.0671  0.4756 -0.4274
   34MOL   C17912785   4.422   4.465   0.122  0.4211 -0.4597 -0.5540
   34MOL   C18012786   4.455   4.571   0.041 -0.0617  0.7159  0.0369
   34MOL   C18112787   4.699   4.689   7.952 -0.2750  0.3200  0.0365
   34MOL   H18212788   4.556   4.630   7.798  2.5543 -0.3089 -0.4895
   34MOL   H18312789   4.477   4.420   7.823 -0.3789  0.5940  0.7639
   34MOL   H18412790   4.419   4.217   7.965  0.7530 -0.2381 -1.1663
   34MOL   H18512791   4.289   4.204   0.200 -0.3392  0.0786 -1.8988
   34MOL   H18612792   4.425   4.123   0.125 -1.6966  0.0782 -0.9487
   34MOL   H18712793   4.449   4.241   0.258 -1.0370  0.6986  0.2224
   34MOL   H18812794   4.406   4.473   0.228 -2.0757  2.2692 -1.0547
   34MOL   H18912795   4.477   4.667   0.086 -0.2685  0.2317  1.1725
   34MOL   H19012796   4.720   4.647   8.050  0.7138  2.4180  0.7714
   34MOL   H19112797   4.702   4.797   7.969 -1.2570  0.4485 -0.5528
   34MOL   C19212798   4.806   4.667   7.850  0.2106 -0.1294  0.7483
   34MOL   C19312799   4.793   4.535   7.780 -0.1791 -0.2549  0.1192
   34MOL   C19412800   4.765   4.409   7.843  0.6219 -0.1603  0.0727
   34MOL   C19512801   4.764   4.282   7.776  0.3333  0.3026  0.9832
   34MOL   C19612802   4.795   4.286   7.638  0.6190 -0.3427 -0.3610
   34MOL   C19712803   4.802   4.162   7.556 -0.5352  0.9369  0.1322
   34MOL   C19812804   4.822   4.412   7.569 -0.6615 -0.0625 -0.7730
   34MOL   C19912805   4.816   4.533   7.640 -0.1660  0.2833 -0.4478
   34MOL   C20012806   4.950   4.675   7.911 -0.0853 -0.2929 -0.1855
   34MOL   H20112807   4.795   4.744   7.774  2.5370 -1.8497 -1.4332
   34MOL   H20212808   4.734   4.406   7.947  0.2482 -2.2690 -0.0983
   34MOL   H20312809   4.747   4.185   7.820 -0.2484  0.6014  1.4225
   34MOL   H20412810   4.847   4.079   7.609 -0.0950  0.3742 -1.0855
   34MOL   H20512811   4.706   4.130   7.516  0.6069 -1.0449 -1.1046
   34MOL   H20612812   4.869   4.175   7.470 -1.9601  0.3872 -1.0857
   34MOL   H20712813   4.854   4.409   7.466  1.8187  1.9807 -0.1102
   34MOL   H20812814   4.843   4.620   7.582 -2.9353  0.8655 -0.9260
   34MOL   H20912815   5.029   4.654   7.838 -2.6563  0.6489 -3.3167
   34MOL   H21012816   4.969   4.596   7.984 -0.0834  0.6264  0.8090
   34MOL   C21112817   4.991   4.806   7.983 -0.2977 -0.1494  0.3256
   34MOL   C21212818   4.985   4.925   7.886 -0.4072 -0.0909  0.2712
   34MOL   C21312819   4.885   5.021   7.895  0.6139 -0.6260 -1.0778
   34MOL   C21412820   4.886   5.142   7.824 -0.3568 -0.5274 -0.4691
   34MOL   C21512821   4.978   5.160   7.720  0.1131 -0.9059  0.2453
   34MOL   C21612822   4.977   5.287   7.628 -0.2285 -0.0754  0.3095
   34MOL   C21712823   5.078   5.068   7.710 -0.1100  0.3486  0.6372
   34MOL   C21812824   5.088   4.959   7.792  0.1148  0.6318  0.5517
   34MOL   C21912825   5.125   4.789   8.051 -0.0887 -0.3314  0.1196
   34MOL   H22012826   4.915   4.838   8.053 -0.0965  0.7463  0.1446
   34MOL   H22112827   4.805   5.009   7.967 -1.1867  0.6188 -2.8188
   34MOL   H22212828   4.817   5.225   7.835  1.2870  0.7116  0.8157
   34MOL   H22312829   5.065   5.280   7.564  1.0457 -0.7480  2.1066
   34MOL   H22412830   4.886   5.295   7.568 -0.5549  1.5612  0.9830
   34MOL   H22512831   4.986   5.382   7.682  0.2870  0.3628 -0.5221
   34MOL   H22612832   5.156   5.090   7.638 -1.7245  1.1060 -0.9271
   34MOL   H22712833   5.167   4.889   7.769  1.6463  1.9080  1.8397
   34MOL   H22812834   5.183   4.878   8.027  1.1168 -0.7904  1.2588
   34MOL   H22912835   5.191   4.727   7.990  1.5171 -0.4512  1.9260
   34MOL   C23012836   5.118   4.768   0.122  0.4941  0.1136  0.4449
   34MOL   C23112837   5.088   4.889   0.211 -0.1430  0.0835 -0.5950
   34MOL   C23212838   5.058   4.858   0.349 -0.7056  0.3794 -0.6928
   34MOL   C23312839   5.040   4.956   0.448 -0.3867  0.6131 -0.0820
   34MOL   C23412840   5.048   5.092   0.411  0.5291  0.6026 -0.1916
   34MOL   C23512841   5.024   5.198   0.518  0.0485  0.0071 -1.1136
   34MOL   C23612842   5.067   5.122   0.274 -0.4284 -0.7866 -0.2818
   34MOL   C23712843   5.083   5.024   0.172  0.5608 -0.1753  0.4618
   34MOL   C23812844   5.243   4.692   0.170 -0.3654 -0.5086 -0.5541
   34MOL   H23912845   5.032   4.703   0.133  1.1035 -0.8541 -0.3788
   34MOL   H24012846   5.048   4.755   0.377  1.9088 -0.3766 -2.3430
   34MOL   H24112847   5.020   4.930   0.550 -0.3740 -0.8766 -0.4579
   34MOL   H24212848   5.074   5.164   0.609  1.4104 -2.4500 -2.6987
   34MOL   H24312849   5.081   5.282   0.480 -1.0980  0.2099 -2.4060
   34MOL   H24412850   4.919   5.224   0.531 -0.4007 -1.2403 -2.1380
   34MOL   H24512851   5.074   5.222   0.234 -2.4001 -0.0089  1.2229
   34MOL   H24612852   5.110   5.050   0.070  0.8865 -0.3773  0.4969
   34MOL   H24712853   5.261   4.723   0.272  1.0393  0.9682 -1.2343
   34MOL   H24812854   5.339   4.732   0.135  0.1818 -0.0938  1.3752
   34MOL   C24912855   5.255   4.539   0.171  0.4981 -0.1714  0.2413
   34MOL   C25012856   5.123   4.472   0.204 -0.4947  0.4905  0.1471
   34MOL   C25112857   5.055   4.400   0.100 -0.9262  0.2002 -0.0180
   34MOL   C25212858   4.936   4.334   0.127  0.5289 -0.2661 -0.2807
   34MOL   C25312859   4.886   4.334   0.260  0.5829  0.4914  0.7300
   34MOL   C25412860   4.743   4.287   0.280 -0.5379 -0.0976 -0.4716
   34MOL   C25512861   4.958   4.392   0.365  0.0506  0.2953 -0.7095
   34MOL   C25612862   5.075   4.465   0.335  0.4412 -0.3160  0.4071
   34MOL   C25712863   5.378   4.491   0.252 -0.6501  0.9766  0.2295
   34MOL   H25812864   5.283   4.508   0.070  0.0220 -0.5116  0.2141
   34MOL   H25912865   5.096   4.397   0.000 -3.9826 -0.5696 -1.3223
   34MOL   H26012866   4.877   4.283   0.053  0.6473 -1.0907  0.1913
   34MOL   H26112867   4.673   4.368   0.303 -1.6222 -0.9699 -0.6770
   34MOL   H26212868   4.692   4.233   0.201 -1.2357 -0.1157 -0.0165
   34MOL   H26312869   4.750   4.214   0.361 -2.0363 -0.8877 -1.0356
   34MOL   H26412870   4.911   4.414   0.460 -0.1674  0.2807 -0.8130
   34MOL   H26512871   5.122   4.518   0.416 -1.2855  0.0028  1.2224
   34MOL   H26612872   5.378   4.546   0.346 -0.4446  0.0102  0.8050
   34MOL   H26712873   5.466   4.527   0.199  0.3473  0.0618  1.2291
   34MOL   C26812874   5.394   4.338   0.266 -0.3081 -0.1553 -0.0245
   34MOL   C26912875   5.483   4.284   0.376  0.7930 -0.4861 -0.4629
   34MOL   C27012876   5.436   4.173   0.449 -0.6508 -0.0146 -0.3852
   34MOL   C27112877   5.514   4.116   0.551  0.1577  0.3842 -0.1981
   34MOL   C27212878   5.647   4.162   0.565  0.0601  0.2193 -0.2010
   34MOL   C27312879   5.732   4.092   0.664  0.1981 -0.0831  0.1581
   34MOL   C27412880   5.698   4.263   0.490 -1.4063 -0.2348 -0.3649
   34MOL   C27512881   5.617   4.329   0.391  0.4106  0.3222 -0.0738
   34MOL   C27612882   5.416   4.254   0.135 -0.5944 -0.1936  0.2381
   34MOL   H27712883   5.293   4.312   0.299  0.2663 -0.4773  1.5384
   34MOL   H27812884   5.334   4.138   0.436  0.5449 -3.4067 -1.1071
   34MOL   H27912885   5.483   4.036   0.615  2.0263 -1.1025 -1.0990
   34MOL   H28012886   5.839   4.106   0.654  0.1913 -0.6002 -0.7321
   34MOL   H28112887   5.713   4.119   0.768 -1.6695 -2.1218  0.3889
   34MOL   H28212888   5.716   3.984   0.666 -0.0411 -0.0820 -1.1348
   34MOL   H28312889   5.795   4.302   0.517 -0.6682 -1.6452 -0.9513
   34MOL   H28412890   5.658   4.402   0.323 -2.2132  2.6873  0.7879
   34MOL   H28512891   5.348   4.281   0.054  0.4588  0.0326 -0.5733
   34MOL   H28612892   5.376   4.154   0.151  0.7234 -0.4489  2.1189
   34MOL   C28712893   5.554   4.246   0.072  0.0084 -0.2067  0.6426
   34MOL   C28812894   5.607   4.377   0.007 -0.8709  0.1284 -0.3936
   34MOL   C28912895   5.749   4.406   0.023 -0.5043 -0.4221  0.3401
   34MOL   C29012896   5.792   4.529   8.054  0.2676  0.1747 -0.2293
   34MOL   C29112897   5.716   4.618   7.979  0.3047 -0.3274 -0.3224
   34MOL   C29212898   5.775   4.748   7.928 -0.1080 -0.9805  0.0565
   34MOL   C29312899   5.576   4.581   7.953 -0.5528 -0.6801  0.5683
   34MOL   C29412900   5.524   4.457   8.010  0.2578 -0.2169  0.3727
   34MOL   C29512901   5.560   4.127   8.057 -0.1585 -0.9445  0.4449
   34MOL   H29612902   5.623   4.224   0.154  0.4722  0.7341  0.5145
   34MOL   H29712903   5.813   4.340   0.080 -0.5902 -1.3925 -0.6630
   34MOL   H29812904   5.896   4.557   8.068  0.8847 -0.3731 -3.3400
   34MOL   H29912905   5.883   4.732   7.925 -0.2802 -1.7940 -2.4346
   34MOL   H30012906   5.740   4.787   7.833 -0.2435 -0.8202  0.1731
   34MOL   H30112907   5.760   4.832   7.996  0.0003 -0.0867 -1.0089
   34MOL   H30212908   5.519   4.647   7.890 -0.5642 -1.3708 -0.1511
   34MOL   H30312909   5.423   4.431   7.984 -1.0344  5.1810 -0.6444
   34MOL   H30412910   5.645   4.143   7.991 -0.2763 -0.3073  0.4509
   34MOL   H30512911   5.471   4.121   7.993 -0.2303  2.6843  0.1106
   34MOL   C30612912   5.576   3.990   0.041  0.1373 -0.0618 -0.6242
   34MOL   C30712913   5.708   3.998   0.117  0.0611 -0.0886 -0.4014
   34MOL   C30812914   5.712   3.967   0.253 -1.2476 -0.1057 -0.3208
   34MOL   C30912915   5.832   3.979   0.324 -0.0837  0.0042 -0.2098
   34MOL   C31012916   5.941   4.036   0.260 -0.3825  0.8172  0.1509
   34MOL   C31112917   6.065   4.075   0.341 -0.2057 -0.6039  0.4040
   34MOL   C31212918   5.950   4.046   0.120 -0.1120  0.3977 -0.0747
   34MOL   C31312919   5.828   4.023   0.050 -0.5070  0.8062 -0.2334
   34MOL   C31412920   5.573   3.864   8.033 -0.2921 -0.2093 -0.1985
   34MOL   H31512921   5.513   3.994   0.130  0.0081  0.6747 -0.7451
   34MOL   H31612922   5.628   3.932   0.312 -1.9767 -1.3726 -2.0626
   34MOL   H31712923   5.831   3.960   0.431  0.6228  0.0070 -0.1992
   34MOL   H31812924   6.028   4.145   0.416 -0.0007  0.4109 -0.4277
   34MOL   H31912925   6.112   3.990   0.390  0.9105  0.7363  1.6706
   34MOL   H32012926   6.140   4.111   0.271 -1.3088  1.2433  0.1262
   34MOL   H32112927   6.029   4.093   0.065  1.2197 -3.3410 -1.5003
   34MOL   H32212928   5.832   4.019   8.022  0.9719 -1.2533 -0.1217
   34MOL   H32312929   5.592   3.774   0.012 -1.5833 -0.7646 -0.6104
   34MOL   H32412930   5.651   3.864   7.957  2.0040  0.6359  2.0942
   34MOL   C32512931   5.435   3.848   7.956  0.3707 -0.1924  0.3546
   34MOL   C32612932   5.315   3.891   8.037 -0.6434 -0.3360  0.0538
   34MOL   C32712933   5.294   3.818   0.076  0.5827 -1.0302  0.4468
   34MOL   C32812934   5.177   3.846   0.147 -0.2781  0.2812 -0.7549
   34MOL   C32912935   5.089   3.947   0.108  0.7687  0.0825  0.7233
   34MOL   C33012936   4.961   3.958   0.190 -0.4755 -0.2529 -0.1140
   34MOL   C33112937   5.108   4.015   8.065  0.1486 -0.4092 -0.5207
   34MOL   C33212938   5.219   3.982   7.987  0.0791  0.3903  0.3778
   34MOL   C33312939   5.445   3.700   7.904  0.0466 -0.9906  0.0881
   34MOL   H33412940   5.447   3.899   7.860  1.2021  0.7294  0.9492
   34MOL   H33512941   5.361   3.740   0.111  0.5726 -1.2395 -0.0016
   34MOL   H33612942   5.166   3.778   0.230  1.0299  0.5751 -0.3279
   34MOL   H33712943   4.969   3.894   0.278 -0.3687 -1.5379 -1.0546
   34MOL   H33812944   4.933   4.058   0.222  3.4824  1.5591 -1.9361
   34MOL   H33912945   4.878   3.914   0.136  0.6874 -1.1393 -1.2083
   34MOL   H34012946   5.036   4.087   8.028  2.1724  0.8061 -2.2133
   34MOL   H34112947   5.237   4.023   7.889 -0.0033 -3.5170 -1.3782
   34MOL   H34212948   5.452   3.632   7.989  1.1606 -1.6318 -0.5080
   34MOL   H34312949   5.539   3.699   7.849 -0.7160 -1.4435 -1.2411
   34MOL   C34412950   5.336   3.646   7.811 -0.2868  0.2580 -0.1926
   34MOL   C34512951   5.344   3.494   7.797  0.0729 -0.3783 -0.4915
   34MOL   C34612952   5.240   3.404   7.837 -0.4824 -0.7986 -0.1739
   34MOL   C34712953   5.248   3.266   7.821  0.0778 -0.1751  0.7308
   34MOL   C34812954   5.358   3.209   7.756 -1.0001  0.1177  0.1330
   34MOL   C34912955   5.369   3.064   7.730  0.2129 -0.1286  0.0047
   34MOL   C35012956   5.458   3.295   7.704 -0.1170 -0.6900  0.5292
   34MOL   C35112957   5.454   3.436   7.723  0.5460  0.0084 -0.0987
   34MOL   C35212958   5.350   3.715   7.671  0.0300  0.3205 -0.0166
   34MOL   H35312959   5.236   3.663   7.852  0.2955  2.2879  0.4517
   34MOL   H35412960   5.156   3.440   7.895 -0.9464 -0.7682 -0.8594
   34MOL   H35512961   5.181   3.188   7.852 -0.8109  0.4749  0.4694
   34MOL   H35612962   5.427   3.001   7.797 -0.1616 -0.6076 -0.1199
   34MOL   H35712963   5.269   3.023   7.717  0.5122 -1.3384  1.3874
   34MOL   H35812964   5.419   3.041   7.636  0.2493  1.2178 -0.3133
   34MOL   H35912965   5.532   3.245   7.643 -0.1239 -0.7671  0.5829
   34MOL   H36012966   5.529   3.500   7.678 -0.7130  2.1801  0.8032
   34MOL   H36112967   5.451   3.702   7.634  1.7445  2.1071  3.7661
   34MOL   H36212968   5.339   3.822   7.688 -0.6724 -0.1135  2.4610
   34MOL   C36312969   5.249   3.675   7.562 -0.3912 -0.7691  0.5798
   34MOL   C36412970   5.266   3.751   7.426 -0.0812  0.4265 -0.5916
   34MOL   C36512971   5.291   3.687   7.302 -0.7154 -0.3415 -0.3285
   34MOL   C36612972   5.302   3.763   7.184  0.3716  0.1657  0.1070
   34MOL   C36712973   5.264   3.899   7.188  0.0030  0.5451 -0.5718
   34MOL   C36812974   5.276   3.993   7.064 -0.0777  0.3776  0.0683
   34MOL   C36912975   5.237   3.962   7.311  0.2504 -0.3756  0.1670
   34MOL   C37012976   5.237   3.889   7.429 -0.3467 -0.0836  0.2278
   34MOL   C37112977   5.102   3.695   7.607  0.2131  0.0271  0.0289
   34MOL   H37212978   5.256   3.568   7.542 -2.4724 -0.6618 -0.9303
   34MOL   H37312979   5.305   3.580   7.304 -0.9305 -0.3586  1.8014
   34MOL   H37412980   5.336   3.715   7.094  0.7954 -0.2386  0.4790
   34MOL   H37512981   5.333   3.956   6.978  2.1074  3.3924  0.1068
   34MOL   H37612982   5.189   4.050   7.032 -0.4635  0.0362  0.4971
   34MOL   H37712983   5.339   4.075   7.100 -0.1011  0.4797 -0.1243
   34MOL   H37812984   5.219   4.068   7.314  0.5368 -0.3069 -0.3956
   34MOL   H37912985   5.224   3.945   7.521  0.6452  0.2764  0.1565
   34MOL   H38012986   5.034   3.673   7.525  1.3329 -1.4323 -0.5316
   34MOL   H38112987   5.078   3.797   7.637 -0.2706 -0.0025 -0.2712
   34MOL   H38212988   5.069   3.640   7.695 -1.9419  0.9351 -0.1849
   35MOL     C112989   6.044   4.945   3.360  0.0575  0.1430  0.1623
   35MOL     C212990   5.998   4.884   3.222 -0.0640 -0.0027 -0.6634
   35MOL     C312991   6.058   4.942   3.106 -0.0826 -0.3839 -0.0906
   35MOL     C412992   6.013   4.895   2.976  0.0915 -0.0651 -0.2221
   35MOL     C512993   5.915   4.792   2.958 -0.3400  0.1478  0.0434
   35MOL     C612994   5.844   4.761   2.829  0.1658 -0.2536  0.3897
   35MOL     C712995   5.851   4.739   3.071 -0.2604  0.0092 -0.6454
   35MOL     C812996   5.888   4.787   3.201 -0.5165 -0.2325 -0.3176
   35MOL     C912997   5.930   4.996   3.448  0.8500  0.1327  0.5094
   35MOL    H1012998   6.091   4.865   3.417  0.6750 -0.9989 -1.8910
   35MOL    H1112999   6.148   5.001   3.118 -1.1312  1.0736  0.7447
   35MOL    H1213000   6.061   4.938   2.889  1.4852 -2.7239 -0.8342
   35MOL    H1313001   5.871   4.842   2.761  0.0558 -0.7789 -0.2783
   35MOL    H1413002   5.873   4.660   2.801 -1.2433 -0.1749 -1.3917
   35MOL    H1513003   5.736   4.762   2.844  0.0071  0.3735 -0.7843
   35MOL    H1613004   5.767   4.672   3.062  0.0765 -0.2668 -1.9869
   35MOL    H1713005   5.826   4.760   3.285 -0.5791 -0.0039 -0.2897
   35MOL    H1813006   5.968   5.008   3.550 -0.0404 -1.0102  0.9882
   35MOL    H1913007   5.847   4.927   3.465  3.0456 -1.9273  3.5066
   35MOL    H2013008   6.121   5.022   3.354  1.5116 -1.3509 -1.1112
   35MOL    C2113009   5.867   5.132   3.404  0.9836  0.1180  0.3255
   35MOL    C2213010   5.763   5.160   3.508 -0.0250  0.3488  0.1687
   35MOL    C2313011   5.793   5.223   3.628  0.6955 -0.4993 -0.6484
   35MOL    C2413012   5.702   5.249   3.731 -0.3720 -0.9387  0.4154
   35MOL    C2513013   5.573   5.185   3.722 -0.1338  0.5388  0.6238
   35MOL    C2613014   5.468   5.201   3.831  0.3863 -0.0683 -0.1595
   35MOL    C2713015   5.534   5.117   3.603  0.3088 -0.2567  0.5213
   35MOL    C2813016   5.626   5.111   3.497 -0.6757  0.0133 -0.3318
   35MOL    C2913017   5.801   5.137   3.257 -0.1386 -0.1632  0.1919
   35MOL    H3013018   5.946   5.207   3.408  1.8662 -0.7737 -0.1490
   35MOL    H3113019   5.893   5.260   3.649  0.4830  0.5976 -1.5697
   35MOL    H3213020   5.735   5.318   3.808 -2.6619 -0.9709  1.4823
   35MOL    H3313021   5.475   5.118   3.903 -1.8737 -3.2594 -3.4518
   35MOL    H3413022   5.475   5.297   3.883  4.8559  0.2342 -1.0925
   35MOL    H3513023   5.369   5.191   3.789  0.5051  0.1415 -0.4921
   35MOL    H3613024   5.441   5.061   3.601  1.3367 -1.9674 -2.4568
   35MOL    H3713025   5.604   5.059   3.405  0.0519  0.4455 -0.7618
   35MOL    H3813026   5.742   5.046   3.245  1.3108 -1.1805  0.6251
   35MOL    H3913027   5.891   5.110   3.201 -0.5788 -1.2154 -0.0265
   35MOL    C4013028   5.722   5.249   3.201  0.6002 -0.5713 -0.0370
   35MOL    C4113029   5.655   5.204   3.073  0.1365 -0.1402  0.1234
   35MOL    C4213030   5.720   5.120   2.987 -0.0017  0.1617 -0.2871
   35MOL    C4313031   5.648   5.068   2.877 -0.6236  0.1559 -0.6621
   35MOL    C4413032   5.519   5.109   2.848 -0.0239  0.8829  0.5663
   35MOL    C4513033   5.450   5.042   2.732 -0.6423 -0.1601 -0.6339
   35MOL    C4613034   5.462   5.213   2.927  0.3342  0.2257  0.0917
   35MOL    C4713035   5.529   5.262   3.042 -0.3030 -0.2021  0.3505
   35MOL    C4813036   5.809   5.375   3.179  0.4834 -1.2373  0.0738
   35MOL    H4913037   5.637   5.264   3.268  2.0531  2.4008  1.2412
   35MOL    H5013038   5.820   5.085   3.007 -0.8016 -2.0323  0.1001
   35MOL    H5113039   5.695   4.989   2.821  0.1825  0.4194 -0.3655
   35MOL    H5213040   5.523   4.995   2.667  0.9135  1.2603  0.0603
   35MOL    H5313041   5.377   4.965   2.758 -0.7822  0.9840  2.6998
   35MOL    H5413042   5.386   5.110   2.676 -3.4625 -2.0519  0.1480
   35MOL    H5513043   5.370   5.264   2.906  0.3165  0.0323 -0.3202
   35MOL    H5613044   5.493   5.343   3.103  0.9205  0.7673 -0.1941
   35MOL    H5713045   5.777   5.430   3.091  0.0639 -0.5717  0.6373
   35MOL    H5813046   5.913   5.344   3.170  0.9950  0.6499 -0.7571
   35MOL    C5913047   5.795   5.486   3.288  0.0935 -0.1890 -0.2040
   35MOL    C6013048   5.645   5.515   3.314  0.7084 -0.1956 -0.5649
   35MOL    C6113049   5.589   5.482   3.440 -0.2117 -0.2085 -0.8427
   35MOL    C6213050   5.457   5.516   3.457 -0.2469 -0.6083 -0.6633
   35MOL    C6313051   5.376   5.577   3.355 -0.0810  0.5392  0.5327
   35MOL    C6413052   5.231   5.614   3.386 -0.3695  0.4193  0.0474
   35MOL    C6513053   5.431   5.619   3.233 -1.0668  0.0769 -0.2124
   35MOL    C6613054   5.566   5.588   3.216 -0.1841  1.0650 -0.1361
   35MOL    C6713055   5.879   5.614   3.279  0.0695 -0.0442  0.5391
   35MOL    H6813056   5.827   5.434   3.378  1.6116 -1.9158 -1.6898
   35MOL    H6913057   5.652   5.438   3.516  0.3866  2.4781  0.2711
   35MOL    H7013058   5.411   5.492   3.552  0.9868  0.7670  0.3204
   35MOL    H7113059   5.225   5.613   3.495  1.7265  0.6430  0.1794
   35MOL    H7213060   5.207   5.713   3.348  2.2943  1.7446  1.6344
   35MOL    H7313061   5.162   5.536   3.352  0.8393 -0.3921 -0.5540
   35MOL    H7413062   5.373   5.675   3.161 -1.3039 -0.5028 -0.4770
   35MOL    H7513063   5.620   5.623   3.130  0.7682 -1.7370 -0.7423
   35MOL    H7613064   5.846   5.675   3.195  0.6074  0.2562  0.5467
   35MOL    H7713065   5.982   5.587   3.258 -0.7047 -1.3334 -1.7674
   35MOL    C7813066   5.880   5.712   3.402 -1.0182 -0.0357 -0.3061
   35MOL    C7913067   5.923   5.855   3.356  0.6255  0.0755  0.6487
   35MOL    C8013068   6.022   5.877   3.259 -0.0390  0.2784 -0.3485
   35MOL    C8113069   6.064   6.009   3.228  0.2215 -0.4929 -0.0645
   35MOL    C8213070   6.009   6.119   3.295  0.2773  0.1079  0.0868
   35MOL    C8313071   6.035   6.262   3.244  0.6370  0.2524  0.8309
   35MOL    C8413072   5.907   6.100   3.385 -0.2756  0.0393  0.0817
   35MOL    C8513073   5.860   5.971   3.411 -0.4174  0.5939  0.7568
   35MOL    C8613074   5.972   5.653   3.518  0.5540  0.9260 -0.1130
   35MOL    H8713075   5.776   5.713   3.435 -1.5866 -2.1796 -1.9716
   35MOL    H8813076   6.085   5.803   3.211  0.5116  0.3942  0.1819
   35MOL    H8913077   6.146   6.018   3.159  2.0601  1.3779  2.2345
   35MOL    H9013078   5.949   6.328   3.252  0.1939 -0.3237  0.8409
   35MOL    H9113079   6.118   6.308   3.297  0.2556  0.0334  1.6230
   35MOL    H9213080   6.056   6.249   3.138 -1.2661 -2.0665  0.7108
   35MOL    H9313081   5.852   6.182   3.429 -1.6335 -0.1887 -1.1606
   35MOL    H9413082   5.776   5.959   3.479 -1.5718  2.1599 -0.3779
   35MOL    H9513083   6.077   5.655   3.489  0.9725 -0.0188  1.3032
   35MOL    H9613084   5.943   5.549   3.533 -0.9158  1.1786 -1.0847
   35MOL    C9713085   5.956   5.719   3.658 -0.6669 -0.3497  1.3939
   35MOL    C9813086   6.052   5.666   3.761  0.5543  0.3217 -0.4527
   35MOL    C9913087   6.050   5.530   3.801  0.4720 -0.2723 -0.5559
   35MOL   C10013088   6.144   5.484   3.894  0.3066 -0.2885  0.0693
   35MOL   C10113089   6.239   5.571   3.952 -0.7979 -0.6544 -0.4251
   35MOL   C10213090   6.344   5.507   4.035 -0.6808 -1.4129  0.4188
   35MOL   C10313091   6.247   5.705   3.909 -0.0439  0.0083 -0.6928
   35MOL   C10413092   6.148   5.753   3.818 -1.0805 -0.1747 -0.0908
   35MOL   C10513093   5.809   5.709   3.710  0.1529  0.5830 -0.0015
   35MOL   H10613094   5.981   5.824   3.645 -1.7217 -0.2161  0.3227
   35MOL   H10713095   5.975   5.460   3.765 -1.5072  0.6080  1.7522
   35MOL   H10813096   6.144   5.380   3.924 -2.6463  0.3869  2.6873
   35MOL   H10913097   6.333   5.537   4.140  0.6121 -1.3475  0.5476
   35MOL   H11013098   6.337   5.400   4.022  0.1871 -1.6189  1.4923
   35MOL   H11113099   6.438   5.551   4.000 -1.3742 -0.8806 -0.7911
   35MOL   H11213100   6.327   5.768   3.946  1.0208  0.3295 -3.3568
   35MOL   H11313101   6.141   5.859   3.798  1.6066 -0.3558 -2.2158
   35MOL   H11413102   5.783   5.604   3.723  1.5327  0.2617  0.2487
   35MOL   H11513103   5.747   5.742   3.627 -0.7799  1.5778  1.0716
   35MOL   C11613104   5.767   5.789   3.834 -0.0842 -0.2953  0.1868
   35MOL   C11713105   5.638   5.728   3.891 -0.1545  0.1524 -0.0205
   35MOL   C11813106   5.505   5.772   3.865  0.1544  0.0318 -0.5749
   35MOL   C11913107   5.400   5.702   3.916  0.9390 -0.1412  0.1971
   35MOL   C12013108   5.413   5.595   4.006 -0.4627  0.4169  0.5971
   35MOL   C12113109   5.290   5.521   4.052  0.3514  0.1800  0.1557
   35MOL   C12213110   5.547   5.557   4.042  0.9319 -0.1747  0.0493
   35MOL   C12313111   5.657   5.616   3.976  0.0429 -0.0776  0.0632
   35MOL   C12413112   5.758   5.935   3.792 -0.2766  0.2028 -0.7705
   35MOL   H12513113   5.844   5.776   3.911  1.1994  3.1441 -0.4341
   35MOL   H12613114   5.482   5.855   3.801 -0.0945 -0.3352 -0.9557
   35MOL   H12713115   5.299   5.729   3.889 -0.2135 -1.6009  2.8450
   35MOL   H12813116   5.207   5.586   4.024 -1.5443 -1.8993  0.7966
   35MOL   H12913117   5.295   5.433   3.987  2.8902 -1.0259  1.8999
   35MOL   H13013118   5.291   5.501   4.159  0.0845  2.4665  0.6033
   35MOL   H13113119   5.558   5.478   4.114  0.0186  0.5781  1.0380
   35MOL   H13213120   5.757   5.578   3.992 -0.7514 -1.9451  0.8171
   35MOL   H13313121   5.686   5.956   3.713 -0.1831  2.5526 -0.2632
   35MOL   H13413122   5.854   5.956   3.746  1.1174 -0.8154  1.5686
   35MOL   C13513123   5.737   6.034   3.910 -0.0836 -0.1309 -0.4336
   35MOL   C13613124   5.596   6.095   3.901 -0.6682 -0.2282 -0.1213
   35MOL   C13713125   5.493   6.071   3.996  0.4256  0.8224 -0.3228
   35MOL   C13813126   5.364   6.123   3.969 -0.8437  0.3989  0.2945
   35MOL   C13913127   5.340   6.198   3.850  0.0850 -0.5583 -0.5113
   35MOL   C14013128   5.206   6.264   3.846 -0.6118  0.1549  0.2474
   35MOL   C14113129   5.444   6.223   3.763  1.1649  0.1216  0.3311
   35MOL   C14213130   5.574   6.180   3.794  0.7105  0.4619 -0.3431
   35MOL   C14313131   5.834   6.149   3.918 -0.5972 -0.0890  0.3598
   35MOL   H14413132   5.741   5.976   4.002 -2.1303 -0.2808 -0.4089
   35MOL   H14513133   5.500   5.995   4.072 -0.4438  0.3564 -0.7024
   35MOL   H14613134   5.277   6.108   4.032  0.4470  0.5538  2.1654
   35MOL   H14713135   5.132   6.184   3.854 -1.2493  0.7095 -0.1049
   35MOL   H14813136   5.205   6.323   3.937  0.9758 -0.0124  0.3907
   35MOL   H14913137   5.188   6.327   3.759  0.5921 -1.6363 -1.3392
   35MOL   H15013138   5.420   6.274   3.671  0.5780 -2.5694 -1.0568
   35MOL   H15113139   5.645   6.178   3.713 -0.4673 -0.4509 -1.3800
   35MOL   H15213140   5.783   6.216   3.987  0.6891  0.3382  0.9113
   35MOL   H15313141   5.843   6.202   3.823 -2.9063 -1.9310 -0.9396
   35MOL   C15413142   5.973   6.136   3.980  0.5757 -0.7989 -0.3649
   35MOL   C15513143   5.976   6.090   4.117  0.3159  0.6688 -0.6393
   35MOL   C15613144   6.054   5.975   4.145 -0.2999  0.0153  0.1597
   35MOL   C15713145   6.053   5.924   4.275  0.0963 -0.1315  0.2084
   35MOL   C15813146   5.984   5.987   4.380 -0.3593  0.2264  0.4538
   35MOL   C15913147   5.990   5.948   4.519  0.3214  0.2278  0.1844
   35MOL   C16013148   5.916   6.100   4.347  0.2635 -0.5100  0.9526
   35MOL   C16113149   5.910   6.159   4.222 -0.1736 -0.3208  0.5563
   35MOL   C16213150   6.056   6.265   3.961 -0.5643 -0.0912 -0.4974
   35MOL   H16313151   6.010   6.047   3.930 -0.6066 -1.5913  0.1470
   35MOL   H16413152   6.125   5.932   4.076 -2.0631 -0.2487 -1.5110
   35MOL   H16513153   6.117   5.843   4.309  0.4286  0.7098  1.6484
   35MOL   H16613154   5.888   5.943   4.558  0.6033 -1.6627  0.7051
   35MOL   H16713155   6.056   5.862   4.528 -0.0609  0.0606  1.3832
   35MOL   H16813156   6.040   6.027   4.575  0.5467  1.8673 -2.2352
   35MOL   H16913157   5.867   6.160   4.423  3.8105  1.9498  1.4378
   35MOL   H17013158   5.855   6.251   4.208 -1.0231 -0.8032  0.6844
   35MOL   H17113159   6.141   6.266   4.029  0.2654  3.5369 -1.4894
   35MOL   H17213160   5.990   6.348   3.985 -0.3971 -0.4207  1.1243
   35MOL   C17313161   6.127   6.290   3.827  0.7407 -0.0542  0.1585
   35MOL   C17413162   6.231   6.179   3.782 -0.2859  0.0767 -0.4352
   35MOL   C17513163   6.347   6.144   3.856  0.2743  0.1014 -0.1640
   35MOL   C17613164   6.442   6.052   3.810 -0.1049 -0.2666  0.4588
   35MOL   C17713165   6.424   5.993   3.689  0.0283  0.8370 -0.1612
   35MOL   C17813166   6.515   5.891   3.634 -0.3156  0.3867  0.1738
   35MOL   C17913167   6.310   6.020   3.610  0.1878 -0.2229 -0.4365
   35MOL   C18013168   6.217   6.118   3.659  0.1595  0.1839  0.0579
   35MOL   C18113169   6.188   6.433   3.804  1.2185  0.6964  0.1623
   35MOL   H18213170   6.047   6.290   3.752  0.2536 -3.0370  0.6296
   35MOL   H18313171   6.347   6.198   3.949 -1.2493  0.5245 -0.4014
   35MOL   H18413172   6.531   6.040   3.869 -0.6564 -0.6007  1.2365
   35MOL   H18513173   6.463   5.795   3.641  0.3205  0.1462  2.1222
   35MOL   H18613174   6.553   5.920   3.537 -0.6801  0.3770  0.0278
   35MOL   H18713175   6.600   5.897   3.703  1.7345 -0.5233 -2.1811
   35MOL   H18813176   6.301   5.984   3.508 -1.0587  0.4252 -0.5599
   35MOL   H18913177   6.136   6.147   3.593 -0.4535 -0.8149  0.3568
   35MOL   H19013178   6.231   6.426   3.703 -1.9479 -1.6559 -1.1260
   35MOL   H19113179   6.280   6.441   3.863  1.0705  1.0644  0.3432
   35MOL   C19213180   6.092   6.557   3.815 -0.6194  0.2511 -0.5028
   35MOL   C19313181   5.973   6.541   3.719  0.0744 -0.2013 -0.2365
   35MOL   C19413182   5.989   6.533   3.578  0.1129  0.3032 -0.0719
   35MOL   C19513183   5.880   6.496   3.501 -0.0729 -0.0571 -0.3423
   35MOL   C19613184   5.759   6.455   3.556 -0.5784 -0.4981  0.3795
   35MOL   C19713185   5.647   6.431   3.458  0.6855 -0.3042  0.4163
   35MOL   C19813186   5.740   6.461   3.691  0.3393  0.1795  0.7574
   35MOL   C19913187   5.848   6.500   3.772 -0.1280 -0.5424  0.7158
   35MOL   C20013188   6.164   6.695   3.795  0.4890  0.6742  0.1542
   35MOL   H20113189   6.054   6.556   3.917 -1.3515  1.9712 -0.7379
   35MOL   H20213190   6.084   6.548   3.529 -0.4650 -0.7713 -1.5522
   35MOL   H20313191   5.897   6.486   3.395  0.6694  1.1314 -0.3469
   35MOL   H20413192   5.555   6.405   3.511  0.8598 -0.3336  0.7040
   35MOL   H20513193   5.638   6.517   3.392 -1.3955  1.2392  2.6388
   35MOL   H20613194   5.658   6.338   3.401 -3.8414  0.0149 -1.1912
   35MOL   H20713195   5.643   6.438   3.731  0.0285 -0.7035 -0.4512
   35MOL   H20813196   5.839   6.511   3.879  0.3514  1.4391  0.5653
   35MOL   H20913197   6.093   6.777   3.787 -1.9757 -1.2283  1.5982
   35MOL   H21013198   6.218   6.698   3.700  1.2413  1.0569  0.5870
   35MOL   C21113199   6.261   6.736   3.902 -0.2120  0.4962 -0.2336
   35MOL   C21213200   6.206   6.717   4.047  0.0764  0.5823  0.4098
   35MOL   C21313201   6.238   6.600   4.119  0.3899 -0.3636 -0.4555
   35MOL   C21413202   6.181   6.579   4.244  0.3043  0.7112 -0.4217
   35MOL   C21513203   6.097   6.671   4.302  0.1311 -0.1933 -0.4861
   35MOL   C21613204   6.045   6.653   4.439 -0.6044  0.4230 -0.0647
   35MOL   C21713205   6.079   6.796   4.241 -0.4554 -0.5809 -0.7584
   35MOL   C21813206   6.125   6.815   4.110 -0.2354  0.4784 -0.4532
   35MOL   C21913207   6.339   6.875   3.868 -0.3486  0.8027 -0.4371
   35MOL   H22013208   6.335   6.657   3.908 -0.4498  0.3163  0.3930
   35MOL   H22113209   6.309   6.527   4.083  1.9848  0.6543  0.5399
   35MOL   H22213210   6.213   6.490   4.296  0.3142  0.2664 -1.1890
   35MOL   H22313211   6.008   6.553   4.464 -0.9079  0.3320 -0.8666
   35MOL   H22413212   6.127   6.676   4.507  1.0214 -0.2753 -1.7457
   35MOL   H22513213   5.964   6.719   4.470  0.2183  0.8052  1.3202
   35MOL   H22613214   6.011   6.868   4.283  0.4065  0.5948 -1.3417
   35MOL   H22713215   6.103   6.914   4.074 -0.2152  1.1014  1.1991
   35MOL   H22813216   6.257   6.944   3.851 -0.4554  1.0907  1.1951
   35MOL   H22913217   6.398   6.868   3.777 -1.4908  0.0914 -1.1372
   35MOL   C23013218   6.429   6.934   3.973  0.3621  0.0811  0.9036
   35MOL   C23113219   6.482   7.076   3.954  0.2652  0.1411  0.2203
   35MOL   C23213220   6.514   7.137   3.831 -0.3071  0.6790 -0.1617
   35MOL   C23313221   6.570   7.273   3.823 -0.6443  0.8591  0.1835
   35MOL   C23413222   6.589   7.342   3.949  0.2229 -0.7578 -0.0331
   35MOL   C23513223   6.670   7.471   3.957  0.2387 -0.0607 -0.0383
   35MOL   C23613224   6.551   7.283   4.072  1.0517  0.1255  0.6096
   35MOL   C23713225   6.504   7.147   4.072 -0.5840 -0.0002 -0.3006
   35MOL   C23813226   6.539   6.844   4.029  0.3335  0.2196  0.2918
   35MOL   H23913227   6.365   6.936   4.061  1.8481 -2.1049  2.0631
   35MOL   H24013228   6.492   7.084   3.739 -1.0477  1.7069 -0.5946
   35MOL   H24113229   6.594   7.319   3.728 -2.9410  2.8700  0.5187
   35MOL   H24213230   6.772   7.433   3.966  0.4888  0.5010 -0.4019
   35MOL   H24313231   6.648   7.526   3.865 -2.0524 -1.4670 -0.3682
   35MOL   H24413232   6.648   7.528   4.047  0.5001  0.4147 -0.2686
   35MOL   H24513233   6.556   7.336   4.166  1.2033 -1.4923  1.5306
   35MOL   H24613234   6.476   7.109   4.169  0.5157  1.9446  0.8112
   35MOL   H24713235   6.511   6.739   4.039 -0.9537  0.6513  1.3688
   35MOL   H24813236   6.550   6.861   4.136 -1.6418 -2.6439  1.0172
   35MOL   C24913237   6.682   6.851   3.965  0.1088 -0.2611 -0.2319
   35MOL   C25013238   6.685   6.822   3.814 -0.1859 -0.0583  0.4674
   35MOL   C25113239   6.748   6.911   3.722 -0.5064  0.2029 -0.3267
   35MOL   C25213240   6.755   6.880   3.585 -0.3152 -1.4255 -0.0966
   35MOL   C25313241   6.693   6.766   3.534 -0.5635  0.0822 -0.7009
   35MOL   C25413242   6.699   6.739   3.381 -0.2495 -0.0888 -0.3448
   35MOL   C25513243   6.623   6.679   3.622  0.3976  0.3671 -1.0215
   35MOL   C25613244   6.618   6.705   3.755 -0.0785  0.1712 -0.0465
   35MOL   C25713245   6.772   6.757   4.039 -0.5507  0.4004 -0.4581
   35MOL   H25813246   6.721   6.951   3.982 -3.3958  0.8943  1.4740
   35MOL   H25913247   6.796   7.005   3.742  0.4470 -0.2392 -0.5000
   35MOL   H26013248   6.810   6.943   3.516 -1.5861  0.6024  0.6778
   35MOL   H26113249   6.792   6.767   3.330  0.3648 -1.1620  0.1522
   35MOL   H26213250   6.703   6.631   3.395 -3.3151 -0.4508 -1.9751
   35MOL   H26313251   6.612   6.763   3.320 -0.8756  1.2343  1.0744
   35MOL   H26413252   6.575   6.588   3.589  0.4316  1.2798 -3.7198
   35MOL   H26513253   6.556   6.632   3.805  0.3226  0.4770  0.8900
   35MOL   H26613254   6.852   6.733   3.969 -0.8953  0.3242 -0.8317
   35MOL   H26713255   6.727   6.661   4.064 -0.4025  0.5813  0.5070
   35MOL   C26813256   6.835   6.802   4.169 -0.2534 -0.1197 -0.1230
   35MOL   C26913257   6.929   6.922   4.153  0.5381  0.1607 -0.2306
   35MOL   C27013258   6.879   7.053   4.168  0.1641  0.2440  0.0027
   35MOL   C27113259   6.961   7.165   4.146 -0.3853  0.0962 -0.1857
   35MOL   C27213260   7.095   7.157   4.104 -0.0562  0.4804  0.1831
   35MOL   C27313261   7.169   7.279   4.047 -0.4138 -0.3717 -0.8100
   35MOL   C27413262   7.144   7.023   4.086 -0.4269  0.1672 -0.1766
   35MOL   C27513263   7.060   6.912   4.108 -0.0134  0.2720 -0.1433
   35MOL   C27613264   6.902   6.681   4.242  0.2130  0.4499  0.2443
   35MOL   H27713265   6.761   6.833   4.243  0.1310  2.9569 -0.9868
   35MOL   H27813266   6.776   7.073   4.192  0.1203  0.0868 -0.0534
   35MOL   H27913267   6.926   7.267   4.152  0.9131  0.5732 -0.4998
   35MOL   H28013268   7.129   7.310   3.951 -1.2461  0.6657 -0.1500
   35MOL   H28113269   7.144   7.370   4.103  1.8350 -2.0168  3.1121
   35MOL   H28213270   7.275   7.258   4.032 -0.8375 -1.6318 -2.1452
   35MOL   H28313271   7.240   7.008   4.038 -0.4089 -1.5289  0.3703
   35MOL   H28413272   7.111   6.824   4.070  1.6581  1.4801 -0.7206
   35MOL   H28513273   6.948   6.718   4.333 -0.6673 -1.5167  1.5297
   35MOL   H28613274   6.974   6.630   4.178 -1.4748 -0.7370 -0.7603
   35MOL   C28713275   6.807   6.572   4.305  0.6794  0.0328 -0.6464
   35MOL   C28813276   6.696   6.627   4.398 -0.2812  0.0952 -0.2472
   35MOL   C28913277   6.726   6.701   4.515  0.3213  0.3792 -0.1219
   35MOL   C29013278   6.629   6.757   4.601  0.5441  0.1219 -0.2524
   35MOL   C29113279   6.501   6.714   4.576  0.7983  0.5502  0.6236
   35MOL   C29213280   6.396   6.749   4.679  0.4449 -0.3106 -0.1861
   35MOL   C29313281   6.467   6.622   4.473  0.2144 -0.1559 -0.1305
   35MOL   C29413282   6.563   6.584   4.377  0.1131  0.5841 -0.1685
   35MOL   C29513283   6.896   6.461   4.372  0.0209 -0.4624  0.0872
   35MOL   H29613284   6.763   6.530   4.214 -2.6070  2.9761 -0.5277
   35MOL   H29713285   6.829   6.725   4.539 -0.1012 -0.1571  2.3487
   35MOL   H29813286   6.644   6.833   4.676  2.5614  0.7689 -1.2681
   35MOL   H29913287   6.311   6.789   4.625 -0.3642 -1.4305  0.2440
   35MOL   H30013288   6.369   6.664   4.741 -1.0507  0.0969 -0.2727
   35MOL   H30113289   6.436   6.823   4.747 -1.1358  0.1894  0.1907
   35MOL   H30213290   6.365   6.586   4.469  0.1450 -0.1818  1.3763
   35MOL   H30313291   6.537   6.516   4.297  1.8184 -0.7145  0.3536
   35MOL   H30413292   6.827   6.401   4.431 -1.5616 -0.3774 -1.6280
   35MOL   H30513293   6.955   6.501   4.454 -0.1278 -0.2481  0.0870
   35MOL   C30613294   6.987   6.370   4.278  0.0614  0.6329  0.8761
   35MOL   C30713295   6.918   6.337   4.146  0.4959  0.6801  0.7584
   35MOL   C30813296   6.794   6.264   4.137 -0.0305 -0.5536 -0.2256
   35MOL   C30913297   6.721   6.266   4.018  0.4372 -0.3278 -0.7019
   35MOL   C31013298   6.764   6.329   3.905  0.1340  0.1976  1.5805
   35MOL   C31113299   6.674   6.318   3.782 -0.1590 -0.1829  0.2395
   35MOL   C31213300   6.890   6.394   3.905  0.3867  0.3066  0.1395
   35MOL   C31313301   6.963   6.401   4.024  0.5466  0.6758  1.3979
   35MOL   C31413302   7.038   6.238   4.351 -0.4283 -0.0872 -0.3064
   35MOL   H31513303   7.076   6.425   4.248 -0.1535  0.5620  0.0771
   35MOL   H31613304   6.759   6.229   4.233  0.2898  3.2309  1.3504
   35MOL   H31713305   6.620   6.228   4.012  0.9862 -1.6083 -1.9714
   35MOL   H31813306   6.568   6.343   3.792 -0.6155 -1.1982 -1.8938
   35MOL   H31913307   6.713   6.389   3.709 -0.5522  0.7031  0.8757
   35MOL   H32013308   6.680   6.219   3.736  3.4467  0.3937 -0.6586
   35MOL   H32113309   6.923   6.450   3.819 -0.4486  1.2944  0.4466
   35MOL   H32213310   7.044   6.472   4.035  0.4961  1.1051 -0.7726
   35MOL   H32313311   6.944   6.187   4.371 -0.4150 -0.0750 -0.2127
   35MOL   H32413312   7.077   6.247   4.452 -1.6295  0.4330  0.1300
   35MOL   C32513313   7.125   6.139   4.275  0.3120  0.0945 -0.4776
   35MOL   C32613314   7.106   5.990   4.317 -0.3341 -0.2436 -0.4017
   35MOL   C32713315   7.043   5.902   4.231 -0.3943 -0.8857 -0.5357
   35MOL   C32813316   7.018   5.771   4.273  0.2142 -0.1482 -0.2252
   35MOL   C32913317   7.049   5.729   4.403 -0.1983 -0.4500 -0.0795
   35MOL   C33013318   7.031   5.592   4.453 -0.3816 -0.0167  0.5904
   35MOL   C33113319   7.119   5.819   4.483  0.1197 -0.3027 -0.6496
   35MOL   C33213320   7.140   5.954   4.445 -0.2309 -0.9097  0.2068
   35MOL   C33313321   7.277   6.179   4.277  0.3650 -0.7791 -0.8899
   35MOL   H33413322   7.086   6.144   4.174 -2.0213 -2.2202  0.2284
   35MOL   H33513323   7.019   5.926   4.129  2.1376 -1.1241 -1.2223
   35MOL   H33613324   6.982   5.699   4.201  2.2229  1.2234 -2.7013
   35MOL   H33713325   6.931   5.548   4.460 -0.8187  0.8199 -0.2722
   35MOL   H33813326   7.081   5.524   4.383  2.4863  2.3640  0.2820
   35MOL   H33913327   7.094   5.590   4.541  1.7084 -2.3328 -0.8843
   35MOL   H34013328   7.148   5.789   4.583 -0.3324  1.2453 -0.0417
   35MOL   H34113329   7.184   6.018   4.520  0.5627  0.0784 -1.0789
   35MOL   H34213330   7.308   6.174   4.381 -0.9731 -0.1387 -0.4525
   35MOL   H34313331   7.285   6.285   4.256 -1.0336  0.0788  2.5902
   35MOL   C34413332   7.374   6.118   4.172 -0.0924 -0.2448 -0.1745
   35MOL   C34513333   7.301   6.104   4.038 -0.3338  0.3637  0.1440
   35MOL   C34613334   7.261   5.980   3.991 -0.1594 -0.3236  0.2959
   35MOL   C34713335   7.200   5.970   3.865 -0.1893 -0.2405  0.3580
   35MOL   C34813336   7.176   6.087   3.795  0.2558 -1.0242 -0.2674
   35MOL   C34913337   7.107   6.089   3.660 -0.0200  0.0349  0.1277
   35MOL   C35013338   7.223   6.215   3.839  0.0298  0.7828 -0.5978
   35MOL   C35113339   7.276   6.223   3.967 -0.1154  0.2618 -0.2083
   35MOL   C35213340   7.451   5.998   4.226 -0.2477  0.6795  0.7898
   35MOL   H35313341   7.443   6.202   4.167 -0.8954  0.5207  0.9645
   35MOL   H35413342   7.270   5.885   4.042 -0.7807 -1.8077 -2.2540
   35MOL   H35513343   7.159   5.877   3.827 -2.2419 -0.4609  2.9471
   35MOL   H35613344   7.052   6.179   3.632  0.8293 -0.1515 -2.3012
   35MOL   H35713345   7.180   6.058   3.584  0.0418 -2.3992  1.1523
   35MOL   H35813346   7.034   6.012   3.683  0.2937 -0.6929 -1.2214
   35MOL   H35913347   7.199   6.305   3.786 -0.3363  2.6089  2.5069
   35MOL   H36013348   7.312   6.321   3.995 -0.7827  0.4978 -0.1538
   35MOL   H36113349   7.491   5.946   4.139  0.6303 -0.4577  1.8623
   35MOL   H36213350   7.385   5.922   4.268  2.3244 -2.6315 -0.9318
   35MOL   C36313351   7.579   6.036   4.300 -0.0161  0.4423 -0.2407
   35MOL   C36413352   7.675   6.115   4.210  0.4306  0.5289  0.2038
   35MOL   C36513353   7.703   6.250   4.246  0.0469  0.2882 -0.7348
   35MOL   C36613354   7.771   6.331   4.154  0.0828  0.6784 -0.2057
   35MOL   C36713355   7.815   6.284   4.035 -0.2459 -0.3027  0.4607
   35MOL   C36813356   7.894   6.369   3.937  0.6596 -0.2960 -0.3607
   35MOL   C36913357   7.799   6.148   3.998  0.2638  0.3325 -0.0598
   35MOL   C37013358   7.731   6.058   4.088 -0.2973 -0.3015 -0.1776
   35MOL   C37113359   7.650   5.913   4.360 -0.3760  0.1645  0.9577
   35MOL   H37213360   7.557   6.098   4.388  0.9615 -0.0237  0.3479
   35MOL   H37313361   7.680   6.298   4.340  1.0982  0.6773 -0.6648
   35MOL   H37413362   7.788   6.435   4.177 -0.6560  0.0020  3.8027
   35MOL   H37513363   7.902   6.471   3.975 -0.3750 -0.3365 -0.0244
   35MOL   H37613364   7.996   6.332   3.940  0.3363 -1.1117  1.2269
   35MOL   H37713365   7.842   6.366   3.841  1.8053  0.5085 -1.0185
   35MOL   H37813366   7.837   6.104   3.907 -1.9603 -1.8254 -0.0048
   35MOL   H37913367   7.723   5.952   4.067  1.3672 -0.5270  0.3186
   35MOL   H38013368   7.587   5.839   4.409 -2.1557  0.8117 -0.2733
   35MOL   H38113369   7.722   5.957   4.428 -0.6102  1.4615  0.3864
   35MOL   H38213370   7.701   5.861   4.278  1.2532  1.2028  1.2982
   36MOL     C113371   4.745   0.652   7.491 -0.3541  0.0166  0.5848
   36MOL     C213372   4.687   0.528   7.544  0.2089 -0.2328 -0.4153
   36MOL     C313373   4.605   0.439   7.467  0.1121  0.7272  0.0304
   36MOL     C413374   4.549   0.328   7.529 -0.1229  1.2131  0.1530
   36MOL     C513375   4.571   0.305   7.672  0.1556 -0.1224  0.2041
   36MOL     C613376   4.484   0.193   7.733 -0.1927 -0.3527 -0.5144
   36MOL     C713377   4.659   0.386   7.745  0.2208 -0.3575 -0.1417
   36MOL     C813378   4.708   0.500   7.680  0.1918  0.5880 -1.2254
   36MOL     C913379   4.889   0.627   7.439 -0.9942 -0.6336 -0.5990
   36MOL    H1013380   4.686   0.690   7.408 -1.4019  1.4418  1.9427
   36MOL    H1113381   4.587   0.457   7.362  0.1936  0.2235 -0.0705
   36MOL    H1213382   4.486   0.263   7.470  1.6217  0.3754 -0.8305
   36MOL    H1313383   4.411   0.219   7.809 -2.2763 -2.9189 -1.5752
   36MOL    H1413384   4.440   0.129   7.657 -2.0330 -0.8462  0.9148
   36MOL    H1513385   4.550   0.134   7.797  1.0391 -0.5884 -1.9823
   36MOL    H1613386   4.674   0.374   7.851  2.4272  0.3477 -0.3496
   36MOL    H1713387   4.768   0.573   7.732  1.5944 -0.9621 -0.6431
   36MOL    H1813388   4.880   0.556   7.356  0.4204  0.5856 -1.8446
   36MOL    H1913389   4.952   0.578   7.513  0.2657 -0.1190 -1.2986
   36MOL    H2013390   4.739   0.737   7.560  0.3225  0.4901  0.0790
   36MOL    C2113391   4.949   0.760   7.401  1.1934 -0.2753 -0.3055
   36MOL    C2213392   4.919   0.784   7.248 -0.2392 -0.0284 -0.3015
   36MOL    C2313393   4.812   0.865   7.206  0.7698 -0.6438  0.4958
   36MOL    C2413394   4.796   0.897   7.071 -0.4625 -0.0205 -0.2063
   36MOL    C2513395   4.876   0.841   6.972 -0.1819 -0.1955  0.3389
   36MOL    C2613396   4.850   0.871   6.824  0.3650  0.6219  0.0927
   36MOL    C2713397   4.980   0.754   7.009 -0.2693 -0.4616  0.4698
   36MOL    C2813398   5.003   0.733   7.148  0.3516  0.0719  0.4062
   36MOL    C2913399   5.096   0.770   7.445  0.1408  0.0429  0.2288
   36MOL    H3013400   4.905   0.839   7.461  2.7749  0.5359 -0.1817
   36MOL    H3113401   4.749   0.913   7.279 -1.1937 -0.3903 -1.3212
   36MOL    H3213402   4.721   0.972   7.047 -0.4068  0.2944  0.5940
   36MOL    H3313403   4.750   0.837   6.798  1.3881 -2.9330  0.4489
   36MOL    H3413404   4.856   0.979   6.817  1.7065  0.5267 -0.5683
   36MOL    H3513405   4.920   0.822   6.755 -0.9971 -0.4016 -0.5729
   36MOL    H3613406   5.033   0.702   6.932 -1.5470 -0.2830 -0.5486
   36MOL    H3713407   5.092   0.682   7.180  0.4392  0.2688  0.4740
   36MOL    H3813408   5.143   0.850   7.388 -1.1754  0.2905 -0.5180
   36MOL    H3913409   5.143   0.680   7.406 -0.9720 -0.5100  0.1672
   36MOL    C4013410   5.126   0.786   7.596  0.3654  0.1118 -0.2289
   36MOL    C4113411   5.055   0.900   7.667  0.6444  0.6147  0.3983
   36MOL    C4213412   4.978   0.879   7.790 -0.3998 -0.1112  0.5641
   36MOL    C4313413   4.917   0.993   7.847 -0.6940 -0.0118  0.2578
   36MOL    C4413414   4.934   1.122   7.792  0.4252  0.9313  0.1518
   36MOL    C4513415   4.869   1.236   7.859 -0.1071 -0.5561  0.0354
   36MOL    C4613416   5.009   1.143   7.676  0.5538 -0.6132  0.2408
   36MOL    C4713417   5.064   1.029   7.614 -0.4289  0.2237 -0.2568
   36MOL    C4813418   5.281   0.799   7.619  0.5834  0.4056  0.1142
   36MOL    H4913419   5.080   0.698   7.641 -0.5905  0.8101  0.1893
   36MOL    H5013420   4.968   0.780   7.832 -3.6449  0.2930  0.8482
   36MOL    H5113421   4.864   0.979   7.940  1.1143 -0.1507  1.2941
   36MOL    H5213422   4.854   1.319   7.791 -0.5004 -0.4503  0.2523
   36MOL    H5313423   4.779   1.207   7.912  0.7991 -0.1091  1.8555
   36MOL    H5413424   4.947   1.263   7.930 -0.4786 -2.6304  1.2889
   36MOL    H5513425   5.030   1.246   7.649  0.3511 -0.1711  1.7212
   36MOL    H5613426   5.102   1.031   7.513 -1.3778 -0.3824 -0.6443
   36MOL    H5713427   5.303   0.845   7.715 -1.0560 -1.6978  1.5238
   36MOL    H5813428   5.322   0.855   7.534 -0.0587  0.6583 -0.0270
   36MOL    C5913429   5.350   0.661   7.619 -0.3107 -0.2298 -0.3130
   36MOL    C6013430   5.322   0.592   7.755 -0.0120 -0.2291  0.4149
   36MOL    C6113431   5.395   0.631   7.867 -0.5742 -0.1508  0.0279
   36MOL    C6213432   5.382   0.573   7.991 -0.4026 -0.1392 -0.1077
   36MOL    C6313433   5.291   0.476   8.008 -0.4557  0.5663 -0.3370
   36MOL    C6413434   5.281   0.408   0.066  0.5840 -0.1242 -0.5889
   36MOL    C6513435   5.201   0.444   7.899  0.5204 -0.2562  0.0482
   36MOL    C6613436   5.213   0.500   7.774  0.0171 -0.3487  0.4419
   36MOL    C6713437   5.503   0.661   7.590 -0.5569 -0.1701  0.0113
   36MOL    H6813438   5.313   0.589   7.546  1.0393 -0.4996 -0.7632
   36MOL    H6913439   5.470   0.708   7.864  0.5640 -1.2780 -2.2334
   36MOL    H7013440   5.455   0.593   8.068 -0.4785  0.5659 -0.2124
   36MOL    H7113441   5.299   0.300   0.059  0.5153 -0.1485 -0.3928
   36MOL    H7213442   5.358   0.456   0.125  1.0851  0.8610 -2.0380
   36MOL    H7313443   5.184   0.427   0.111 -1.8253 -4.8304 -3.3342
   36MOL    H7413444   5.127   0.366   7.915  0.5221 -0.3902 -0.5854
   36MOL    H7513445   5.148   0.467   7.695  0.9520  1.6729 -1.2185
   36MOL    H7613446   5.531   0.559   7.619 -2.4413 -0.4167  1.0408
   36MOL    H7713447   5.567   0.728   7.648 -0.8464  0.1757 -0.0738
   36MOL    C7813448   5.540   0.685   7.441 -0.7151  0.8785  0.3625
   36MOL    C7913449   5.508   0.560   7.357  0.4717 -0.6205  0.6159
   36MOL    C8013450   5.404   0.558   7.263 -0.8623  0.4567  0.4294
   36MOL    C8113451   5.385   0.451   7.181 -0.5493  0.6609 -0.4020
   36MOL    C8213452   5.464   0.339   7.197 -0.2339 -0.6159 -0.0186
   36MOL    C8313453   5.437   0.219   7.112 -0.0370 -0.2654 -0.1124
   36MOL    C8413454   5.571   0.335   7.289 -0.1869  0.0877  1.0353
   36MOL    C8513455   5.594   0.451   7.371 -0.1919  0.0074  0.2790
   36MOL    C8613456   5.686   0.737   7.427 -0.4755  0.6481 -0.1322
   36MOL    H8713457   5.479   0.767   7.403 -0.0688  0.9025 -0.6385
   36MOL    H8813458   5.339   0.643   7.252  1.1977  2.0246  0.0914
   36MOL    H8913459   5.308   0.456   7.105 -1.5282 -1.5406  0.4138
   36MOL    H9013460   5.332   0.221   7.083  0.0395 -0.5734 -0.4164
   36MOL    H9113461   5.493   0.224   7.019  1.4073  0.1363  0.7621
   36MOL    H9213462   5.461   0.121   7.154 -0.2745  0.2949  1.3689
   36MOL    H9313463   5.642   0.255   7.299  0.8173  1.1862  3.0634
   36MOL    H9413464   5.684   0.445   7.431  0.1582 -1.3784 -0.3705
   36MOL    H9513465   5.748   0.655   7.466 -1.4738  0.5519  1.2968
   36MOL    H9613466   5.696   0.819   7.498  2.2319  3.0050 -3.0800
   36MOL    C9713467   5.730   0.787   7.286 -0.3786 -0.0861 -0.2856
   36MOL    C9813468   5.811   0.680   7.212 -0.1225 -0.0747 -0.6809
   36MOL    C9913469   5.940   0.644   7.261 -0.4593  0.5236 -0.1750
   36MOL   C10013470   6.009   0.533   7.217 -0.1753  0.1623 -0.0396
   36MOL   C10113471   5.957   0.460   7.109 -0.5850 -0.6801  0.2446
   36MOL   C10213472   6.041   0.349   7.052  0.2557 -0.9248 -0.3226
   36MOL   C10313473   5.832   0.497   7.051  0.6016  0.5033  0.0698
   36MOL   C10413474   5.759   0.603   7.106  0.2164  0.0581  0.5672
   36MOL   C10513475   5.805   0.916   7.300 -0.4542 -0.1879 -0.1252
   36MOL   H10613476   5.636   0.808   7.235 -0.7636 -0.2792  0.3372
   36MOL   H10713477   5.969   0.701   7.348  0.7199  0.8700 -0.7924
   36MOL   H10813478   6.108   0.514   7.255 -0.1130  0.2611 -0.1518
   36MOL   H10913479   6.066   0.384   6.952  2.4158  0.0351  0.5047
   36MOL   H11013480   6.137   0.325   7.099 -0.1864 -0.3911  0.8670
   36MOL   H11113481   5.982   0.258   7.037  2.2618 -1.9577 -2.3613
   36MOL   H11213482   5.780   0.439   6.976 -1.0582 -0.2815  1.7834
   36MOL   H11313483   5.666   0.635   7.062  0.2407 -2.2752 -1.2564
   36MOL   H11413484   5.903   0.906   7.346 -0.1031 -0.5150 -0.9465
   36MOL   H11513485   5.751   0.984   7.366  1.2810  1.6625 -0.5525
   36MOL   C11613486   5.824   0.994   7.166  0.7025 -0.3568  0.9018
   36MOL   C11713487   5.934   1.097   7.193 -0.9213  0.2404 -0.2555
   36MOL   C11813488   5.911   1.223   7.248 -0.2573 -0.1662 -0.2724
   36MOL   C11913489   6.016   1.315   7.265  0.2534 -0.2508 -0.6844
   36MOL   C12013490   6.147   1.276   7.231  0.4518  0.7118 -1.0190
   36MOL   C12113491   6.268   1.363   7.254  0.8459 -0.1421 -0.6837
   36MOL   C12213492   6.168   1.150   7.168 -0.2404  0.1128 -0.2521
   36MOL   C12313493   6.064   1.063   7.149 -0.6201 -0.1552  0.8415
   36MOL   C12413494   5.689   1.049   7.108  0.7063  0.0403 -0.5076
   36MOL   H12513495   5.865   0.924   7.093  0.9370  0.0922  0.6037
   36MOL   H12613496   5.810   1.252   7.271 -0.3408  0.2183 -1.1236
   36MOL   H12713497   5.992   1.411   7.309 -0.2994  0.0960 -1.7270
   36MOL   H12813498   6.347   1.338   7.183  1.7386 -1.0227  0.6075
   36MOL   H12913499   6.244   1.469   7.240  1.6667  0.1134 -0.2096
   36MOL   H13013500   6.304   1.347   7.356  0.6847  1.6801 -0.3155
   36MOL   H13113501   6.265   1.116   7.136  0.1771  1.3711 -0.3244
   36MOL   H13213502   6.089   0.972   7.095 -1.1904 -0.1797  0.6025
   36MOL   H13313503   5.649   1.111   7.188 -1.0617 -0.8376 -0.6783
   36MOL   H13413504   5.618   0.968   7.087  1.5254 -0.3096 -1.9928
   36MOL   C13513505   5.700   1.133   6.977 -0.0895 -0.0677 -0.4852
   36MOL   C13613506   5.567   1.212   6.949  0.2640  1.1731  0.2613
   36MOL   C13713507   5.546   1.340   7.004  0.0761  0.1442 -0.1800
   36MOL   C13813508   5.436   1.417   6.962  0.2358  0.8372 -0.3429
   36MOL   C13913509   5.346   1.358   6.869  0.5788  0.2189 -0.1163
   36MOL   C14013510   5.237   1.450   6.814  0.7753  0.2548  0.2046
   36MOL   C14113511   5.361   1.227   6.820 -0.3565 -0.7086  0.2634
   36MOL   C14213512   5.465   1.150   6.865  0.3988  0.3338  0.2189
   36MOL   C14313513   5.747   1.051   6.860 -0.0135  0.2006 -0.3269
   36MOL   H14413514   5.769   1.217   6.989 -1.7725  1.3258 -0.4190
   36MOL   H14513515   5.625   1.373   7.070 -1.9448  2.5034  1.1385
   36MOL   H14613516   5.422   1.521   6.990  0.3292  0.2708  1.8519
   36MOL   H14713517   5.155   1.469   6.883  1.1803  0.7425  0.5534
   36MOL   H14813518   5.269   1.552   6.790 -0.5492  1.1526  2.1063
   36MOL   H14913519   5.197   1.394   6.729  0.8500 -0.8998  0.9279
   36MOL   H15013520   5.300   1.196   6.737  0.7257 -0.4870 -0.6202
   36MOL   H15113521   5.485   1.049   6.836  4.2146  0.8452  0.7319
   36MOL   H15213522   5.687   1.084   6.775  0.6658 -0.8023 -1.2078
   36MOL   H15313523   5.719   0.949   6.883 -0.5904  0.8354  1.8844
   36MOL   C15413524   5.895   1.071   6.811  0.3279 -0.1281 -0.7726
   36MOL   C15513525   5.925   1.219   6.780 -0.0438  0.5428  0.4680
   36MOL   C15613526   5.853   1.286   6.676 -0.5666 -0.3985 -0.0818
   36MOL   C15713527   5.888   1.418   6.647 -0.0998 -0.1260 -0.0418
   36MOL   C15813528   5.997   1.487   6.710 -0.6949  0.8571 -0.5265
   36MOL   C15913529   6.038   1.619   6.654  0.2890  0.4383 -0.0584
   36MOL   C16013530   6.069   1.419   6.813  0.4592 -0.4813  0.2867
   36MOL   C16113531   6.033   1.285   6.842  0.3398  0.2381 -0.1351
   36MOL   C16213532   5.908   0.994   6.679  0.1764  0.7059  0.2225
   36MOL   H16313533   5.962   1.023   6.883  0.5848  1.1024 -0.1877
   36MOL   H16413534   5.777   1.236   6.617 -0.6851  1.7038 -1.7521
   36MOL   H16513535   5.831   1.456   6.564  0.8124 -0.8424 -1.0254
   36MOL   H16613536   6.079   1.689   6.726  1.8690 -0.7664  0.2382
   36MOL   H16713537   6.117   1.610   6.579  2.8152  1.4004  2.4098
   36MOL   H16813538   5.945   1.654   6.610  0.3282  2.1864  1.2123
   36MOL   H16913539   6.152   1.469   6.861  0.3446  0.2311 -0.2533
   36MOL   H17013540   6.082   1.227   6.919  0.0522 -1.1397 -0.9705
   36MOL   H17113541   5.995   1.023   6.620 -1.0948 -1.2563 -2.7231
   36MOL   H17213542   5.828   1.020   6.609 -0.4019 -1.1785  0.1665
   36MOL   C17313543   5.924   0.842   6.697  0.3448  0.1679 -0.4658
   36MOL   C17413544   6.055   0.808   6.770 -0.1307  0.7284 -0.4944
   36MOL   C17513545   6.065   0.690   6.850  0.0062  0.6242  0.1151
   36MOL   C17613546   6.180   0.650   6.919  0.0711 -0.1409  0.2419
   36MOL   C17713547   6.296   0.729   6.915  0.0522 -0.5125 -0.0139
   36MOL   C17813548   6.421   0.698   6.994 -0.5581 -0.1958 -0.4301
   36MOL   C17913549   6.288   0.852   6.843  0.4419 -0.2036  0.3938
   36MOL   C18013550   6.169   0.888   6.773 -0.0369 -0.5053  0.8118
   36MOL   C18113551   5.930   0.766   6.564 -0.7802  0.1585  0.0286
   36MOL   H18213552   5.842   0.807   6.760 -1.2849  2.4821 -1.2334
   36MOL   H18313553   5.985   0.618   6.838  1.2389 -0.9744  1.3054
   36MOL   H18413554   6.180   0.560   6.979  0.1892  0.9943  1.9644
   36MOL   H18513555   6.474   0.614   6.948  0.5736  0.0678  0.3739
   36MOL   H18613556   6.487   0.784   6.998  1.1346 -1.5455  2.4804
   36MOL   H18713557   6.394   0.666   7.094 -1.7134  0.0996 -0.6440
   36MOL   H18813558   6.368   0.925   6.845 -0.7612  1.1261  1.6863
   36MOL   H18913559   6.176   0.981   6.718 -0.2034 -0.7525  0.3629
   36MOL   H19013560   5.952   0.661   6.580 -0.1163  0.4082  0.8018
   36MOL   H19113561   6.008   0.818   6.508 -1.0500  0.3290 -0.1884
   36MOL   C19213562   5.789   0.774   6.502 -0.3334  0.1161 -0.4520
   36MOL   C19313563   5.685   0.693   6.585  0.0745  0.5559  0.1875
   36MOL   C19413564   5.569   0.755   6.646  0.4551  0.0851 -0.7064
   36MOL   C19513565   5.476   0.677   6.714  0.0382  0.2173 -0.7017
   36MOL   C19613566   5.481   0.539   6.718 -0.4591  0.4012  0.0546
   36MOL   C19713567   5.366   0.454   6.764 -0.2751 -0.4009  0.0881
   36MOL   C19813568   5.596   0.480   6.663 -0.3561  0.7922  0.3532
   36MOL   C19913569   5.695   0.551   6.598 -0.0949  0.0454  0.1975
   36MOL   C20013570   5.787   0.723   6.361 -0.0735  0.0068  0.1582
   36MOL   H20113571   5.753   0.877   6.499  0.6478  0.4745 -0.1799
   36MOL   H20213572   5.558   0.863   6.642 -0.6916 -0.0837 -2.6694
   36MOL   H20313573   5.393   0.732   6.757 -0.6193  0.0686 -1.7656
   36MOL   H20413574   5.276   0.510   6.737  1.4774  1.9822 -0.9444
   36MOL   H20513575   5.358   0.363   6.704  2.0741 -0.3304 -0.3655
   36MOL   H20613576   5.370   0.424   6.869 -1.7744  0.5242  0.4277
   36MOL   H20713577   5.610   0.374   6.679 -0.7373  0.7250  0.2633
   36MOL   H20813578   5.774   0.499   6.547  0.3736  0.1523  0.8178
   36MOL   H20913579   5.687   0.694   6.328  1.1115 -3.6910 -0.4369
   36MOL   H21013580   5.841   0.628   6.354  1.1583  0.7503 -0.5900
   36MOL   C21113581   5.835   0.830   6.259  0.1020  0.3805  0.5461
   36MOL   C21213582   5.756   0.960   6.276  0.2017  0.2182  0.5883
   36MOL   C21313583   5.822   1.074   6.323 -0.4545 -0.0239 -0.2125
   36MOL   C21413584   5.747   1.195   6.346  0.4259  0.2729 -0.5305
   36MOL   C21513585   5.612   1.198   6.306  0.7009  0.0917 -0.2889
   36MOL   C21613586   5.531   1.328   6.330  0.3332  0.8096  0.4183
   36MOL   C21713587   5.548   1.081   6.261  0.0809  0.5747 -0.7880
   36MOL   C21813588   5.620   0.964   6.231  0.2620  0.1504  0.2109
   36MOL   C21913589   5.834   0.777   6.109  0.4770  0.1421  0.1971
   36MOL   H22013590   5.939   0.847   6.287 -0.3852 -0.3486  2.9083
   36MOL   H22113591   5.927   1.075   6.346 -0.2536 -0.9895 -1.0454
   36MOL   H22213592   5.810   1.272   6.388  3.1874 -2.3100  0.2807
   36MOL   H22313593   5.554   1.409   6.262  0.0501  1.5860  1.2316
   36MOL   H22413594   5.423   1.315   6.323  0.5294 -0.5585 -0.4148
   36MOL   H22513595   5.539   1.365   6.432 -1.5080 -1.7720  1.5595
   36MOL   H22613596   5.443   1.081   6.238  0.0766 -0.3191 -0.7818
   36MOL   H22713597   5.570   0.875   6.196 -1.1622  0.3527  1.6477
   36MOL   H22813598   5.731   0.793   6.079  0.4166 -0.0327  0.3131
   36MOL   H22913599   5.848   0.669   6.101  1.7341  0.5088 -2.9706
   36MOL   C23013600   5.933   0.847   6.015  0.2901 -0.6248 -0.4535
   36MOL   C23113601   5.880   0.849   5.874  0.5241  0.7354 -0.2840
   36MOL   C23213602   5.896   0.969   5.792  0.5080  0.1549  0.1558
   36MOL   C23313603   5.847   0.962   5.658 -0.2621 -0.4016 -0.4452
   36MOL   C23413604   5.794   0.846   5.601 -0.4924 -0.0523 -0.5058
   36MOL   C23513605   5.741   0.854   5.463  0.4280 -0.3115  0.1956
   36MOL   C23613606   5.791   0.725   5.677 -0.3817 -0.4169  0.0532
   36MOL   C23713607   5.837   0.729   5.808 -0.4499 -0.9013  0.1278
   36MOL   C23813608   6.078   0.784   6.011 -1.0719 -0.4636 -0.5043
   36MOL   H23913609   5.940   0.949   6.053  0.2996 -1.7677  2.7794
   36MOL   H24013610   5.942   1.058   5.833  1.6848  0.5058 -1.8693
   36MOL   H24113611   5.856   1.049   5.595  1.2682 -0.3810 -0.2079
   36MOL   H24213612   5.818   0.890   5.395  1.8282 -0.3307  1.7548
   36MOL   H24313613   5.709   0.754   5.432 -3.5393  0.7474  0.5731
   36MOL   H24413614   5.647   0.908   5.457  0.3738 -0.4432 -0.2105
   36MOL   H24513615   5.754   0.637   5.626  2.5125 -0.4944 -2.0042
   36MOL   H24613616   5.839   0.644   5.874  1.3170 -0.3323  0.8276
   36MOL   H24713617   6.131   0.831   5.928 -0.0222  0.3007  0.5661
   36MOL   H24813618   6.065   0.680   5.983  1.5122 -0.9147 -0.1386
   36MOL   C24913619   6.165   0.777   6.146  0.4382 -0.4766  0.2112
   36MOL   C25013620   6.196   0.913   6.207  0.8288 -0.0041 -0.8227
   36MOL   C25113621   6.215   0.910   6.349  0.9672 -0.2168  0.3919
   36MOL   C25213622   6.240   1.033   6.416  0.4330  0.0623  0.1257
   36MOL   C25313623   6.244   1.156   6.342  0.2203  0.5584 -0.6494
   36MOL   C25413624   6.273   1.287   6.403 -0.6605  0.1947 -0.1664
   36MOL   C25513625   6.227   1.158   6.201 -0.6486  0.0733  0.4714
   36MOL   C25613626   6.200   1.032   6.135  0.5675  0.1418 -0.3710
   36MOL   C25713627   6.298   0.702   6.119  0.0151 -0.2847  0.6815
   36MOL   H25813628   6.118   0.724   6.229 -0.3197  1.2845  0.9335
   36MOL   H25913629   6.209   0.817   6.404  0.8832  0.2969  1.2703
   36MOL   H26013630   6.237   1.027   6.524 -0.4621 -0.4444  0.0732
   36MOL   H26113631   6.250   1.382   6.355 -1.7548 -0.4670 -0.9653
   36MOL   H26213632   6.241   1.290   6.507  0.9467  0.3367  0.3418
   36MOL   H26313633   6.382   1.284   6.410 -0.7719 -3.7361  1.4230
   36MOL   H26413634   6.227   1.250   6.145  0.5098 -0.3914 -0.3062
   36MOL   H26513635   6.181   1.020   6.029 -2.5758  1.9022 -0.0684
   36MOL   H26613636   6.368   0.720   6.200  0.1330  0.5761  0.3994
   36MOL   H26713637   6.342   0.744   6.029  2.3842 -0.5432  1.7014
   36MOL   C26813638   6.281   0.548   6.112 -0.2330  0.0454  1.1939
   36MOL   C26913639   6.225   0.496   6.246  0.0018  0.1852  0.3516
   36MOL   C27013640   6.306   0.512   6.361 -0.2430 -0.3276  0.0034
   36MOL   C27113641   6.257   0.482   6.491 -0.4909 -0.2352  0.5077
   36MOL   C27213642   6.135   0.418   6.502 -0.2204  0.0229  0.1880
   36MOL   C27313643   6.079   0.374   6.631  0.1049  0.0324 -0.4838
   36MOL   C27413644   6.063   0.384   6.382 -0.0678  0.7509  0.0168
   36MOL   C27513645   6.105   0.426   6.251 -0.2556 -0.2562  0.3383
   36MOL   C27613646   6.409   0.476   6.069  0.1564 -0.1529  0.6044
   36MOL   H27713647   6.214   0.515   6.033  2.0192  0.2132 -0.8385
   36MOL   H27813648   6.403   0.557   6.352  0.0020 -1.1616 -1.8970
   36MOL   H27913649   6.315   0.512   6.578 -1.7429  1.5471  0.7408
   36MOL   H28013650   6.060   0.267   6.626  0.4604 -0.1428  1.2497
   36MOL   H28113651   6.149   0.389   6.714 -0.8880  0.6367  0.2566
   36MOL   H28213652   5.987   0.416   6.671  1.5046  0.3827  2.5802
   36MOL   H28313653   5.968   0.334   6.388  0.4265 -0.0958  0.9465
   36MOL   H28413654   6.052   0.412   6.158  2.9818 -2.0208 -1.2821
   36MOL   H28513655   6.386   0.370   6.065  0.9665 -0.3459  0.8107
   36MOL   H28613656   6.483   0.471   6.149  2.8482 -1.7377 -1.8898
   36MOL   C28713657   6.485   0.530   5.945 -0.6301  0.0923 -0.2809
   36MOL   C28813658   6.385   0.557   5.830 -0.6677  0.3615 -0.7594
   36MOL   C28913659   6.382   0.684   5.773  0.2044 -0.0964 -0.1695
   36MOL   C29013660   6.294   0.713   5.667  0.8868 -0.0568 -0.8204
   36MOL   C29113661   6.202   0.620   5.623  0.3086  0.1903  0.2832
   36MOL   C29213662   6.115   0.647   5.499  0.2359 -0.3784  0.3542
   36MOL   C29313663   6.207   0.489   5.678  0.0427 -0.9809 -0.9456
   36MOL   C29413664   6.295   0.457   5.782 -0.1334 -0.8035 -0.0710
   36MOL   C29513665   6.596   0.423   5.897 -0.2327  0.3223  0.0604
   36MOL   H29613666   6.535   0.622   5.976  1.1639 -1.4321  1.4397
   36MOL   H29713667   6.455   0.755   5.807  1.0610 -1.4282  0.8219
   36MOL   H29813668   6.285   0.809   5.618  2.3422 -0.1394 -1.2752
   36MOL   H29913669   6.077   0.749   5.492 -1.4780 -1.0704 -0.8371
   36MOL   H30013670   6.160   0.637   5.400 -2.0710  1.9515 -1.0010
   36MOL   H30113671   6.028   0.581   5.500 -1.1221  1.2023 -3.4477
   36MOL   H30213672   6.132   0.415   5.655  0.8546 -2.2434  0.3659
   36MOL   H30313673   6.290   0.364   5.837  0.4986 -1.3403 -0.9097
   36MOL   H30413674   6.556   0.321   5.897  0.7562 -0.0676  0.1897
   36MOL   H30513675   6.671   0.413   5.974  1.0885  0.5924 -1.1717
   36MOL   C30613676   6.662   0.446   5.759 -0.1920 -0.4117  0.8955
   36MOL   C30713677   6.730   0.313   5.707  0.1526  0.2621  0.7233
   36MOL   C30813678   6.707   0.263   5.581 -0.6937 -0.2024 -0.1662
   36MOL   C30913679   6.770   0.147   5.540 -0.5510 -1.0900  0.4240
   36MOL   C31013680   6.858   0.077   5.626  0.1749 -0.4137 -0.5766
   36MOL   C31113681   6.925   8.023   5.585  0.5847 -0.2056  0.3122
   36MOL   C31213682   6.900   0.140   5.752 -1.1732 -0.3495 -0.2625
   36MOL   C31313683   6.835   0.259   5.784  0.2974 -0.7218 -0.1254
   36MOL   C31413684   6.762   0.565   5.763 -0.2776 -0.3071 -0.4094
   36MOL   H31513685   6.590   0.486   5.688 -0.6794 -0.7619  1.1913
   36MOL   H31613686   6.630   0.305   5.517 -0.8080 -0.9220 -0.5062
   36MOL   H31713687   6.746   0.095   5.448 -0.5355 -1.0583  0.4030
   36MOL   H31813688   6.845   7.967   5.534 -1.0323 -1.5467  4.1443
   36MOL   H31913689   7.004   8.025   5.510 -0.5385 -1.4946 -0.9533
   36MOL   H32013690   6.959   7.974   5.676 -1.8277 -0.0792  1.3257
   36MOL   H32113691   6.979   0.091   5.807 -0.2694 -1.0312 -2.1178
   36MOL   H32213692   6.861   0.317   5.872  1.1262 -2.0413  0.5267
   36MOL   H32313693   6.799   0.568   5.865  0.5100  0.3300 -0.7013
   36MOL   H32413694   6.705   0.658   5.766  0.5668  0.2002  0.2641
   36MOL   C32513695   6.887   0.574   5.671  0.3886 -0.6191  0.2337
   36MOL   C32613696   6.999   0.654   5.736 -0.0675  0.4210  0.5733
   36MOL   C32713697   7.130   0.601   5.732  0.1623 -0.2084 -0.3669
   36MOL   C32813698   7.237   0.678   5.776  0.2330  0.6514  0.3000
   36MOL   C32913699   7.221   0.808   5.825 -0.1309 -0.7958 -0.1504
   36MOL   C33013700   7.331   0.896   5.866  0.2715  0.4039  0.0896
   36MOL   C33113701   7.084   0.858   5.831 -0.4722  0.1761  0.6039
   36MOL   C33213702   6.981   0.788   5.770 -0.0248  0.6074 -0.0860
   36MOL   C33313703   6.848   0.633   5.526  0.5072  0.2981 -0.2172
   36MOL   H33413704   6.936   0.477   5.667 -0.4253 -1.0630  0.7812
   36MOL   H33513705   7.151   0.502   5.695  0.2058 -0.7545  1.1068
   36MOL   H33613706   7.338   0.639   5.774  0.7979  1.9787  1.7195
   36MOL   H33713707   7.326   0.980   5.797 -0.2370 -0.9895 -1.5990
   36MOL   H33813708   7.317   0.923   5.971 -0.4900  2.1097 -0.4371
   36MOL   H33913709   7.431   0.853   5.861 -0.1320 -0.5153 -0.1024
   36MOL   H34013710   7.065   0.950   5.885 -0.7071  0.3760  0.1752
   36MOL   H34113711   6.883   0.834   5.773 -0.5897 -0.6270  1.8885
   36MOL   H34213712   6.887   0.734   5.510  0.4441  0.2830 -0.4699
   36MOL   H34313713   6.741   0.651   5.514  0.7356  0.3907 -2.2234
   36MOL   C34413714   6.895   0.547   5.402 -0.5753 -0.1637 -0.5500
   36MOL   C34513715   7.035   0.511   5.403 -0.2924 -0.6611 -0.1029
   36MOL   C34613716   7.130   0.602   5.355  0.0612 -0.3156  0.2621
   36MOL   C34713717   7.265   0.567   5.353 -0.0950 -1.1171  1.1241
   36MOL   C34813718   7.309   0.434   5.400 -0.4635 -0.0192 -0.1133
   36MOL   C34913719   7.453   0.402   5.419 -0.0461  0.2390  0.0440
   36MOL   C35013720   7.212   0.340   5.442  0.1420  0.2408  0.0603
   36MOL   C35113721   7.076   0.382   5.443  0.0890  1.1970  0.6749
   36MOL   C35213722   6.849   0.592   5.264 -0.2457 -0.1505 -0.3082
   36MOL   H35313723   6.840   0.453   5.415  0.2261 -0.4786  0.6735
   36MOL   H35413724   7.103   0.701   5.320  0.4153 -0.6969 -1.1303
   36MOL   H35513725   7.340   0.638   5.320 -2.1303 -0.0022 -1.2623
   36MOL   H35613726   7.488   0.410   5.522 -2.6054 -1.6415  1.1149
   36MOL   H35713727   7.475   0.298   5.395 -1.4843  0.2409 -1.3798
   36MOL   H35813728   7.514   0.459   5.349  1.7209 -2.4920 -0.7191
   36MOL   H35913729   7.261   0.249   5.471 -1.1655 -0.3265  0.5198
   36MOL   H36013730   7.013   0.304   5.484  0.4792  1.5628  1.9756
   36MOL   H36113731   6.898   0.530   5.189  2.8531  0.5708  1.0518
   36MOL   H36213732   6.892   0.692   5.253  1.8165 -0.8818  0.9132
   36MOL   C36313733   6.700   0.616   5.234 -0.0915 -0.9636  0.1134
   36MOL   C36413734   6.594   0.504   5.272 -0.5187 -0.9074  0.1884
   36MOL   C36513735   6.481   0.528   5.361 -0.2830 -0.0109  0.0399
   36MOL   C36613736   6.388   0.426   5.389 -0.1802  0.8948 -0.4024
   36MOL   C36713737   6.412   0.295   5.342 -0.3763  0.0529  0.0520
   36MOL   C36813738   6.298   0.188   5.353 -0.3527 -0.5311 -0.3171
   36MOL   C36913739   6.531   0.266   5.266  0.4807  0.2954  0.1787
   36MOL   C37013740   6.626   0.373   5.236  0.7747  0.6019  0.1611
   36MOL   C37113741   6.677   0.659   5.088 -0.0909 -0.0946  0.0442
   36MOL   H37213742   6.666   0.696   5.300 -2.7838 -1.9951  0.0038
   36MOL   H37313743   6.460   0.629   5.392  1.3386 -0.0843  1.4628
   36MOL   H37413744   6.301   0.444   5.450 -1.0789 -3.3245 -0.3064
   36MOL   H37513745   6.205   0.207   5.300  1.2852  0.3886 -2.9483
   36MOL   H37613746   6.337   0.096   5.310  0.5779 -0.5898  0.6208
   36MOL   H37713747   6.284   0.155   5.456  1.9299 -2.1021 -0.4877
   36MOL   H37813748   6.551   0.166   5.229  0.6636  0.4751 -0.2024
   36MOL   H37913749   6.716   0.349   5.181  0.1812 -0.2824 -0.4334
   36MOL   H38013750   6.575   0.697   5.080  0.1595  0.7796  0.9438
   36MOL   H38113751   6.697   0.579   5.016 -0.1909 -1.8662  1.9471
   36MOL   H38213752   6.744   0.740   5.063 -3.9225  2.8837 -1.0955
   37MOL     C113753   6.178   0.946   4.226 -0.8997 -0.2744 -0.7829
   37MOL     C213754   6.100   0.869   4.125 -0.3462 -0.3309  0.6261
   37MOL     C313755   5.976   0.912   4.080  0.2973  0.5777  0.2597
   37MOL     C413756   5.900   0.827   3.998  0.6451  0.0317 -1.1962
   37MOL     C513757   5.944   0.708   3.946 -0.5252  0.0596  0.3983
   37MOL     C613758   5.850   0.637   3.843  0.1881  0.0870 -0.1094
   37MOL     C713759   6.070   0.663   3.988  0.0414  0.6107  0.2044
   37MOL     C813760   6.153   0.745   4.078 -0.0814 -0.9788 -0.0353
   37MOL     C913761   6.162   0.878   4.367 -0.9225 -0.0404 -0.2833
   37MOL    H1013762   6.280   0.935   4.188 -0.4010 -1.4705  0.8305
   37MOL    H1113763   5.947   1.009   4.118  1.2710  0.9094  0.1618
   37MOL    H1213764   5.806   0.872   3.973  1.5765  0.9691 -3.1542
   37MOL    H1313765   5.754   0.607   3.885  0.0892  2.4666  1.4908
   37MOL    H1413766   5.816   0.697   3.758 -0.0447  0.7745  0.4599
   37MOL    H1513767   5.907   0.558   3.795  0.1588  0.4242 -0.7053
   37MOL    H1613768   6.109   0.566   3.961  0.6932  1.3698 -1.6774
   37MOL    H1713769   6.245   0.703   4.116  2.0607  1.6661 -2.0974
   37MOL    H1813770   6.127   0.774   4.367 -0.6970 -0.1421 -2.6919
   37MOL    H1913771   6.079   0.940   4.402 -0.9165 -0.7013  0.9490
   37MOL    H2013772   6.165   1.053   4.241 -3.6685 -0.7841  0.5641
   37MOL    C2113773   6.278   0.896   4.474  0.2749 -0.4796  0.2483
   37MOL    C2213774   6.394   0.798   4.440  0.6577  0.0672  0.1181
   37MOL    C2313775   6.372   0.660   4.437 -0.2299 -0.1507  0.3658
   37MOL    C2413776   6.479   0.583   4.391 -0.2228  0.4336  0.6085
   37MOL    C2513777   6.601   0.637   4.359  0.6681  0.5338  0.1290
   37MOL    C2613778   6.709   0.544   4.306 -0.0006  0.1412 -0.7217
   37MOL    C2713779   6.623   0.778   4.360 -0.1463  0.1134  0.6475
   37MOL    C2813780   6.517   0.859   4.413 -0.1694  0.5670  0.8110
   37MOL    C2913781   6.220   0.868   4.617 -0.4778  0.5281  0.0194
   37MOL    H3013782   6.319   0.998   4.473  2.2123 -1.2411 -0.9290
   37MOL    H3113783   6.275   0.621   4.464 -1.7641  2.4011 -1.1813
   37MOL    H3213784   6.460   0.476   4.388 -2.5490  0.8224 -0.0035
   37MOL    H3313785   6.795   0.608   4.291  1.2224 -1.3265 -0.0659
   37MOL    H3413786   6.753   0.461   4.361  1.8397  0.9876 -0.8958
   37MOL    H3513787   6.675   0.518   4.205 -2.3330  0.3361 -0.0226
   37MOL    H3613788   6.720   0.820   4.342  0.3988 -1.2244  0.3981
   37MOL    H3713789   6.533   0.966   4.411  0.9328  0.3789 -1.0449
   37MOL    H3813790   6.305   0.846   4.681 -1.4694  0.2774  1.2797
   37MOL    H3913791   6.178   0.770   4.594 -0.8668  0.7256 -0.1183
   37MOL    C4013792   6.130   0.981   4.679 -0.0254 -0.1870  0.3870
   37MOL    C4113793   6.213   1.109   4.698 -0.3971  0.4537  0.2989
   37MOL    C4213794   6.329   1.101   4.778 -0.0332 -0.5245 -0.0465
   37MOL    C4313795   6.413   1.211   4.793  0.3119  0.4275  0.0978
   37MOL    C4413796   6.391   1.324   4.713  0.4886  0.2789  0.0972
   37MOL    C4513797   6.487   1.450   4.718 -0.2423 -0.2391 -0.3966
   37MOL    C4613798   6.278   1.335   4.634  0.1115 -0.6622  0.6703
   37MOL    C4713799   6.191   1.227   4.631  0.3283 -0.5148 -0.3807
   37MOL    C4813800   6.053   0.935   4.808 -0.3975  0.0753 -0.0924
   37MOL    H4913801   6.058   1.011   4.603 -0.4115  1.3328  1.3160
   37MOL    H5013802   6.353   1.022   4.847  2.8103 -2.2086 -2.8381
   37MOL    H5113803   6.497   1.210   4.862  2.1944  0.0296 -2.1611
   37MOL    H5213804   6.515   1.485   4.818 -0.7521  2.6224 -1.2328
   37MOL    H5313805   6.579   1.431   4.663  0.3151  0.7502  0.1690
   37MOL    H5413806   6.456   1.542   4.669 -1.2000 -0.1447  0.3868
   37MOL    H5513807   6.263   1.424   4.574  2.7060 -0.9543 -0.4860
   37MOL    H5613808   6.101   1.237   4.572 -1.0877 -0.8771  1.6794
   37MOL    H5713809   5.979   1.011   4.831 -0.3634  0.4646 -1.2275
   37MOL    H5813810   6.113   0.943   4.899  0.3709 -0.6675 -0.5225
   37MOL    C5913811   5.973   0.803   4.793  0.0832 -0.1555 -0.2355
   37MOL    C6013812   5.909   0.790   4.653  0.2946 -0.4418 -0.5186
   37MOL    C6113813   5.828   0.889   4.597  0.6989  0.7721 -0.2759
   37MOL    C6213814   5.767   0.873   4.470  0.1258  0.2404  0.1067
   37MOL    C6313815   5.783   0.744   4.403 -0.6093 -0.0038 -0.0002
   37MOL    C6413816   5.721   0.723   4.267  0.0262  0.0101 -1.1264
   37MOL    C6513817   5.875   0.649   4.453  0.1450 -0.3427 -0.1494
   37MOL    C6613818   5.932   0.669   4.576 -0.2534 -0.0689 -1.0117
   37MOL    C6713819   5.854   0.797   4.891  0.3483 -0.7308  0.9239
   37MOL    H6813820   6.046   0.726   4.817  0.2899 -0.0978 -0.6867
   37MOL    H6913821   5.818   0.983   4.651 -0.2548  1.3198 -1.3759
   37MOL    H7013822   5.704   0.949   4.427 -0.2418 -0.3879 -0.4850
   37MOL    H7113823   5.802   0.677   4.210  3.1336  1.2314  2.1073
   37MOL    H7213824   5.643   0.647   4.263  0.7094 -0.6303 -3.0547
   37MOL    H7313825   5.673   0.811   4.224 -1.4647 -0.5289 -0.6198
   37MOL    H7413826   5.895   0.558   4.397 -0.2130 -0.8462  0.5423
   37MOL    H7513827   5.999   0.590   4.607  0.6294  1.0079 -0.1197
   37MOL    H7613828   5.779   0.728   4.853 -0.7530  1.5236 -1.1173
   37MOL    H7713829   5.798   0.890   4.895 -1.3445 -1.6800 -0.1948
   37MOL    C7813830   5.884   0.758   5.036  0.7888  0.4589  0.0817
   37MOL    C7913831   5.983   0.847   5.104 -0.0526  0.6554  0.0575
   37MOL    C8013832   5.934   0.954   5.176  0.5014 -0.2462  0.0870
   37MOL    C8113833   6.020   1.031   5.261  0.6887 -0.2732 -0.3159
   37MOL    C8213834   6.160   1.002   5.262  0.1890 -0.4206 -0.0171
   37MOL    C8313835   6.244   1.078   5.361 -0.4172 -0.0235 -0.4840
   37MOL    C8413836   6.207   0.897   5.186 -0.2119  0.2104  0.1443
   37MOL    C8513837   6.118   0.817   5.113 -0.5043 -0.4002  0.1242
   37MOL    C8613838   5.922   0.607   5.051 -0.0255  0.0926  0.4075
   37MOL    H8713839   5.793   0.763   5.095  0.0233  1.2628 -1.1517
   37MOL    H8813840   5.830   0.983   5.172 -0.0116 -2.0535  0.0948
   37MOL    H8913841   5.977   1.107   5.325 -1.7763 -0.6616 -1.4449
   37MOL    H9013842   6.346   1.043   5.343  0.4160  1.9781  0.1082
   37MOL    H9113843   6.239   1.184   5.336 -1.9272  0.3785  1.3920
   37MOL    H9213844   6.209   1.075   5.464 -3.0376  1.3332 -1.2924
   37MOL    H9313845   6.308   0.860   5.182 -1.3284 -2.8591 -0.9573
   37MOL    H9413846   6.160   0.723   5.081  0.6422 -0.0518  0.5589
   37MOL    H9513847   5.952   0.589   5.154 -0.5765  1.7044  0.8616
   37MOL    H9613848   6.009   0.586   4.988  2.5699 -1.5812  4.3593
   37MOL    C9713849   5.811   0.501   5.021 -0.1318  0.3627  0.6806
   37MOL    C9813850   5.679   0.529   5.092  0.3138 -0.3246 -0.1059
   37MOL    C9913851   5.563   0.560   5.019  0.4918  0.6226  1.1834
   37MOL   C10013852   5.442   0.597   5.072  0.3552  0.4303 -0.7506
   37MOL   C10113853   5.428   0.602   5.212 -0.4238 -0.2759  0.7541
   37MOL   C10213854   5.306   0.646   5.278  0.9330  0.2041  0.7388
   37MOL   C10313855   5.542   0.576   5.290 -0.7300 -0.0867  0.2361
   37MOL   C10413856   5.663   0.552   5.231  0.0710  0.7114 -0.1031
   37MOL   C10513857   5.870   0.368   5.063  0.1486  0.1317 -0.3251
   37MOL   H10613858   5.792   0.503   4.914  2.2715  1.5344  0.2351
   37MOL   H10713859   5.569   0.545   4.913 -0.2862  1.1731  1.0603
   37MOL   H10813860   5.357   0.623   5.011  0.5107  2.4106 -0.1584
   37MOL   H10913861   5.323   0.670   5.383 -0.0656  0.8268  0.7591
   37MOL   H11013862   5.262   0.725   5.218  0.3400 -1.0766 -0.5470
   37MOL   H11113863   5.233   0.567   5.260  1.3434 -0.3313  1.4178
   37MOL   H11213864   5.542   0.585   5.398 -0.4915 -1.8881  0.4075
   37MOL   H11313865   5.751   0.530   5.290 -0.3403  1.8743  0.9453
   37MOL   H11413866   5.890   0.378   5.169 -0.6725  2.0289 -0.3306
   37MOL   H11513867   5.963   0.359   5.007 -0.0206 -0.2608 -0.5469
   37MOL   C11613868   5.781   0.245   5.032  0.0872 -0.2366 -0.5055
   37MOL   C11713869   5.782   0.153   5.155  0.6769 -0.3878 -0.3593
   37MOL   C11813870   5.652   0.109   5.194 -0.3284 -0.2324  0.0490
   37MOL   C11913871   5.637   0.028   5.306 -0.2525  0.2834  0.6380
   37MOL   C12013872   5.753   8.058   5.370  0.3780  0.3088 -0.4428
   37MOL   C12113873   5.728   7.972   5.486  0.4341  0.8840 -0.2673
   37MOL   C12213874   5.887   0.014   5.324  0.3718 -0.8669  0.4876
   37MOL   C12313875   5.898   0.107   5.216 -0.6467  0.4019 -0.5110
   37MOL   C12413876   5.838   0.163   4.913  0.6827  0.0239 -0.2828
   37MOL   H12513877   5.680   0.278   5.005 -0.3854  1.5822  3.1248
   37MOL   H12613878   5.560   0.132   5.143 -1.5961 -1.6080  1.6545
   37MOL   H12713879   5.535   0.005   5.337 -1.3277  2.5270 -1.0981
   37MOL   H12813880   5.720   7.865   5.466 -1.3058  0.6075  1.7551
   37MOL   H12913881   5.814   7.980   5.552 -1.1622  2.7615  1.6311
   37MOL   H13013882   5.636   8.010   5.531  0.8604  0.0807  1.3299
   37MOL   H13113883   5.968   8.052   5.381 -0.7069 -0.6749  2.1857
   37MOL   H13213884   5.997   0.132   5.182 -1.3014  0.3558 -2.4966
   37MOL   H13313885   5.784   0.070   4.900 -0.3613  0.3715  1.4812
   37MOL   H13413886   5.939   0.132   4.940  0.1773 -1.4730 -0.0560
   37MOL   C13513887   5.826   0.236   4.776 -0.6445  0.5293 -0.5548
   37MOL   C13613888   5.683   0.289   4.743 -0.1583  0.2132  0.0400
   37MOL   C13713889   5.575   0.205   4.759  0.3475  0.0093 -0.2117
   37MOL   C13813890   5.449   0.253   4.724  0.5659 -0.1735 -0.0380
   37MOL   C13913891   5.421   0.380   4.674 -0.0017 -0.4628  0.4896
   37MOL   C14013892   5.279   0.424   4.631 -0.7521  0.8445  0.1378
   37MOL   C14113893   5.531   0.467   4.656  0.8162  0.8342  0.1173
   37MOL   C14213894   5.662   0.422   4.694 -0.3192 -0.4888 -1.0029
   37MOL   C14313895   5.876   0.155   4.656 -0.1273  0.6914 -0.2715
   37MOL   H14413896   5.898   0.318   4.787  1.2490 -1.3932  2.4150
   37MOL   H14513897   5.588   0.104   4.795 -0.7371 -0.1649 -0.2942
   37MOL   H14613898   5.365   0.185   4.738  1.3240 -0.6559  2.4100
   37MOL   H14713899   5.279   0.440   4.523 -1.0275  2.7499  0.4161
   37MOL   H14813900   5.210   0.345   4.662 -0.2251  1.0381  1.8810
   37MOL   H14913901   5.257   0.521   4.675  1.8352  1.3574  0.4244
   37MOL   H15013902   5.519   0.565   4.610 -1.3303 -0.1123 -1.4371
   37MOL   H15113903   5.743   0.489   4.673  0.1101 -1.3735 -2.2150
   37MOL   H15213904   5.828   0.194   4.566  0.0575  0.4116 -0.4925
   37MOL   H15313905   5.823   0.060   4.658  2.0569 -0.5797 -0.6067
   37MOL   C15413906   6.028   0.125   4.651  1.5013  0.0650  0.1804
   37MOL   C15513907   6.120   0.225   4.723  0.3561 -0.1433 -0.4814
   37MOL   C15613908   6.173   0.188   4.852  0.0019  0.1324 -0.1018
   37MOL   C15713909   6.249   0.265   4.928  0.1550 -0.3102 -0.2874
   37MOL   C15813910   6.282   0.395   4.882  1.0902 -0.0362  0.1333
   37MOL   C15913911   6.364   0.490   4.969  0.1357  0.6204 -0.4015
   37MOL   C16013912   6.238   0.437   4.753  0.6689 -0.4204 -0.2148
   37MOL   C16113913   6.148   0.354   4.675 -1.2491  0.0170 -0.1321
   37MOL   C16213914   6.082   0.102   4.510 -0.0851 -0.3821  0.1099
   37MOL   H16313915   6.040   0.030   4.703 -0.6317  0.8767  2.2659
   37MOL   H16413916   6.137   0.090   4.879  1.2132 -1.1414 -2.9058
   37MOL   H16513917   6.290   0.237   5.024 -2.1169  0.6969  1.0279
   37MOL   H16613918   6.338   0.459   5.070  2.6013  0.0947  0.1085
   37MOL   H16713919   6.471   0.480   4.950 -0.2619  0.0991 -2.4266
   37MOL   H16813920   6.324   0.592   4.960  1.7272  1.2434 -0.5234
   37MOL   H16913921   6.258   0.536   4.716  1.5082 -0.2462  0.6833
   37MOL   H17013922   6.102   0.385   4.582 -1.0664 -0.4162 -0.3651
   37MOL   H17113923   6.190   0.115   4.501 -0.2388  0.5395 -0.4751
   37MOL   H17213924   6.042   0.179   4.445  1.9731  1.6481  1.1921
   37MOL   C17313925   6.049   8.046   4.437 -0.1750 -0.2904 -0.5737
   37MOL   C17413926   6.099   7.929   4.524 -0.4311 -0.0414  0.2680
   37MOL   C17513927   5.999   7.838   4.572 -0.5497 -0.2655  0.4280
   37MOL   C17613928   6.041   7.725   4.644  1.4782 -0.1621  0.3460
   37MOL   C17713929   6.180   7.695   4.667 -0.7803  0.0677  0.5429
   37MOL   C17813930   6.224   7.586   4.771 -0.1076 -0.6379 -0.5264
   37MOL   C17913931   6.272   7.786   4.618 -0.2407  0.4602  0.0352
   37MOL   C18013932   6.233   7.905   4.550  0.5107  0.1758 -0.1556
   37MOL   C18113933   6.090   8.029   4.289  0.3399  0.4861  0.0089
   37MOL   H18213934   5.940   8.045   4.433 -0.3318 -2.7411  2.1778
   37MOL   H18313935   5.894   7.861   4.555  0.0838  1.2369 -1.6669
   37MOL   H18413936   5.968   7.657   4.684 -1.7512  3.1132  0.3282
   37MOL   H18513937   6.306   7.629   4.827  0.8668  0.0378 -2.4385
   37MOL   H18613938   6.151   7.544   4.840  1.2140 -1.9281  0.1045
   37MOL   H18713939   6.274   7.503   4.722 -0.5537 -2.1554  1.5069
   37MOL   H18813940   6.377   7.777   4.643  0.1175 -0.7012 -1.8326
   37MOL   H18913941   6.308   7.974   4.517  1.1561 -1.0060 -1.1956
   37MOL   H19013942   6.053   7.931   4.259  1.2597 -0.1415  0.8638
   37MOL   H19113943   6.198   8.022   4.278  0.0852 -2.3035 -1.0880
   37MOL   C19213944   6.015   0.034   4.178 -0.3848  0.4139 -0.0598
   37MOL   C19313945   5.894   0.096   4.229  0.6502  0.6167 -0.1240
   37MOL   C19413946   5.896   0.233   4.256 -0.4762  0.2084 -0.2742
   37MOL   C19513947   5.783   0.289   4.309 -0.3566  0.1461 -0.6321
   37MOL   C19613948   5.657   0.218   4.330 -0.3115  0.4930 -0.0873
   37MOL   C19713949   5.533   0.281   4.388  0.3830  0.2440  0.2029
   37MOL   C19813950   5.659   0.081   4.302  0.8411 -0.5198  0.2088
   37MOL   C19913951   5.775   0.022   4.251 -0.0631  0.3420 -0.1096
   37MOL   C20013952   6.005   8.047   4.039 -1.2775  0.6751  0.2004
   37MOL   H20113953   6.080   0.117   4.149  1.0014 -0.2749  1.0190
   37MOL   H20213954   5.978   0.300   4.235 -0.5137 -0.8405 -4.3485
   37MOL   H20313955   5.799   0.393   4.329  2.5248 -0.5271  0.8493
   37MOL   H20413956   5.462   0.287   4.305  1.5238  1.6671 -0.6926
   37MOL   H20513957   5.488   0.216   4.464  0.2551 -2.8387 -2.3649
   37MOL   H20613958   5.542   0.386   4.414 -0.3256  0.4447 -0.3369
   37MOL   H20713959   5.572   0.022   4.324  1.7539 -0.7910  3.1659
   37MOL   H20813960   5.773   7.996   4.232 -2.9572  0.6123 -1.5888
   37MOL   H20913961   5.943   7.958   4.050  0.1906 -0.5940 -1.6451
   37MOL   H21013962   6.106   8.018   4.013 -1.1606  0.9383  0.3581
   37MOL   C21113963   5.964   0.057   3.919  0.4653  0.2172 -0.1988
   37MOL   C21213964   5.813   0.074   3.902  0.7632 -0.4057  0.3675
   37MOL   C21313965   5.752   0.197   3.954  0.2480 -1.2461 -0.0487
   37MOL   C21413966   5.618   0.224   3.915 -0.3807 -0.0854 -1.3429
   37MOL   C21513967   5.546   0.132   3.841 -0.5534  0.2346 -0.2297
   37MOL   C21613968   5.404   0.162   3.786  1.0284  0.3228  0.6238
   37MOL   C21713969   5.601   0.009   3.805  0.0162  0.2612  0.4968
   37MOL   C21813970   5.733   8.055   3.839  0.6260 -0.3781 -0.3407
   37MOL   C21913971   6.031   0.017   3.783 -0.1969  0.2529  0.2777
   37MOL   H22013972   6.007   0.157   3.932  0.8423 -0.0146  0.3565
   37MOL   H22113973   5.804   0.275   4.007 -0.8142 -3.0860  3.8606
   37MOL   H22213974   5.570   0.317   3.942  0.1514  0.3047 -1.7300
   37MOL   H22313975   5.342   0.219   3.856 -2.1019 -0.9493 -1.0120
   37MOL   H22413976   5.409   0.216   3.691 -0.4507 -1.2902 -0.4016
   37MOL   H22513977   5.350   0.069   3.773  2.2464 -0.3068  0.0561
   37MOL   H22613978   5.547   8.014   3.748  1.5410  0.2664 -1.0139
   37MOL   H22713979   5.778   7.961   3.808 -1.0836 -1.1938 -0.4262
   37MOL   H22813980   5.974   0.044   3.694 -1.4539 -2.1338  0.3259
   37MOL   H22913981   6.030   7.988   3.783  2.0471  0.2082 -0.0536
   37MOL   C23013982   6.174   0.073   3.772  0.3267 -0.9379  0.9295
   37MOL   C23113983   6.180   0.205   3.694  0.2195  0.3744 -0.3105
   37MOL   C23213984   6.213   0.324   3.762  0.1420  0.0869  0.8999
   37MOL   C23313985   6.211   0.442   3.691 -0.1472 -0.5710 -0.3146
   37MOL   C23413986   6.184   0.448   3.553  0.0036 -0.0884  0.3835
   37MOL   C23513987   6.200   0.579   3.480  0.5251  0.0745  0.1207
   37MOL   C23613988   6.152   0.329   3.483  0.0020  0.1411  0.5297
   37MOL   C23713989   6.145   0.208   3.555 -0.1243  0.1249  0.7456
   37MOL   C23813990   6.275   8.056   3.708 -0.5659  0.1544 -0.1438
   37MOL   H23913991   6.210   0.103   3.871 -0.4169  0.7377  0.7187
   37MOL   H24013992   6.227   0.331   3.869  1.8710  1.5622  0.6089
   37MOL   H24113993   6.233   0.534   3.743 -1.8376 -0.7446  0.7769
   37MOL   H24213994   6.193   0.654   3.559 -0.7197 -0.4893  0.5549
   37MOL   H24313995   6.299   0.566   3.437 -0.1480 -0.4617 -1.3050
   37MOL   H24413996   6.129   0.598   3.399 -1.7415 -1.0650  1.7873
   37MOL   H24513997   6.114   0.343   3.383  0.7302 -1.0816  0.0659
   37MOL   H24613998   6.115   0.114   3.512  0.8587  0.9586 -1.9001
   37MOL   H24713999   6.342   0.041   3.652 -1.1598 -0.1359 -1.2131
   37MOL   H24814000   6.241   7.993   3.626 -0.0188 -1.5608  0.9185
   37MOL   C24914001   6.339   7.967   3.822 -0.3002  0.5347  0.3637
   37MOL   C25014002   6.413   8.055   3.919  0.6834  0.1592  0.3885
   37MOL   C25114003   6.404   8.021   4.053  0.5397 -0.1743 -0.1149
   37MOL   C25214004   6.469   0.019   4.150 -0.8591  0.0931 -0.3399
   37MOL   C25314005   6.542   0.131   4.110  0.5746  0.1280 -0.8680
   37MOL   C25414006   6.585   0.222   4.222 -0.4768  0.0029  0.1594
   37MOL   C25514007   6.554   0.164   3.974 -0.9674  0.7654 -0.0830
   37MOL   C25614008   6.490   0.085   3.878  0.5941  0.7228  1.0596
   37MOL   C25714009   6.429   7.861   3.764 -0.1664 -0.1740 -0.1235
   37MOL   H25814010   6.258   7.912   3.869 -1.0929 -0.2409 -1.8092
   37MOL   H25914011   6.339   7.940   4.084 -2.7326  2.9022  1.3028
   37MOL   H26014012   6.456   8.066   4.252 -0.0055  1.3994  0.2028
   37MOL   H26114013   6.528   0.203   4.313  1.7106 -1.1434  1.3278
   37MOL   H26214014   6.687   0.197   4.250  0.1470  0.6987 -1.4651
   37MOL   H26314015   6.569   0.327   4.199  2.7201  0.3451 -0.7183
   37MOL   H26414016   6.605   0.252   3.938 -0.9507  0.1688 -1.5354
   37MOL   H26514017   6.498   0.103   3.772  0.5971 -1.7127  0.6241
   37MOL   H26614018   6.479   7.823   3.853  0.1776 -2.2041 -1.1449
   37MOL   H26714019   6.511   7.899   3.704 -0.3287  0.2344 -0.0863
   37MOL   C26814020   6.353   7.748   3.692 -0.1699  0.4564 -0.4415
   37MOL   C26914021   6.254   7.677   3.788  0.0565  0.3629 -0.0045
   37MOL   C27014022   6.301   7.617   3.910  0.2740  0.3101 -0.1794
   37MOL   C27114023   6.226   7.543   3.998 -0.0118  0.1732 -0.0458
   37MOL   C27214024   6.083   7.535   3.969 -0.2677  0.0562 -0.6265
   37MOL   C27314025   6.001   7.439   4.042  0.7014  0.7198 -0.1488
   37MOL   C27414026   6.031   7.594   3.853  0.2780 -0.4481  0.2283
   37MOL   C27514027   6.114   7.669   3.764 -0.2472 -0.1744 -0.4767
   37MOL   C27614028   6.455   7.646   3.623 -0.1864 -0.0918  0.7460
   37MOL   H27714029   6.311   7.795   3.604  0.4691 -2.5905 -2.4626
   37MOL   H27814030   6.406   7.625   3.932  0.1184  1.8104  0.0650
   37MOL   H27914031   6.268   7.489   4.081 -0.8047  0.3008  0.4463
   37MOL   H28014032   5.896   7.445   4.010  0.7294  0.5137 -0.2763
   37MOL   H28114033   6.040   7.348   3.999 -0.5014  0.1614 -0.0920
   37MOL   H28214034   6.019   7.454   4.149 -1.3858 -0.4208  0.3845
   37MOL   H28314035   5.931   7.576   3.815 -0.0384 -0.0498  0.8610
   37MOL   H28414036   6.078   7.706   3.669  1.7700  0.7734 -0.9158
   37MOL   H28514037   6.515   7.603   3.702  0.3959 -0.5247  0.0765
   37MOL   H28614038   6.523   7.711   3.567 -0.1429  0.4341  1.4064
   37MOL   C28714039   6.406   7.522   3.547 -0.5659  0.2692 -0.3899
   37MOL   C28814040   6.511   7.430   3.497  0.0236 -0.2509  0.0737
   37MOL   C28914041   6.646   7.464   3.511 -0.1165  0.1164  0.1593
   37MOL   C29014042   6.752   7.384   3.460 -0.4353  0.4735 -0.2418
   37MOL   C29114043   6.718   7.260   3.413  0.1891 -0.0100 -0.8296
   37MOL   C29214044   6.828   7.163   3.374 -0.0951  0.2780 -0.1049
   37MOL   C29314045   6.582   7.217   3.402  0.2716 -0.8965 -1.0096
   37MOL   C29414046   6.479   7.306   3.450  0.4645 -0.3586 -0.1059
   37MOL   C29514047   6.294   7.547   3.442 -0.4999  0.3665 -0.3393
   37MOL   H29614048   6.360   7.470   3.631 -0.5372  1.7120  0.5270
   37MOL   H29714049   6.674   7.560   3.552 -2.2514  1.7941 -2.1979
   37MOL   H29814050   6.853   7.423   3.471  0.5162 -1.6147 -1.2961
   37MOL   H29914051   6.905   7.149   3.451  1.0615 -2.3878 -1.6752
   37MOL   H30014052   6.786   7.067   3.346  0.1824 -0.0770  0.6891
   37MOL   H30114053   6.871   7.201   3.281 -0.4088 -1.0254 -0.7871
   37MOL   H30214054   6.549   7.116   3.381 -4.2650  0.0436  0.9698
   37MOL   H30314055   6.373   7.283   3.452  0.5474 -1.1856 -2.9927
   37MOL   H30414056   6.232   7.628   3.480  1.9230  1.9621  0.3145
   37MOL   H30514057   6.229   7.460   3.439 -0.6181  0.4494 -0.1549
   37MOL   C30614058   6.328   7.577   3.294  0.0587  0.1858 -0.3498
   37MOL   C30714059   6.428   7.690   3.296 -0.2210  0.3336  0.1879
   37MOL   C30814060   6.558   7.657   3.272 -0.7413 -0.0944 -0.3542
   37MOL   C30914061   6.661   7.758   3.278 -0.3830 -0.2707  0.2643
   37MOL   C31014062   6.628   7.893   3.299 -0.3636 -0.7337  0.4596
   37MOL   C31114063   6.736   7.999   3.310 -0.3909  0.3648  0.5747
   37MOL   C31214064   6.490   7.925   3.316 -0.2308  1.1474  0.1489
   37MOL   C31314065   6.393   7.823   3.319 -0.7439  0.3802  0.0687
   37MOL   C31414066   6.211   7.607   3.193 -0.0601  0.0342  0.1992
   37MOL   H31514067   6.376   7.486   3.258 -0.7139  0.8815 -3.2696
   37MOL   H31614068   6.580   7.555   3.248  0.8818  0.4503 -1.2700
   37MOL   H31714069   6.763   7.734   3.253 -0.4773 -0.4142  0.0204
   37MOL   H31814070   6.838   7.964   3.294  0.0812  2.3037 -0.8417
   37MOL   H31914071   6.730   0.001   3.238 -0.6555 -0.2078 -0.0698
   37MOL   H32014072   6.745   8.032   3.413  0.4483 -0.3784  0.7377
   37MOL   H32114073   6.463   8.026   3.340  3.1919  1.4804  2.9361
   37MOL   H32214074   6.293   7.857   3.340 -0.9064  0.9554 -1.5085
   37MOL   H32314075   6.251   7.605   3.092 -0.7660 -0.7298 -0.0728
   37MOL   H32414076   6.170   7.705   3.215 -1.2174 -0.4956  0.4505
   37MOL   C32514077   6.087   7.512   3.188 -0.3200  0.2409  0.2613
   37MOL   C32614078   6.126   7.369   3.164  0.3087 -0.3726 -0.1176
   37MOL   C32714079   6.109   7.266   3.263  0.3236 -0.3470  0.3157
   37MOL   C32814080   6.118   7.132   3.228  0.2623  0.7318  0.1337
   37MOL   C32914081   6.168   7.096   3.102  0.1873 -0.4812  0.2920
   37MOL   C33014082   6.203   6.948   3.071  0.7154 -0.3212  0.1014
   37MOL   C33114083   6.206   7.196   3.010 -0.3041 -0.0967 -0.0414
   37MOL   C33214084   6.176   7.330   3.037 -0.3851 -0.2121  0.0181
   37MOL   C33314085   5.986   7.566   3.090 -1.0212  0.7023 -0.8206
   37MOL   H33414086   6.056   7.514   3.292 -1.3082  0.8135 -0.0311
   37MOL   H33514087   6.076   7.301   3.359 -0.6112  2.3006 -0.9039
   37MOL   H33614088   6.091   7.063   3.306  0.1245  1.6195  0.8881
   37MOL   H33714089   6.288   6.924   3.135  0.6012  0.1482  0.4298
   37MOL   H33814090   6.124   6.875   3.089 -0.8508  1.4965  0.6832
   37MOL   H33914091   6.227   6.930   2.966  0.8265  1.9707 -0.2986
   37MOL   H34014092   6.261   7.173   2.920  0.5263 -3.3458  1.2042
   37MOL   H34114093   6.178   7.400   2.954  0.9438 -0.9961 -0.6307
   37MOL   H34214094   5.913   7.488   3.068 -0.9140  1.1016 -2.6777
   37MOL   H34314095   6.034   7.584   2.994 -0.8059  0.8007 -0.6932
   37MOL   C34414096   5.901   7.678   3.137 -0.3127 -0.3353 -0.0290
   37MOL   C34514097   5.849   7.645   3.277 -0.1739  0.1545 -0.6861
   37MOL   C34614098   5.852   7.740   3.376  0.3205  0.9168 -0.3943
   37MOL   C34714099   5.787   7.722   3.492 -0.2225 -0.6094  0.3119
   37MOL   C34814100   5.730   7.595   3.520  0.4068 -0.0318  0.6504
   37MOL   C34914101   5.647   7.580   3.645  0.6495 -0.0294  0.8231
   37MOL   C35014102   5.728   7.492   3.426  0.1252 -0.2132  0.0532
   37MOL   C35114103   5.793   7.515   3.303 -0.7235 -0.3452  0.0187
   37MOL   C35214104   5.782   7.708   3.045 -0.6763  0.6230 -0.2694
   37MOL   H35314105   5.961   7.769   3.141  1.3802 -1.4124 -0.4400
   37MOL   H35414106   5.895   7.839   3.364 -1.9032  1.8104 -1.1379
   37MOL   H35514107   5.789   7.792   3.575  1.7340  0.0664 -0.2871
   37MOL   H35614108   5.707   7.620   3.727  0.2028 -1.1275  1.7033
   37MOL   H35714109   5.557   7.641   3.636  1.6360  1.4934  1.2000
   37MOL   H35814110   5.614   7.479   3.669  0.8249 -0.3800 -0.3902
   37MOL   H35914111   5.682   7.397   3.451  0.3130 -0.1067  0.8098
   37MOL   H36014112   5.787   7.446   3.220 -1.1835 -0.2658 -0.0163
   37MOL   H36114113   5.736   7.610   3.035  2.8138 -1.2214  1.0063
   37MOL   H36214114   5.817   7.743   2.948  1.0551 -0.4264 -0.0368
   37MOL   C36314115   5.688   7.827   3.093 -0.8258  0.2148 -0.2785
   37MOL   C36414116   5.576   7.843   2.988  0.1579 -0.3899 -0.3654
   37MOL   C36514117   5.567   7.956   2.907 -0.0658 -0.2362 -0.9486
   37MOL   C36614118   5.469   7.963   2.809 -0.5203 -0.0047  0.8652
   37MOL   C36714119   5.368   7.864   2.805  0.4390  0.7244 -0.0527
   37MOL   C36814120   5.256   7.869   2.702  0.5661 -0.7382  0.1329
   37MOL   C36914121   5.381   7.752   2.888 -0.5728  0.4231 -0.1959
   37MOL   C37014122   5.484   7.738   2.982 -0.2377  0.4259  0.2562
   37MOL   C37114123   5.774   7.953   3.118  0.2489  0.0786 -0.2880
   37MOL   H37214124   5.640   7.789   3.183 -0.0623 -0.5987 -0.1992
   37MOL   H37314125   5.636   8.039   2.918  0.2952 -0.4289 -1.7133
   37MOL   H37414126   5.460   8.055   2.753  1.8013 -2.0685 -3.0846
   37MOL   H37514127   5.292   7.906   2.606 -2.6976 -3.5057 -2.2697
   37MOL   H37614128   5.212   7.771   2.686 -1.2194 -0.3341  2.4070
   37MOL   H37714129   5.169   7.927   2.733  0.6359 -1.1757  1.1638
   37MOL   H37814130   5.307   7.674   2.892 -0.2340  0.1685  1.5679
   37MOL   H37914131   5.484   7.652   3.047  1.3860  0.1305 -0.1031
   37MOL   H38014132   5.700   8.030   3.143 -2.2778 -1.3886 -2.9320
   37MOL   H38114133   5.819   7.995   3.028 -1.3031  0.5218 -0.8801
   37MOL   H38214134   5.843   7.957   3.201  1.8578  0.0455 -1.5962
   38MOL     C114135   0.911   6.075   3.796 -0.1386 -0.0883  0.1142
   38MOL     C214136   0.811   6.110   3.900  0.2789 -0.0221 -0.5706
   38MOL     C314137   0.677   6.123   3.874  0.0321  0.1181  0.5039
   38MOL     C414138   0.582   6.162   3.966 -0.1489  0.5947 -0.4143
   38MOL     C514139   0.625   6.185   4.099  0.5360 -0.0956  0.0305
   38MOL     C614140   0.529   6.232   4.204 -0.5037  0.4068 -0.2140
   38MOL     C714141   0.759   6.179   4.131 -0.2672 -0.2476  0.0997
   38MOL     C814142   0.853   6.144   4.030 -0.5795  0.0781  0.1799
   38MOL     C914143   0.968   6.199   3.722  0.0594  0.0054  0.3346
   38MOL    H1014144   0.990   6.031   3.857 -0.8082 -0.1573  0.9411
   38MOL    H1114145   0.649   6.108   3.771 -0.3281  0.9313  0.4810
   38MOL    H1214146   0.476   6.165   3.944 -0.6365 -1.3723  1.5099
   38MOL    H1314147   0.467   6.149   4.240 -0.9177  1.2786  1.1142
   38MOL    H1414148   0.585   6.262   4.293 -0.8127  1.1025 -0.2558
   38MOL    H1514149   0.477   6.318   4.163 -1.2539 -0.9118 -2.1110
   38MOL    H1614150   0.789   6.203   4.232  0.6872  1.2463 -0.5270
   38MOL    H1714151   0.957   6.124   4.049 -0.7818 -2.6244 -1.3774
   38MOL    H1814152   1.058   6.174   3.666 -0.7647  1.8351 -1.9156
   38MOL    H1914153   0.986   6.272   3.801  1.2360 -1.2969  1.2944
   38MOL    H2014154   0.884   5.997   3.725 -1.1644 -1.9466  2.4990
   38MOL    C2114155   0.878   6.267   3.621 -0.6438 -0.2682 -0.8366
   38MOL    C2214156   0.813   6.165   3.514  0.0098 -0.0373 -0.8971
   38MOL    C2314157   0.896   6.065   3.471  0.5403 -0.0262  0.1991
   38MOL    C2414158   0.842   5.954   3.398 -0.5257 -0.4505 -0.1118
   38MOL    C2514159   0.705   5.940   3.385 -0.3365 -0.6754  0.0816
   38MOL    C2614160   0.641   5.812   3.320 -0.0623 -0.6231  0.3775
   38MOL    C2714161   0.613   6.043   3.432 -0.1350 -0.2381  0.3240
   38MOL    C2814162   0.670   6.150   3.501 -0.2122 -0.5037  0.3522
   38MOL    C2914163   0.932   6.397   3.556 -0.6532 -0.5453  0.1054
   38MOL    H3014164   0.795   6.297   3.685  0.7006 -1.0638  1.3186
   38MOL    H3114165   1.003   6.069   3.487  0.2887  0.2033  1.9166
   38MOL    H3214166   0.907   5.870   3.375 -0.5263 -0.7366  0.9247
   38MOL    H3314167   0.675   5.717   3.361 -1.0322 -0.2995  1.9651
   38MOL    H3414168   0.533   5.819   3.334 -0.4010  0.2835 -2.3847
   38MOL    H3514169   0.674   5.813   3.216  0.9420 -0.0651  0.6948
   38MOL    H3614170   0.506   6.030   3.429 -0.0754 -0.6902  0.0363
   38MOL    H3714171   0.617   6.224   3.558  2.2710  2.2562 -0.7922
   38MOL    H3814172   0.871   6.405   3.466  0.1250  0.8988 -0.3068
   38MOL    H3914173   1.030   6.381   3.512 -0.0356  0.3202  1.1599
   38MOL    C4014174   0.911   6.526   3.634  0.3292 -0.4739  0.3720
   38MOL    C4114175   0.877   6.635   3.536 -0.7729  0.1982 -0.2947
   38MOL    C4214176   0.749   6.697   3.534  0.1190 -0.2280 -0.6487
   38MOL    C4314177   0.723   6.807   3.449  0.3767 -0.4965 -0.7160
   38MOL    C4414178   0.817   6.857   3.362 -0.2564 -0.8895 -1.3586
   38MOL    C4514179   0.799   6.981   3.277  0.1585 -0.0359  0.1421
   38MOL    C4614180   0.944   6.790   3.353  0.2433  1.0704 -0.5264
   38MOL    C4714181   0.971   6.687   3.443  0.8455 -0.1422  0.0622
   38MOL    C4814182   1.027   6.569   3.727  0.4346  0.2644 -0.4866
   38MOL    H4914183   0.825   6.507   3.699  0.5331 -0.3417  0.6800
   38MOL    H5014184   0.674   6.661   3.602  1.0011 -0.3024  0.2855
   38MOL    H5114185   0.632   6.863   3.463 -0.0381 -1.2094 -0.5120
   38MOL    H5214186   0.699   7.014   3.305  0.1388  0.5680 -0.6274
   38MOL    H5314187   0.871   7.061   3.297 -0.5997  0.8906 -0.7466
   38MOL    H5414188   0.798   6.953   3.171 -1.4459 -2.2157  0.6926
   38MOL    H5514189   1.019   6.825   3.284  1.4285  0.2159  0.3121
   38MOL    H5614190   1.070   6.642   3.444  1.1153  0.4427 -0.1905
   38MOL    H5714191   1.118   6.568   3.667  1.4968 -2.3750  1.0722
   38MOL    H5814192   1.032   6.497   3.809 -1.1967  0.4244 -0.2288
   38MOL    C5914193   1.001   6.707   3.800 -0.2950 -0.3410  0.3887
   38MOL    C6014194   1.095   6.812   3.750 -0.5641 -0.8264 -0.2433
   38MOL    C6114195   1.043   6.930   3.691  0.5955 -0.2133 -0.8768
   38MOL    C6214196   1.141   7.027   3.646  0.3601  0.6254  0.0121
   38MOL    C6314197   1.277   7.010   3.663 -0.6133 -0.8302 -0.4991
   38MOL    C6414198   1.372   7.121   3.608 -0.1118 -0.9075  0.2229
   38MOL    C6514199   1.326   6.902   3.735  0.2564  0.2532  0.2715
   38MOL    C6614200   1.236   6.801   3.779 -0.3878  0.5909  0.3476
   38MOL    C6714201   1.007   6.695   3.954 -0.5930  0.2203  0.0081
   38MOL    H6814202   0.908   6.754   3.769 -1.0355 -0.7145  2.0022
   38MOL    H6914203   0.936   6.941   3.692  0.4023 -1.9913 -0.3882
   38MOL    H7014204   1.100   7.109   3.590  0.4599 -0.3435 -1.4938
   38MOL    H7114205   1.333   7.152   3.511 -0.9731  2.3143  1.4989
   38MOL    H7214206   1.398   7.201   3.678  2.0834 -1.6344  0.2713
   38MOL    H7314207   1.466   7.068   3.593 -0.3317 -1.2700  0.1224
   38MOL    H7414208   1.432   6.891   3.756  0.9529  0.8815 -2.6378
   38MOL    H7514209   1.279   6.721   3.838 -2.1542 -0.5137  0.1770
   38MOL    H7614210   1.021   6.793   4.000 -0.6276  0.4824 -0.5354
   38MOL    H7714211   1.096   6.637   3.976  0.3565  1.4387 -0.5470
   38MOL    C7814212   0.901   6.615   4.028  0.4758 -0.2020  0.0921
   38MOL    C7914213   0.760   6.611   3.960  0.3103  0.6400  0.0186
   38MOL    C8014214   0.702   6.733   3.922 -0.1864  0.9075 -0.3963
   38MOL    C8114215   0.579   6.741   3.856  0.0630  0.0262  0.7063
   38MOL    C8214216   0.513   6.624   3.817 -0.3938 -0.1767 -0.3764
   38MOL    C8314217   0.388   6.639   3.737 -0.4879 -0.0865 -0.4618
   38MOL    C8414218   0.563   6.500   3.858 -0.3820  0.2779  0.1210
   38MOL    C8514219   0.690   6.492   3.921  0.3560  0.1442 -0.3709
   38MOL    C8614220   0.874   6.665   4.168 -0.4861  0.3267 -0.7984
   38MOL    H8714221   0.926   6.509   4.040 -0.8904 -0.7626 -1.7656
   38MOL    H8814222   0.764   6.822   3.929  0.3698  0.5089 -0.1190
   38MOL    H8914223   0.544   6.841   3.837  0.8425  0.2325  0.3493
   38MOL    H9014224   0.378   6.748   3.732 -0.4769 -0.0865 -0.4744
   38MOL    H9114225   0.406   6.583   3.645  1.0587  0.6840 -0.6565
   38MOL    H9214226   0.299   6.601   3.787 -1.9222  2.7227 -0.7920
   38MOL    H9314227   0.506   6.411   3.835 -2.0131  1.7850 -1.8185
   38MOL    H9414228   0.727   6.391   3.933 -0.3228 -0.1021 -0.3708
   38MOL    H9514229   0.796   6.601   4.210 -0.2241  0.7287  0.3374
   38MOL    H9614230   0.832   6.765   4.155 -0.9944  0.1889 -0.2343
   38MOL    C9714231   0.989   6.654   4.263  0.7248 -0.5386 -0.3203
   38MOL    C9814232   1.018   6.509   4.304  0.0440 -0.0274  0.0030
   38MOL    C9914233   1.132   6.455   4.244  0.2714 -1.0826  0.5064
   38MOL   C10014234   1.164   6.319   4.256  0.1365  0.8034 -0.1494
   38MOL   C10114235   1.082   6.236   4.332  0.0262  0.6554 -0.1044
   38MOL   C10214236   1.111   6.088   4.335  0.2061  0.0463 -0.6270
   38MOL   C10314237   0.968   6.291   4.399 -0.0563  0.8656 -0.4992
   38MOL   C10414238   0.939   6.429   4.393 -0.2164  0.2886 -0.4843
   38MOL   C10514239   0.975   6.743   4.389  0.8223 -0.0557  0.5630
   38MOL   H10614240   1.081   6.692   4.219  1.1808 -2.4740 -1.0760
   38MOL   H10714241   1.186   6.516   4.173 -1.7307  1.0462  0.7381
   38MOL   H10814242   1.253   6.284   4.206 -1.1096  0.5496 -2.2598
   38MOL   H10914243   1.080   6.041   4.429  1.2924 -1.7914 -1.1556
   38MOL   H11014244   1.051   6.040   4.257 -1.2839  0.1798  0.4028
   38MOL   H11114245   1.217   6.065   4.320 -0.2626 -0.9721 -2.6073
   38MOL   H11214246   0.911   6.227   4.466 -0.4319  2.5035  0.7861
   38MOL   H11314247   0.859   6.483   4.441  1.0329  1.0657  0.7653
   38MOL   H11414248   1.038   6.720   4.475 -0.6265  4.5356  3.0716
   38MOL   H11514249   0.872   6.728   4.423  0.4404 -1.4154 -1.1475
   38MOL   C11614250   0.982   6.893   4.363  0.8427 -0.4595 -0.0232
   38MOL   C11714251   1.114   6.942   4.312  0.6470 -0.0922 -0.3074
   38MOL   C11814252   1.233   6.919   4.386 -0.5618 -0.0256  0.3766
   38MOL   C11914253   1.360   6.935   4.327 -0.1111 -0.5047 -0.0636
   38MOL   C12014254   1.368   6.986   4.199 -0.4166 -0.1019  0.6323
   38MOL   C12114255   1.506   7.017   4.143  0.3858 -0.2311  0.6976
   38MOL   C12214256   1.255   7.009   4.123  0.3384 -0.4505  0.4688
   38MOL   C12314257   1.125   6.982   4.175 -0.2796  0.1234 -0.4429
   38MOL   C12414258   0.926   6.980   4.482 -0.1027 -0.5290  0.0920
   38MOL   H12514259   0.909   6.913   4.284 -0.5195  0.2490  1.3722
   38MOL   H12614260   1.219   6.881   4.486 -1.6230 -1.0593 -0.1572
   38MOL   H12714261   1.449   6.919   4.386 -0.4499 -1.1709  0.2649
   38MOL   H12814262   1.509   7.118   4.105  0.7076 -0.6839 -0.4870
   38MOL   H12914263   1.595   6.989   4.200  0.5474 -0.3205  0.4007
   38MOL   H13014264   1.518   6.955   4.055  0.8446  0.3726  0.3350
   38MOL   H13114265   1.268   7.039   4.020 -0.1866 -1.6895  0.0401
   38MOL   H13214266   1.035   6.987   4.114 -0.5497 -0.2100 -0.0758
   38MOL   H13314267   1.007   6.986   4.554  0.6091  1.4544 -0.8378
   38MOL   H13414268   0.844   6.934   4.538 -1.2393  0.8289 -0.4257
   38MOL   C13514269   0.878   7.119   4.447 -0.1163 -1.0187 -0.7721
   38MOL   C13614270   0.754   7.113   4.363  0.1079 -0.3632 -0.7673
   38MOL   C13714271   0.760   7.101   4.226 -0.7600  0.1846  0.2840
   38MOL   C13814272   0.643   7.107   4.148 -0.1632 -0.4616 -0.2342
   38MOL   C13914273   0.518   7.109   4.215  0.4432  0.8696  0.9432
   38MOL   C14014274   0.390   7.095   4.137  0.2986 -0.1329 -0.3403
   38MOL   C14114275   0.511   7.122   4.354  0.2280 -0.0656 -0.1695
   38MOL   C14214276   0.633   7.124   4.429 -0.2146 -0.5174 -0.4792
   38MOL   C14314277   0.985   7.220   4.384 -0.5363  0.3257 -0.4805
   38MOL   H14414278   0.845   7.160   4.542 -1.0277 -2.7263 -0.3312
   38MOL   H14514279   0.859   7.101   4.184 -0.3599  1.9822  1.1275
   38MOL   H14614280   0.651   7.098   4.041  0.1182 -1.5008 -0.1297
   38MOL   H14714281   0.399   7.129   4.034 -0.3498 -1.3801 -0.8197
   38MOL   H14814282   0.372   6.988   4.128 -1.3723 -0.0502  1.6877
   38MOL   H14914283   0.304   7.137   4.189 -0.9902 -4.3429  1.0741
   38MOL   H15014284   0.416   7.114   4.406 -0.4995  2.7233 -0.9756
   38MOL   H15114285   0.629   7.110   4.537 -0.3336  2.7136 -0.0196
   38MOL   H15214286   0.922   7.306   4.356 -2.7858 -0.7269  1.1878
   38MOL   H15314287   1.024   7.173   4.294 -2.2631 -1.2226 -0.4449
   38MOL   C15414288   1.101   7.259   4.472  0.2876 -0.6949 -0.2615
   38MOL   C15514289   1.061   7.362   4.580  0.2324  0.3464  0.2635
   38MOL   C15614290   1.133   7.359   4.701  0.2772 -0.0664 -0.4349
   38MOL   C15714291   1.123   7.461   4.801  0.4215 -0.0815 -0.0183
   38MOL   C15814292   1.029   7.567   4.776 -0.0336  0.3203  0.4052
   38MOL   C15914293   1.022   7.698   4.857  0.4073  0.6482 -0.2530
   38MOL   C16014294   0.950   7.563   4.656 -0.7681 -0.2424 -0.4056
   38MOL   C16114295   0.966   7.458   4.568 -0.0390  0.6232  0.0860
   38MOL   C16214296   1.232   7.307   4.399 -0.2998 -0.2103  0.0387
   38MOL   H16314297   1.130   7.173   4.532 -0.1167 -0.5417  0.1580
   38MOL   H16414298   1.218   7.292   4.704  0.1159 -0.3174 -1.4021
   38MOL   H16514299   1.201   7.476   4.874 -0.0906 -0.6311  0.6491
   38MOL   H16614300   0.919   7.713   4.889  0.9499  2.0792  0.9005
   38MOL   H16714301   1.072   7.700   4.954  0.9287 -1.3371 -0.4566
   38MOL   H16814302   1.042   7.784   4.793  0.5323 -0.9120 -2.3666
   38MOL   H16914303   0.879   7.640   4.628 -2.1175 -0.8195  1.3483
   38MOL   H17014304   0.918   7.480   4.474 -1.3457 -0.3015  0.5236
   38MOL   H17114305   1.275   7.224   4.343  0.8671 -0.9037  1.9311
   38MOL   H17214306   1.304   7.314   4.481 -0.8383 -0.2061  0.5113
   38MOL   C17314307   1.225   7.436   4.320  0.3865  0.2343 -0.2388
   38MOL   C17414308   1.155   7.410   4.191  0.3295  0.6623  0.1049
   38MOL   C17514309   1.038   7.480   4.149  1.1157 -0.6330 -0.4662
   38MOL   C17614310   0.983   7.460   4.027  0.5483 -0.1550  0.6496
   38MOL   C17714311   1.030   7.352   3.946  0.4459  0.1467  0.0240
   38MOL   C17814312   0.970   7.326   3.809  0.2474  0.1492 -0.4758
   38MOL   C17914313   1.142   7.281   3.986  0.7246  0.2705  0.4518
   38MOL   C18014314   1.207   7.311   4.106  0.1900  0.2364  0.6564
   38MOL   C18114315   1.365   7.500   4.305  0.2441  0.3068 -0.0181
   38MOL   H18214316   1.168   7.506   4.381  2.6275  2.3344 -0.5036
   38MOL   H18314317   0.990   7.559   4.206 -0.6003 -1.7689 -0.2910
   38MOL   H18414318   0.896   7.513   3.991 -2.1324 -3.8585  1.3935
   38MOL   H18514319   0.884   7.389   3.786 -0.7736 -0.1680  2.1875
   38MOL   H18614320   1.045   7.332   3.731  0.1065 -0.4434 -0.6617
   38MOL   H18714321   0.922   7.229   3.823 -0.9394  1.1557  3.1420
   38MOL   H18814322   1.191   7.225   3.908  2.1861 -1.7994  2.7913
   38MOL   H18914323   1.301   7.261   4.128 -0.1426 -0.1049  1.3334
   38MOL   H19014324   1.415   7.454   4.221 -0.2128 -0.4104  0.0977
   38MOL   H19114325   1.420   7.479   4.397 -2.8260 -0.0673  1.8186
   38MOL   C19214326   1.356   7.658   4.292 -0.2071  0.4040 -0.8907
   38MOL   C19314327   1.487   7.707   4.236  0.3672 -0.2188 -0.1293
   38MOL   C19414328   1.616   7.654   4.277  0.1667 -0.4213  0.7740
   38MOL   C19514329   1.737   7.710   4.223  0.2569  0.9803 -0.4805
   38MOL   C19614330   1.730   7.813   4.123  0.6744 -0.5289  0.0108
   38MOL   C19714331   1.856   7.855   4.047 -0.8295 -0.5556 -0.3716
   38MOL   C19814332   1.604   7.867   4.093  0.7988  1.2433  0.4400
   38MOL   C19914333   1.480   7.816   4.144  0.4877  0.1003 -0.5816
   38MOL   C20014334   1.333   7.719   4.436  0.7026  0.4264 -0.3557
   38MOL   H20114335   1.278   7.690   4.224 -1.2257 -2.6316 -1.2390
   38MOL   H20214336   1.625   7.571   4.346 -1.6631 -2.1638 -1.0383
   38MOL   H20314337   1.834   7.668   4.246  0.6365  0.0962 -3.4406
   38MOL   H20414338   1.877   7.957   4.081 -1.3670 -0.8295  0.7902
   38MOL   H20514339   1.946   7.806   4.082 -0.0305  0.1779 -1.3713
   38MOL   H20614340   1.849   7.840   3.939 -3.6927  0.6786 -0.4128
   38MOL   H20714341   1.592   7.949   4.023 -0.3091  0.0669 -0.7815
   38MOL   H20814342   1.387   7.865   4.120  0.1444  1.6002  3.3674
   38MOL   H20914343   1.432   7.729   4.480 -0.3168 -0.7596  2.3531
   38MOL   H21014344   1.289   7.656   4.514  2.6688  0.8039  1.0875
   38MOL   C21114345   1.267   7.861   4.425  0.5715  1.2173  0.1132
   38MOL   C21214346   1.314   7.933   4.550  0.3389 -0.9588 -0.1177
   38MOL   C21314347   1.366   8.061   4.529  0.3775 -0.5159  0.0857
   38MOL   C21414348   1.421   0.052   4.645  0.6010  0.2846  1.0391
   38MOL   C21514349   1.420   8.067   4.770 -0.1038  0.0405 -0.3792
   38MOL   C21614350   1.508   0.045   4.877 -0.1609  0.3112 -0.1634
   38MOL   C21714351   1.365   7.938   4.787 -0.2044 -0.3466 -0.5412
   38MOL   C21814352   1.311   7.870   4.675 -0.3137 -0.1870 -0.0795
   38MOL   C21914353   1.110   7.848   4.434  0.1689  0.8980  0.7996
   38MOL   H22014354   1.299   7.919   4.338 -1.2396  0.5026 -1.0816
   38MOL   H22114355   1.367   0.026   4.430 -2.1051 -2.0904 -0.7034
   38MOL   H22214356   1.472   0.147   4.637 -2.5069  1.8645 -1.0357
   38MOL   H22314357   1.506   8.067   4.969  1.8205 -1.5231 -1.2138
   38MOL   H22414358   1.612   0.061   4.848  0.1921 -3.6532 -1.4693
   38MOL   H22514359   1.464   0.141   4.904 -3.6278 -1.0842 -0.5472
   38MOL   H22614360   1.380   7.897   4.885 -0.9181 -0.8047 -0.6186
   38MOL   H22714361   1.267   7.772   4.682 -0.1095 -0.1240  2.6292
   38MOL   H22814362   1.087   7.815   4.536  0.3523  0.8211  0.8158
   38MOL   H22914363   1.077   7.759   4.380 -2.9323  1.4039  1.7426
   38MOL   C23014364   1.028   7.974   4.393 -0.9829 -0.6450 -0.3017
   38MOL   C23114365   0.901   7.945   4.468  0.6066 -0.0331  0.7555
   38MOL   C23214366   0.814   7.837   4.443  0.0857 -0.2905 -0.4918
   38MOL   C23314367   0.706   7.819   4.533  0.3653  0.8017  1.1199
   38MOL   C23414368   0.680   7.904   4.637  0.5365  1.0017 -0.1218
   38MOL   C23514369   0.554   7.884   4.730 -0.2683 -0.8781 -0.2253
   38MOL   C23614370   0.764   8.015   4.662 -0.0368  0.0834  0.2135
   38MOL   C23714371   0.872   8.031   4.575 -0.1162 -0.0617 -0.2600
   38MOL   C23814372   0.997   8.009   4.245  0.4193 -0.4085  0.7451
   38MOL   H23914373   1.080   8.057   4.442  0.7314 -2.0400  0.2943
   38MOL   H24014374   0.832   7.770   4.360  0.8555 -0.9783  0.2164
   38MOL   H24114375   0.640   7.737   4.509 -0.8453  1.8537  0.7971
   38MOL   H24214376   0.506   7.788   4.709 -0.5580 -1.1020  1.4209
   38MOL   H24314377   0.588   7.879   4.833  2.8771 -0.1309 -1.1842
   38MOL   H24414378   0.479   7.959   4.702 -0.9275 -1.2449  0.5218
   38MOL   H24514379   0.749   8.078   4.748  0.4638  2.3728 -1.3338
   38MOL   H24614380   0.940   0.034   4.586  0.7004 -0.8143  0.4380
   38MOL   H24714381   0.911   8.076   4.249 -0.5114 -1.3529 -2.0262
   38MOL   H24814382   0.952   7.926   4.191 -0.4115  0.0403  0.7298
   38MOL   C24914383   1.109   8.075   4.152  0.6251  0.0234  1.0609
   38MOL   C25014384   1.184   0.112   4.209 -0.2789  0.6410  0.4892
   38MOL   C25114385   1.315   0.135   4.164  0.5994  0.2171  0.3119
   38MOL   C25214386   1.389   0.248   4.215  0.4424  0.9028  0.5263
   38MOL   C25314387   1.339   0.325   4.323 -0.1187  0.3098 -0.0583
   38MOL   C25414388   1.418   0.438   4.393  0.7012  0.4003  0.2011
   38MOL   C25514389   1.208   0.300   4.370  0.0653 -0.0120 -0.3030
   38MOL   C25614390   1.140   0.192   4.313 -0.4054 -0.2231 -0.0211
   38MOL   C25714391   1.040   0.038   4.020  0.9008  0.0192  0.2673
   38MOL   H25814392   1.191   8.006   4.134  0.2233 -0.1371 -0.1756
   38MOL   H25914393   1.350   0.065   4.090  1.1725  2.9303 -2.0908
   38MOL   H26014394   1.491   0.267   4.186  0.4090  2.3012  1.2957
   38MOL   H26114395   1.523   0.410   4.384  0.1023 -1.3490 -1.6537
   38MOL   H26214396   1.387   0.528   4.340 -1.1916  1.0142  2.2732
   38MOL   H26314397   1.387   0.452   4.496 -1.4839 -0.2964 -0.3235
   38MOL   H26414398   1.174   0.353   4.458 -1.8227 -3.0527  0.8497
   38MOL   H26514399   1.036   0.180   4.340 -0.3200 -1.9292 -0.3546
   38MOL   H26614400   1.101   0.116   3.973  0.2902 -0.7896 -1.9642
   38MOL   H26714401   0.943   0.084   4.040  1.1204  0.8863 -0.6149
   38MOL   C26814402   1.014   8.001   3.914  0.3458  0.8947  0.2469
   38MOL   C26914403   1.139   7.913   3.889  1.0933 -0.0693 -0.0635
   38MOL   C27014404   1.137   7.771   3.922 -0.5120 -0.0604 -0.8842
   38MOL   C27114405   1.250   7.694   3.890 -0.4857 -0.1591 -0.5949
   38MOL   C27214406   1.359   7.755   3.827  0.8207 -1.6173 -0.1802
   38MOL   C27314407   1.481   7.673   3.797  0.9963  0.8110  0.5303
   38MOL   C27414408   1.363   7.895   3.795 -0.0770  0.1120  0.2409
   38MOL   C27514409   1.245   7.970   3.822 -0.7599 -0.2216  0.0744
   38MOL   C27614410   0.950   8.054   3.786  0.4778 -0.2067  0.2641
   38MOL   H27714411   0.939   7.930   3.948  1.5088  0.3913  1.8459
   38MOL   H27814412   1.045   7.740   3.967  0.4789 -1.1795  0.3894
   38MOL   H27914413   1.261   7.590   3.916  0.5629  0.1815  0.3542
   38MOL   H28014414   1.473   7.596   3.721  1.4477 -0.1048  1.3990
   38MOL   H28114415   1.568   7.729   3.763  1.3656 -1.4433 -2.4411
   38MOL   H28214416   1.518   7.623   3.886 -0.4219  0.3230  0.8547
   38MOL   H28314417   1.453   7.929   3.745 -0.7785  0.9461 -0.4613
   38MOL   H28414418   1.252   8.073   3.791 -1.6017 -1.1489 -3.4373
   38MOL   H28514419   1.019   0.048   3.746 -0.8449 -0.6110 -2.9392
   38MOL   H28614420   0.865   0.038   3.812  0.0678 -0.5328 -0.2510
   38MOL   C28714421   0.903   7.948   3.678 -0.3506  0.0902 -0.2790
   38MOL   C28814422   0.968   7.980   3.542  0.4152 -0.1435 -0.0574
   38MOL   C28914423   0.918   0.008   3.465 -0.0681  0.9822 -0.0200
   38MOL   C29014424   0.983   0.048   3.346  0.5189  0.2611 -0.3979
   38MOL   C29114425   1.092   8.053   3.305  0.4297  0.5591 -0.2908
   38MOL   C29214426   1.160   0.024   3.178 -0.0524 -0.1143  0.0576
   38MOL   C29314427   1.129   7.934   3.371  0.5264  0.4781 -0.2258
   38MOL   C29414428   1.070   7.899   3.496  0.1010  0.0704 -0.4003
   38MOL   C29514429   0.743   7.949   3.682 -0.0225  0.0378  0.0900
   38MOL   H29614430   0.927   7.848   3.715 -2.5840 -0.3660  0.0104
   38MOL   H29714431   0.835   0.065   3.504  0.0062  0.2734  1.1768
   38MOL   H29814432   0.947   0.132   3.288 -2.6074 -0.9709 -0.3532
   38MOL   H29914433   1.086   0.052   3.103  0.3994  0.9326 -0.0021
   38MOL   H30014434   1.221   0.112   3.200 -2.5182  1.8033 -0.5561
   38MOL   H30114435   1.211   8.024   3.125 -2.3424 -1.3715 -0.3301
   38MOL   H30214436   1.210   7.880   3.324  2.4176  3.0669 -0.0303
   38MOL   H30314437   1.117   7.818   3.551  0.4393  1.7703  1.8578
   38MOL   H30414438   0.700   8.046   3.658  2.5944  1.6220  1.5374
   38MOL   H30514439   0.707   7.929   3.782 -0.0830 -1.4682 -0.2237
   38MOL   C30614440   0.675   7.861   3.568  0.1577  0.8798  0.2712
   38MOL   C30714441   0.529   7.905   3.532 -0.4279  0.2157  0.2311
   38MOL   C30814442   0.441   7.957   3.628  0.4720 -0.9858  0.4110
   38MOL   C30914443   0.309   7.996   3.605  0.0116  0.6296 -0.5764
   38MOL   C31014444   0.263   7.991   3.473 -0.0247  1.4479  0.6281
   38MOL   C31114445   0.114   8.010   3.437  0.1670  0.4133  0.0035
   38MOL   C31214446   0.348   7.940   3.373  0.1355  0.5212 -0.2414
   38MOL   C31314447   0.482   7.902   3.398 -0.7297 -0.8973  0.4284
   38MOL   C31414448   0.691   7.712   3.603  0.1526 -0.2491  0.0132
   38MOL   H31514449   0.731   7.871   3.476 -3.4215  1.4696 -1.9461
   38MOL   H31614450   0.488   7.957   3.725  3.3209 -0.7918 -0.9114
   38MOL   H31714451   0.244   8.018   3.688 -0.1551 -2.0261  0.0571
   38MOL   H31814452   0.099   7.988   3.331 -1.5759 -0.4289  0.4016
   38MOL   H31914453   0.053   7.939   3.493 -0.1785  1.4184  0.9122
   38MOL   H32014454   0.086   0.035   3.450  0.3708  0.4665  0.0271
   38MOL   H32114455   0.314   7.934   3.271  1.2361  0.6405 -0.6209
   38MOL   H32214456   0.551   7.877   3.318  0.1735 -2.3717  1.6579
   38MOL   H32314457   0.607   7.695   3.670  1.4358  0.0561  1.7575
   38MOL   H32414458   0.778   7.694   3.666  0.0459  2.1761  0.9157
   38MOL   C32514459   0.683   7.615   3.479 -0.0029  0.3374 -1.2163
   38MOL   C32614460   0.648   7.475   3.530 -0.1915  0.7255  0.6669
   38MOL   C32714461   0.515   7.426   3.537  0.1561  0.1567 -0.0162
   38MOL   C32814462   0.482   7.294   3.586  0.4154 -0.2653 -0.5934
   38MOL   C32914463   0.588   7.215   3.630 -0.0915 -0.0849  0.3830
   38MOL   C33014464   0.564   7.077   3.676 -0.0783  0.3583  0.5930
   38MOL   C33114465   0.723   7.257   3.614 -0.4003  0.2587  0.0008
   38MOL   C33214466   0.756   7.383   3.562  0.0466 -0.5372  0.0763
   38MOL   C33314467   0.801   7.638   3.388  0.2185  0.7330  0.2803
   38MOL   H33414468   0.596   7.640   3.418  0.8832  0.9405 -2.2479
   38MOL   H33514469   0.430   7.487   3.512 -0.2943 -1.2390 -1.9795
   38MOL   H33614470   0.381   7.257   3.593  1.2681 -2.2462  1.8267
   38MOL   H33714471   0.526   7.081   3.778  0.6897 -0.0282  0.9003
   38MOL   H33814472   0.492   7.031   3.609  1.6944  2.1247 -2.6634
   38MOL   H33914473   0.657   7.020   3.677 -1.0719 -1.2821  0.5044
   38MOL   H34014474   0.798   7.185   3.643 -2.9288 -2.1683  0.7375
   38MOL   H34114475   0.860   7.408   3.547 -0.1259 -0.1297 -0.4450
   38MOL   H34214476   0.895   7.625   3.441  0.0988  1.1614  0.5988
   38MOL   H34314477   0.796   7.743   3.357  3.4979  1.0643  0.7261
   38MOL   C34414478   0.813   7.550   3.258 -0.0362  0.5547 -0.9809
   38MOL   C34514479   0.934   7.594   3.174 -0.7013 -0.7131 -0.5711
   38MOL   C34614480   0.944   7.721   3.118  0.4522 -0.0805 -0.8739
   38MOL   C34714481   1.058   7.755   3.038 -0.1422 -0.4162  0.5487
   38MOL   C34814482   1.170   7.676   3.033 -0.1166  0.1849  0.1034
   38MOL   C34914483   1.301   7.728   2.970 -0.4987 -0.5227  0.1480
   38MOL   C35014484   1.168   7.547   3.097  0.0530 -0.2235  0.5044
   38MOL   C35114485   1.050   7.512   3.162 -0.4649 -0.2053  0.4201
   38MOL   C35214486   0.685   7.542   3.176  0.2013  0.7711  0.3383
   38MOL   H35314487   0.826   7.445   3.286  0.1050  0.6552 -0.6740
   38MOL   H35414488   0.867   7.795   3.136  0.5760  0.0374 -0.8343
   38MOL   H35514489   1.062   7.852   2.991 -1.9998 -0.8331 -0.5259
   38MOL   H35614490   1.300   7.733   2.861  0.2070  3.0123  0.2615
   38MOL   H35714491   1.335   7.809   3.034  0.5338 -1.6995  1.1198
   38MOL   H35814492   1.368   7.644   2.992  0.8209  0.4952  0.0956
   38MOL   H35914493   1.255   7.484   3.101  0.0913 -0.4327 -2.7654
   38MOL   H36014494   1.049   7.409   3.194 -0.9656 -0.8154 -1.4926
   38MOL   H36114495   0.651   7.646   3.179 -1.8986  0.1699 -0.9716
   38MOL   H36214496   0.617   7.475   3.229  0.4499 -0.1816 -0.5267
   38MOL   C36314497   0.683   7.504   3.030  0.3631  0.0220 -0.3735
   38MOL   C36414498   0.542   7.535   2.971 -0.0594 -0.2522 -0.5035
   38MOL   C36514499   0.432   7.447   2.985 -0.1005 -0.0233 -0.6959
   38MOL   C36614500   0.305   7.480   2.939 -0.3969  0.0554  0.0682
   38MOL   C36714501   0.291   7.603   2.871 -0.2576  0.1820  0.4346
   38MOL   C36814502   0.159   7.655   2.815  0.2775 -0.1219  0.5972
   38MOL   C36914503   0.398   7.696   2.865  0.9734  0.0486  0.9000
   38MOL   C37014504   0.526   7.658   2.908  0.1050 -0.5282  0.8022
   38MOL   C37114505   0.726   7.357   2.996  0.2762 -0.1641  0.4661
   38MOL   H37214506   0.759   7.563   2.980  2.1005 -0.0590  2.1159
   38MOL   H37314507   0.438   7.351   3.034 -2.7962  0.6112  0.9930
   38MOL   H37414508   0.224   7.409   2.941 -2.6861  2.5785 -0.2969
   38MOL   H37514509   0.094   7.699   2.890 -1.1290 -0.7710 -0.2167
   38MOL   H37614510   0.188   7.740   2.753  2.6829 -1.3623 -0.0223
   38MOL   H37714511   0.098   7.585   2.757 -0.2334  0.7175  0.1129
   38MOL   H37814512   0.382   7.796   2.827  0.5052  0.0694  1.1559
   38MOL   H37914513   0.611   7.723   2.919 -1.2367  1.1022  1.8198
   38MOL   H38014514   0.689   7.326   2.898 -0.4534 -0.2889  0.7840
   38MOL   H38114515   0.678   7.283   3.059  1.2591  0.5930  2.1191
   38MOL   H38214516   0.832   7.334   3.001  0.6246  1.4639  0.8468
   39MOL     C114517   5.376   4.735   4.459 -0.7816 -0.0090  0.7684
   39MOL     C214518   5.254   4.805   4.502  0.1237  0.1076  0.2372
   39MOL     C314519   5.136   4.736   4.479  0.2198  0.1590 -0.2152
   39MOL     C414520   5.015   4.799   4.511 -0.2023  0.5493  0.2552
   39MOL     C514521   5.015   4.929   4.575  0.4054 -0.3464 -0.4538
   39MOL     C614522   4.890   5.013   4.604 -0.0685 -0.4907  0.5303
   39MOL     C714523   5.139   4.997   4.593  0.7747 -0.6988  0.3506
   39MOL     C814524   5.255   4.931   4.568  0.3124  0.3156  0.4066
   39MOL     C914525   5.384   4.735   4.304  0.4744  0.2134  0.1262
   39MOL    H1014526   5.469   4.783   4.489 -0.0925 -0.8537  0.0436
   39MOL    H1114527   5.139   4.638   4.433  1.6732 -0.8903  2.0694
   39MOL    H1214528   4.928   4.743   4.481  0.7541  0.0073 -1.6305
   39MOL    H1314529   4.796   4.960   4.588 -0.7390  1.3975 -2.2338
   39MOL    H1414530   4.885   5.052   4.705  2.2826 -0.2403  0.5580
   39MOL    H1514531   4.888   5.103   4.542 -1.2201  0.0683  1.3451
   39MOL    H1614532   5.132   5.091   4.647 -3.0878  2.9522 -5.9570
   39MOL    H1714533   5.344   4.986   4.594  0.8099 -0.5781  0.6217
   39MOL    H1814534   5.381   4.841   4.280  0.7962  0.4156  0.9872
   39MOL    H1914535   5.288   4.699   4.266  0.6620  0.3853 -0.5079
   39MOL    H2014536   5.378   4.635   4.503  0.1591  0.2036  1.2181
   39MOL    C2114537   5.498   4.654   4.240  0.0237  0.4388  0.4529
   39MOL    C2214538   5.628   4.723   4.275 -0.6822  0.3033  0.0160
   39MOL    C2314539   5.735   4.653   4.332  0.2029 -0.0510 -0.2177
   39MOL    C2414540   5.850   4.715   4.383  0.1686 -0.0666  0.0597
   39MOL    C2514541   5.866   4.853   4.368  0.1410 -0.1470 -0.9707
   39MOL    C2614542   5.988   4.928   4.428 -0.0027 -0.7692 -0.4452
   39MOL    C2714543   5.767   4.926   4.302 -0.1181 -0.4410  1.0151
   39MOL    C2814544   5.647   4.863   4.255  0.3315 -0.5187 -0.1705
   39MOL    C2914545   5.474   4.655   4.085  0.1017  0.0191  0.3433
   39MOL    H3014546   5.492   4.554   4.282 -0.9103 -0.0467 -0.7990
   39MOL    H3114547   5.714   4.549   4.352 -2.0596  0.5752  0.7607
   39MOL    H3214548   5.915   4.652   4.442  0.7788  0.8845  0.4086
   39MOL    H3314549   6.000   5.019   4.368  0.1467 -0.8688 -0.5662
   39MOL    H3414550   5.961   4.947   4.532 -0.3089 -2.1776 -0.2629
   39MOL    H3514551   6.083   4.881   4.406  1.3846  2.3278 -1.3417
   39MOL    H3614552   5.786   5.030   4.280  2.3224 -0.9395  0.6601
   39MOL    H3714553   5.572   4.927   4.210  0.4702 -1.2268 -1.4436
   39MOL    H3814554   5.460   4.761   4.064 -2.7133 -0.7739 -2.0298
   39MOL    H3914555   5.377   4.611   4.063  0.3360  0.4830 -1.7809
   39MOL    C4014556   5.589   4.596   3.994 -0.1057 -0.3205  0.7893
   39MOL    C4114557   5.569   4.633   3.844 -0.2546 -0.2550  0.2277
   39MOL    C4214558   5.503   4.552   3.750 -0.6189 -0.0413 -0.6212
   39MOL    C4314559   5.495   4.591   3.614 -0.6140  0.3704 -1.1973
   39MOL    C4414560   5.556   4.710   3.569 -0.0111  0.0429  0.3430
   39MOL    C4514561   5.552   4.750   3.422 -0.0907  0.0662  0.1387
   39MOL    C4614562   5.616   4.796   3.658  0.1939 -0.5486 -0.1290
   39MOL    C4714563   5.627   4.758   3.796 -0.0452 -0.0775  0.8694
   39MOL    C4814564   5.619   4.450   4.015 -0.3319 -0.3517 -0.1965
   39MOL    H4914565   5.676   4.652   4.028  0.4861 -1.4326  1.1539
   39MOL    H5014566   5.467   4.454   3.778 -1.7839  0.2803 -0.9710
   39MOL    H5114567   5.457   4.524   3.539 -1.0826  1.5134 -1.9954
   39MOL    H5214568   5.468   4.810   3.387 -0.5526 -0.0057  1.1128
   39MOL    H5314569   5.638   4.813   3.398 -0.1621 -0.0932 -0.5597
   39MOL    H5414570   5.549   4.652   3.374 -1.8053  1.0990 -1.9646
   39MOL    H5514571   5.661   4.888   3.625  2.3875 -1.3950  0.4610
   39MOL    H5614572   5.668   4.833   3.862  0.5181  1.0318 -0.6951
   39MOL    H5714573   5.535   4.385   3.990 -2.1375  1.0913  1.9735
   39MOL    H5814574   5.627   4.427   4.121  0.7780  0.3605 -0.1148
   39MOL    C5914575   5.752   4.408   3.952 -0.3098  0.4165  0.2230
   39MOL    C6014576   5.765   4.254   3.968 -0.9328  0.3152 -0.6313
   39MOL    C6114577   5.804   4.184   3.849 -0.0693 -0.7207  0.1575
   39MOL    C6214578   5.812   4.043   3.853  0.5722 -0.6656 -0.3148
   39MOL    C6314579   5.791   3.974   3.970 -0.8928  0.0633 -0.5469
   39MOL    C6414580   5.793   3.821   3.979  0.2871 -0.0903  0.6229
   39MOL    C6514581   5.775   4.047   4.086 -0.6526  0.3535  0.5208
   39MOL    C6614582   5.748   4.185   4.087  0.0087 -0.1640 -0.3284
   39MOL    C6714583   5.881   4.466   4.014  0.0442 -0.3123  0.4694
   39MOL    H6814584   5.754   4.444   3.849  1.4723  1.0169  0.4360
   39MOL    H6914585   5.816   4.231   3.753 -0.4785 -3.1947 -1.1534
   39MOL    H7014586   5.827   3.983   3.764 -0.5115 -0.5694 -0.5759
   39MOL    H7114587   5.869   3.774   4.042  0.0169 -1.7794 -0.2718
   39MOL    H7214588   5.700   3.786   4.023  0.2484 -0.8093 -0.0216
   39MOL    H7314589   5.812   3.779   3.880  0.0649 -2.2678  1.4690
   39MOL    H7414590   5.766   4.001   4.183  2.9039  0.1879  0.8433
   39MOL    H7514591   5.729   4.229   4.184 -0.8902  2.1741 -1.5201
   39MOL    H7614592   5.952   4.386   4.034 -1.0221 -1.8841 -1.7960
   39MOL    H7714593   5.850   4.516   4.106 -0.0069  0.6959 -0.0844
   39MOL    C7814594   5.955   4.581   3.944  0.4185 -0.1726  0.1654
   39MOL    C7914595   6.000   4.544   3.808 -0.2169  0.1340  0.0733
   39MOL    C8014596   5.940   4.586   3.698 -0.1020  0.3653 -0.0874
   39MOL    C8114597   5.974   4.544   3.566 -0.5838 -0.3084 -0.9533
   39MOL    C8214598   6.092   4.464   3.550  0.1433 -0.4146  0.6503
   39MOL    C8314599   6.130   4.430   3.407 -0.0327 -0.1939 -0.6538
   39MOL    C8414600   6.152   4.419   3.666  0.2795 -0.3396  0.2535
   39MOL    C8514601   6.107   4.455   3.798 -0.9046  0.3030 -0.3847
   39MOL    C8614602   6.070   4.624   4.036  0.7856 -0.4188  0.6456
   39MOL    H8714603   5.882   4.663   3.935 -1.1428 -1.2243  2.6800
   39MOL    H8814604   5.854   4.650   3.708 -1.4174 -1.0634 -1.8832
   39MOL    H8914605   5.932   4.589   3.478  1.0394  2.4857 -0.3635
   39MOL    H9014606   6.237   4.420   3.387  0.4569  0.5408  1.3959
   39MOL    H9114607   6.064   4.353   3.367 -0.3476  0.1423 -0.7788
   39MOL    H9214608   6.117   4.527   3.360 -1.3683  0.6156  1.3215
   39MOL    H9314609   6.243   4.361   3.658  1.2280  0.8473  2.0175
   39MOL    H9414610   6.161   4.412   3.882  1.3401  1.3420 -1.2659
   39MOL    H9514611   6.138   4.540   4.052  1.8983  0.1853 -0.7601
   39MOL    H9614612   6.040   4.641   4.140  0.3306 -0.1543  0.4687
   39MOL    C9714613   6.155   4.740   3.997  0.3772 -0.0234  0.3307
   39MOL    C9814614   6.298   4.728   4.060 -0.2250  0.7041  0.6058
   39MOL    C9914615   6.401   4.664   3.989  0.3830 -0.0297 -0.2283
   39MOL   C10014616   6.520   4.625   4.048 -0.1340  0.1843  0.1656
   39MOL   C10114617   6.538   4.654   4.188 -0.2484 -0.3614  0.2327
   39MOL   C10214618   6.659   4.605   4.261  0.6533  0.0233  0.0037
   39MOL   C10314619   6.440   4.725   4.258  0.2952  0.0213  0.2462
   39MOL   C10414620   6.319   4.763   4.197  0.3053  1.0038  0.3332
   39MOL   C10514621   6.081   4.869   4.039  0.2670 -0.3060  0.5704
   39MOL   H10614622   6.180   4.746   3.892  0.2068  0.7804  0.3319
   39MOL   H10714623   6.386   4.635   3.886 -0.8424  2.0626 -0.6550
   39MOL   H10814624   6.593   4.576   3.985 -1.4652  1.0863 -2.1237
   39MOL   H10914625   6.657   4.620   4.369 -3.3870 -1.3373  0.1828
   39MOL   H11014626   6.669   4.497   4.247  0.1504 -0.1085  0.6309
   39MOL   H11114627   6.745   4.665   4.230  0.6055  0.6887  1.1418
   39MOL   H11214628   6.457   4.751   4.362 -0.6078  1.3455  0.0740
   39MOL   H11314629   6.236   4.810   4.248 -0.4774 -1.1787  1.1215
   39MOL   H11414630   6.070   4.870   4.148 -0.8780 -0.0578  0.4594
   39MOL   H11514631   5.975   4.879   4.019  0.9572 -1.5304 -4.2037
   39MOL   C11614632   6.152   5.001   4.004 -0.3361 -0.3535 -0.2803
   39MOL   C11714633   6.099   5.119   4.082  0.3362  0.2558  0.5007
   39MOL   C11814634   6.180   5.202   4.151 -0.2730  0.0041 -0.2962
   39MOL   C11914635   6.130   5.324   4.205  0.4686 -0.1979  0.8242
   39MOL   C12014636   5.988   5.357   4.191 -0.3358  0.2050 -0.7980
   39MOL   C12114637   5.929   5.482   4.247  0.0172  0.2102  0.2693
   39MOL   C12214638   5.903   5.260   4.132  0.3173 -0.3168 -0.1436
   39MOL   C12314639   5.962   5.140   4.083  0.9675  0.2011 -0.0796
   39MOL   C12414640   6.157   5.023   3.856 -0.3010  0.2344  0.1586
   39MOL   H12514641   6.258   4.993   4.030 -0.4730  0.5835  0.6083
   39MOL   H12614642   6.283   5.170   4.156  0.0740  0.8446 -2.0530
   39MOL   H12714643   6.179   5.396   4.270 -0.0084  0.5468  0.3596
   39MOL   H12814644   5.837   5.520   4.202 -0.7557 -1.2447  0.5915
   39MOL   H12914645   5.902   5.465   4.352  0.7676  0.7666  0.5601
   39MOL   H13014646   6.002   5.564   4.246 -0.0469  0.2557 -1.9113
   39MOL   H13114647   5.799   5.287   4.140 -0.2055 -1.1181 -3.3980
   39MOL   H13214648   5.895   5.078   4.027  1.3820 -0.5277  0.2134
   39MOL   H13314649   6.135   5.129   3.845 -1.1129 -0.0955 -1.5436
   39MOL   H13414650   6.067   4.984   3.810 -1.7026  2.4009  0.9781
   39MOL   C13514651   6.301   4.996   3.785 -0.9331 -0.0678 -0.3790
   39MOL   C13614652   6.378   5.132   3.771 -0.4367 -0.1183  0.4027
   39MOL   C13714653   6.495   5.151   3.841 -0.1763 -0.0554 -0.4577
   39MOL   C13814654   6.563   5.278   3.842  0.3007 -0.0333  0.0749
   39MOL   C13914655   6.512   5.389   3.759 -0.4890 -0.4961  0.2827
   39MOL   C14014656   6.576   5.524   3.767 -0.2367  0.0692  0.0083
   39MOL   C14114657   6.391   5.364   3.689  0.0423  0.1816 -0.0098
   39MOL   C14214658   6.330   5.238   3.688  0.0801 -0.3535  0.2441
   39MOL   C14314659   6.294   4.930   3.641 -0.1771  0.1176 -0.0433
   39MOL   H14414660   6.341   4.916   3.847  0.2342 -1.3954 -2.7810
   39MOL   H14514661   6.545   5.073   3.896 -1.5589  1.2714  2.8439
   39MOL   H14614662   6.645   5.295   3.911  0.1298 -0.0989  0.2952
   39MOL   H14714663   6.628   5.540   3.673 -1.7189  2.6416 -0.4286
   39MOL   H14814664   6.504   5.604   3.782 -1.2934 -0.8215 -0.2539
   39MOL   H14914665   6.652   5.530   3.845 -2.2157  2.3693  1.8547
   39MOL   H15014666   6.343   5.442   3.631  0.9001 -0.5544 -1.7528
   39MOL   H15114667   6.239   5.232   3.631 -0.8014 -1.9729  1.7710
   39MOL   H15214668   6.240   4.998   3.576  0.1027  2.1604  1.8037
   39MOL   H15314669   6.244   4.833   3.649 -2.2295  1.1174 -0.6576
   39MOL   C15414670   6.438   4.900   3.576  0.6246 -0.7786 -0.3553
   39MOL   C15514671   6.420   4.883   3.426  0.0627 -0.0009  0.6112
   39MOL   C15614672   6.484   4.966   3.330 -0.9010  0.2588  0.0706
   39MOL   C15714673   6.482   4.940   3.190  0.4490  0.1600  0.0146
   39MOL   C15814674   6.412   4.832   3.137  0.3558  0.2055 -0.6367
   39MOL   C15914675   6.403   4.818   2.989  0.5527 -0.4341 -0.1906
   39MOL   C16014676   6.341   4.751   3.232  0.6677 -0.2056 -0.2231
   39MOL   C16114677   6.345   4.770   3.375 -0.1452 -0.0124  0.0715
   39MOL   C16214678   6.517   4.781   3.644 -0.2804  0.6185  0.7662
   39MOL   H16314679   6.502   4.986   3.593 -0.8113  0.1433  0.5865
   39MOL   H16414680   6.540   5.047   3.374  2.2711 -1.6951 -0.1505
   39MOL   H16514681   6.546   4.995   3.123 -0.3522  2.3369  0.9973
   39MOL   H16614682   6.365   4.718   2.967 -0.8198  0.2872 -1.1883
   39MOL   H16714683   6.355   4.898   2.933  1.4771  0.6814  0.6058
   39MOL   H16814684   6.504   4.814   2.950  0.4019 -0.8214 -0.5452
   39MOL   H16914685   6.297   4.658   3.199 -0.2377  0.3901 -0.7036
   39MOL   H17014686   6.293   4.699   3.437 -0.2840 -1.3819 -1.5650
   39MOL   H17114687   6.467   4.685   3.629 -0.0596  0.6552 -0.2317
   39MOL   H17214688   6.525   4.793   3.752 -0.1849 -2.1305  1.1071
   39MOL   C17314689   6.664   4.763   3.604  0.3691  0.3738  0.3105
   39MOL   C17414690   6.723   4.630   3.637 -0.3854 -0.1628 -0.2034
   39MOL   C17514691   6.729   4.524   3.539  0.4553 -0.0354  0.2145
   39MOL   C17614692   6.784   4.399   3.559 -0.2760  0.1588 -0.3879
   39MOL   C17714693   6.824   4.367   3.692 -0.0489 -0.5017 -0.3717
   39MOL   C17814694   6.880   4.235   3.740 -0.0883 -0.3740  0.0603
   39MOL   C17914695   6.805   4.465   3.793 -0.1160  0.2570 -0.2632
   39MOL   C18014696   6.769   4.601   3.765 -0.4796  0.3899  0.5230
   39MOL   C18114697   6.755   4.882   3.643  1.2301 -0.3878 -0.3025
   39MOL   H18214698   6.666   4.758   3.495 -1.2779 -0.1645  0.2979
   39MOL   H18314699   6.682   4.551   3.446 -2.1170 -1.2033  1.1193
   39MOL   H18414700   6.798   4.333   3.475  1.5382  1.5788 -1.2226
   39MOL   H18514701   6.795   4.174   3.772  0.3230 -1.0676 -0.1563
   39MOL   H18614702   6.913   4.188   3.647 -1.1505 -0.7046 -0.1575
   39MOL   H18714703   6.955   4.225   3.819  0.2379 -0.5072 -0.2636
   39MOL   H18814704   6.844   4.449   3.893  1.8792  1.4672 -0.8141
   39MOL   H18914705   6.760   4.673   3.845  1.6527 -1.0093  2.0790
   39MOL   H19014706   6.793   4.865   3.743 -1.3870  4.0328  1.5885
   39MOL   H19114707   6.702   4.977   3.656  0.9259 -0.2277 -2.4698
   39MOL   C19214708   6.866   4.909   3.536 -0.7701 -0.3419  0.3203
   39MOL   C19314709   6.943   4.791   3.470  0.6875 -0.5443 -0.6030
   39MOL   C19414710   6.923   4.769   3.331  0.1697  0.3049 -0.0365
   39MOL   C19514711   6.997   4.664   3.270 -0.0270  0.4037  0.4324
   39MOL   C19614712   7.087   4.582   3.342 -0.0783  0.0241 -0.0544
   39MOL   C19714713   7.163   4.468   3.280 -0.1853  0.7338 -0.1274
   39MOL   C19814714   7.102   4.609   3.479 -0.2715  0.2623 -0.7663
   39MOL   C19914715   7.026   4.710   3.546 -0.8749 -0.0751  0.2366
   39MOL   C20014716   6.968   5.016   3.587 -0.3926 -0.5298 -0.1425
   39MOL   H20114717   6.801   4.961   3.466 -1.2904 -0.4681  0.7138
   39MOL   H20214718   6.854   4.823   3.268 -1.9783  0.1418  2.0863
   39MOL   H20314719   6.980   4.630   3.169  1.1146  1.2164 -0.0413
   39MOL   H20414720   7.105   4.379   3.304 -0.9259  0.9124 -1.2162
   39MOL   H20514721   7.170   4.483   3.173 -1.1245  0.4096 -0.2435
   39MOL   H20614722   7.256   4.476   3.337 -0.4678 -0.3637  0.4986
   39MOL   H20714723   7.156   4.540   3.542  0.1377 -0.3519 -1.7797
   39MOL   H20814724   7.048   4.727   3.650 -0.5501  1.9961 -0.1435
   39MOL   H20914725   7.044   5.019   3.509  0.1965  0.8436  0.4815
   39MOL   H21014726   7.014   4.986   3.681  0.0336  1.1193  0.1909
   39MOL   C21114727   6.918   5.169   3.586 -0.9452 -0.2617 -0.2792
   39MOL   C21214728   6.841   5.206   3.464  0.4191 -0.1927 -0.0187
   39MOL   C21314729   6.720   5.275   3.473  0.6794 -0.3078  0.5277
   39MOL   C21414730   6.653   5.316   3.357 -0.3235  0.2206  0.6094
   39MOL   C21514731   6.697   5.278   3.224  1.0698 -0.8391 -1.0127
   39MOL   C21614732   6.623   5.311   3.099 -0.5344 -0.3312  0.0471
   39MOL   C21714733   6.817   5.209   3.219  0.1032 -0.1828 -0.7181
   39MOL   C21814734   6.892   5.174   3.336 -0.0976 -0.4815  0.2212
   39MOL   C21914735   7.042   5.268   3.599 -0.5000 -0.1103 -0.9053
   39MOL   H22014736   6.849   5.193   3.667 -3.2794 -0.8942 -2.0232
   39MOL   H22114737   6.669   5.301   3.564 -0.7765  0.5099 -0.5056
   39MOL   H22214738   6.553   5.352   3.376 -0.0942  1.0311  0.2924
   39MOL   H22314739   6.526   5.260   3.101 -0.5186 -0.3619  0.0430
   39MOL   H22414740   6.605   5.418   3.101  3.6864  0.4460  0.9783
   39MOL   H22514741   6.675   5.274   3.011  1.4347 -0.5258  1.2494
   39MOL   H22614742   6.851   5.179   3.121  0.7904 -1.9993  0.0618
   39MOL   H22714743   6.978   5.115   3.310  0.5103  0.8296 -0.8093
   39MOL   H22814744   6.996   5.366   3.592 -1.7064 -0.6175 -0.1747
   39MOL   H22914745   7.103   5.250   3.511 -2.5094 -1.6858 -2.0038
   39MOL   C23014746   7.124   5.262   3.732 -0.0902 -0.4939  0.0178
   39MOL   C23114747   7.037   5.299   3.852 -0.6144 -0.2978 -0.2452
   39MOL   C23214748   7.004   5.201   3.942 -0.7593  0.2418 -0.0743
   39MOL   C23314749   6.917   5.245   4.044  0.1929  0.0971 -0.4279
   39MOL   C23414750   6.886   5.378   4.069 -0.1164  0.0943 -0.1160
   39MOL   C23514751   6.808   5.410   4.201  0.2327 -0.1262  1.4134
   39MOL   C23614752   6.929   5.473   3.980  0.0259 -0.0593 -0.4728
   39MOL   C23714753   7.005   5.432   3.874  0.3010  0.3181 -0.2599
   39MOL   C23814754   7.252   5.357   3.720 -0.0474  0.3303 -0.3769
   39MOL   H23914755   7.175   5.169   3.757 -1.4489 -1.5230 -0.9091
   39MOL   H24014756   7.040   5.100   3.947  0.3695  0.6413  0.0927
   39MOL   H24114757   6.880   5.175   4.116  1.8347  1.5783  1.9180
   39MOL   H24214758   6.824   5.513   4.233  1.1423 -0.5064  2.1913
   39MOL   H24314759   6.704   5.379   4.191 -0.7097  3.0823  0.6434
   39MOL   H24414760   6.852   5.355   4.285  1.7513  0.6375  1.1406
   39MOL   H24514761   6.895   5.576   3.985 -1.0500 -0.2967 -2.3637
   39MOL   H24614762   7.044   5.510   3.810 -1.8525  2.2342  0.6743
   39MOL   H24714763   7.295   5.350   3.820 -1.9960  0.0073  0.4627
   39MOL   H24814764   7.216   5.459   3.705  0.9061  0.3985 -2.3530
   39MOL   C24914765   7.363   5.331   3.614  0.4959  0.1834  0.0132
   39MOL   C25014766   7.387   5.184   3.596  0.2038  0.2144 -0.3173
   39MOL   C25114767   7.369   5.126   3.467  0.1980  0.2396 -0.0932
   39MOL   C25214768   7.383   4.984   3.457 -0.5670  0.2368 -0.4590
   39MOL   C25314769   7.443   4.908   3.563 -0.4145 -0.8374 -0.6033
   39MOL   C25414770   7.464   4.761   3.544  0.4990  0.5313 -0.1789
   39MOL   C25514771   7.465   4.972   3.687 -0.3132 -0.1295 -0.2603
   39MOL   C25614772   7.432   5.108   3.703 -0.3584  0.6805  0.4945
   39MOL   C25714773   7.500   5.403   3.638 -0.0968  0.1895 -0.2268
   39MOL   H25814774   7.324   5.372   3.521 -0.5429 -0.7444  0.0216
   39MOL   H25914775   7.325   5.179   3.384 -1.8103  2.7771  2.4377
   39MOL   H26014776   7.360   4.926   3.369 -0.6073  0.2596 -0.4631
   39MOL   H26114777   7.553   4.728   3.597  0.5349  1.0059  0.0547
   39MOL   H26214778   7.380   4.716   3.596 -2.1770  2.2560 -2.8170
   39MOL   H26314779   7.463   4.723   3.442 -0.2911  0.2173 -0.0552
   39MOL   H26414780   7.497   4.907   3.767 -1.1131 -3.0534 -2.2426
   39MOL   H26514781   7.443   5.158   3.797  1.4790  0.1880  0.5643
   39MOL   H26614782   7.574   5.389   3.560  0.2699 -2.1637  0.4992
   39MOL   H26714783   7.549   5.358   3.724  0.2463  0.8782 -0.0625
   39MOL   C26814784   7.505   5.551   3.674 -0.5708  0.7223  0.3464
   39MOL   C26914785   7.440   5.642   3.566  0.1846 -1.4979 -0.0031
   39MOL   C27014786   7.311   5.694   3.595 -0.6888  0.1773  0.1022
   39MOL   C27114787   7.248   5.783   3.508 -0.2104 -0.0454  0.3016
   39MOL   C27214788   7.313   5.812   3.381  0.4086 -0.0593  0.0218
   39MOL   C27314789   7.248   5.901   3.277  0.5517  0.1382  0.3362
   39MOL   C27414790   7.447   5.771   3.363 -0.2489  0.2211  0.3175
   39MOL   C27514791   7.505   5.684   3.452  0.1610  0.0769  0.2387
   39MOL   C27614792   7.651   5.600   3.708  0.0536  0.0541 -0.1740
   39MOL   H27714793   7.448   5.569   3.765  1.8900 -2.1146  2.5821
   39MOL   H27814794   7.254   5.669   3.683 -1.0603 -1.4839 -0.5984
   39MOL   H27914795   7.149   5.825   3.524  0.5952  1.7220  0.7863
   39MOL   H28014796   7.145   5.873   3.252  1.0847  0.4133 -2.3243
   39MOL   H28114797   7.234   6.001   3.317  2.1292  0.0797  1.0425
   39MOL   H28214798   7.307   5.924   3.188 -2.2063 -0.3303 -1.6759
   39MOL   H28314799   7.504   5.798   3.275  0.4153 -2.1162  0.0156
   39MOL   H28414800   7.604   5.648   3.426  1.0740  0.4088  3.1536
   39MOL   H28514801   7.653   5.709   3.711 -0.9575  0.0744 -0.2498
   39MOL   H28614802   7.708   5.580   3.617 -0.6493 -1.5355 -0.2803
   39MOL   C28714803   7.730   5.539   3.822 -0.4961 -0.1360  0.4386
   39MOL   C28814804   7.651   5.538   3.943  0.4767 -0.2078 -0.1791
   39MOL   C28914805   7.576   5.650   3.993 -0.6787  0.1597  0.0938
   39MOL   C29014806   7.488   5.644   4.104  0.5733 -0.3073  0.2453
   39MOL   C29114807   7.468   5.521   4.164 -0.3667 -0.5181  0.2211
   39MOL   C29214808   7.373   5.526   4.278  0.1144 -0.5384 -0.2139
   39MOL   C29314809   7.535   5.412   4.112  0.0139  0.2855 -0.6641
   39MOL   C29414810   7.624   5.416   4.002  0.2024 -0.5039  0.0217
   39MOL   C29514811   7.862   5.610   3.837  0.2160 -0.3574 -0.0994
   39MOL   H29614812   7.755   5.437   3.794 -0.1825  0.4957 -1.7164
   39MOL   H29714813   7.588   5.749   3.950 -1.5857 -0.2506 -1.1239
   39MOL   H29814814   7.438   5.736   4.130 -2.1936 -1.5430 -0.6152
   39MOL   H29914815   7.378   5.428   4.326  1.4215 -1.7999 -2.8065
   39MOL   H30014816   7.412   5.591   4.356 -0.4813 -0.9353  0.4181
   39MOL   H30114817   7.272   5.544   4.243 -0.7716  0.1361  2.5858
   39MOL   H30214818   7.528   5.323   4.173  2.0165 -0.6365 -1.6968
   39MOL   H30314819   7.671   5.324   3.970 -0.5091 -0.7022 -0.4571
   39MOL   H30414820   7.844   5.707   3.883  0.4448 -0.8782  1.1124
   39MOL   H30514821   7.908   5.640   3.743 -0.1258 -3.0195 -1.1564
   39MOL   C30614822   7.968   5.532   3.920 -0.1692 -0.1941  0.1095
   39MOL   C30714823   8.078   5.624   3.958  0.2638  0.1246  0.2420
   39MOL   C30814824   0.040   5.644   4.093  0.4761  0.4023 -0.0873
   39MOL   C30914825   0.148   5.729   4.123  0.3737 -0.3358  0.1599
   39MOL   C31014826   0.231   5.783   4.020 -0.4091  0.6074  0.1006
   39MOL   C31114827   0.347   5.878   4.058 -0.3333 -0.6449 -0.4941
   39MOL   C31214828   0.191   5.765   3.888 -0.4951 -0.0438 -0.4486
   39MOL   C31314829   0.072   5.697   3.856  0.7746  0.3904 -0.1944
   39MOL   C31414830   8.017   5.403   3.845  0.7089  0.0089  0.0285
   39MOL   H31514831   7.919   5.495   4.010  0.5348 -0.3346  0.4393
   39MOL   H31614832   8.060   5.594   4.167 -0.0371  1.3471  0.1301
   39MOL   H31714833   0.176   5.746   4.226 -1.7198 -0.5887  0.8037
   39MOL   H31814834   0.431   5.813   4.083 -1.2638 -1.3450  0.8894
   39MOL   H31914835   0.383   5.940   3.976 -1.2252 -0.0071 -0.4139
   39MOL   H32014836   0.329   5.941   4.146  3.8019  0.0143 -0.0177
   39MOL   H32114837   0.248   5.798   3.803  0.0265 -0.5707 -0.3040
   39MOL   H32214838   0.057   5.677   3.751 -1.1209 -1.0853  0.3309
   39MOL   H32314839   7.995   5.440   3.745 -1.8500  0.2461  0.6648
   39MOL   H32414840   7.956   5.314   3.858  0.1700  0.6618  2.2410
   39MOL   C32514841   0.086   5.360   3.863 -0.4728  0.4362 -0.1360
   39MOL   C32614842   0.125   5.265   3.748 -0.2600 -1.1195  0.3319
   39MOL   C32714843   0.058   5.146   3.717  0.2539 -0.3344  0.2295
   39MOL   C32814844   0.096   5.063   3.611  0.0639 -0.1682 -0.2372
   39MOL   C32914845   0.216   5.087   3.546  0.4696  0.6860  0.0825
   39MOL   C33014846   0.263   4.994   3.437  0.0695  0.1797 -0.3745
   39MOL   C33114847   0.287   5.208   3.573 -0.3435  0.0607  0.5974
   39MOL   C33214848   0.238   5.298   3.669 -0.1617 -0.4709  0.0059
   39MOL   C33314849   0.114   5.290   3.998 -0.0787  0.0611  0.1303
   39MOL   H33414850   0.149   5.449   3.853  1.3578 -0.9185 -0.7783
   39MOL   H33514851   8.056   5.108   3.778 -0.4959  0.0941 -0.5013
   39MOL   H33614852   0.042   4.973   3.583  0.1987  0.2009 -1.7469
   39MOL   H33714853   0.247   5.041   3.340  3.4794 -0.1501 -1.1594
   39MOL   H33814854   0.364   4.961   3.461  0.3075  0.8736 -0.4275
   39MOL   H33914855   0.210   4.898   3.435 -2.2668  1.4523 -0.8036
   39MOL   H34014856   0.384   5.224   3.528 -0.2681 -0.8943  0.4053
   39MOL   H34114857   0.288   5.388   3.701  1.6375 -1.8655  1.2403
   39MOL   H34214858   0.053   5.200   3.993  0.7399 -0.5138  0.2386
   39MOL   H34314859   0.062   5.352   4.070 -0.7715  1.0040 -1.1568
   39MOL   C34414860   0.256   5.254   4.049  0.1150 -0.1162 -0.2757
   39MOL   C34514861   0.231   5.205   4.189  0.0975  0.4287  0.0575
   39MOL   C34614862   0.245   5.061   4.220  0.3610 -0.2295  0.0292
   39MOL   C34714863   0.209   5.007   4.342 -0.2232  0.2237 -0.1384
   39MOL   C34814864   0.163   5.099   4.441 -0.2485  0.1432  0.5208
   39MOL   C34914865   0.135   5.043   4.579 -0.6056 -0.1983  0.3088
   39MOL   C35014866   0.165   5.240   4.424  0.4575 -0.4381 -0.0500
   39MOL   C35114867   0.208   5.290   4.299 -0.1960 -0.7302 -0.9346
   39MOL   C35214868   0.364   5.365   4.039 -0.5319 -0.0937 -0.1767
   39MOL   H35314869   0.283   5.165   3.993  0.5613  0.3538 -0.8118
   39MOL   H35414870   0.270   4.985   4.147 -2.7863  0.0839 -1.4736
   39MOL   H35514871   0.228   4.904   4.366 -2.8154 -0.2985 -0.1584
   39MOL   H35614872   0.164   5.112   4.658 -1.0230  1.0095 -0.5821
   39MOL   H35714873   0.030   5.016   4.595 -0.7227  0.2277  0.2647
   39MOL   H35814874   0.190   4.954   4.610 -0.8628 -0.1021  1.0480
   39MOL   H35914875   0.124   5.298   4.505 -0.7208  0.3089 -1.1561
   39MOL   H36014876   0.204   5.398   4.299 -0.7472 -0.7468 -0.9990
   39MOL   H36114877   0.344   5.446   4.109 -0.3807 -0.7730  0.6615
   39MOL   H36214878   0.352   5.409   3.940 -0.2773 -0.2543 -0.2795
   39MOL   C36314879   0.505   5.313   4.048  0.0849  0.4276  0.7217
   39MOL   C36414880   0.598   5.429   4.066 -0.4000  0.3995 -0.3847
   39MOL   C36514881   0.576   5.557   4.007 -0.0600 -0.6013  0.7899
   39MOL   C36614882   0.671   5.661   4.026  0.0482  0.1352 -0.4918
   39MOL   C36714883   0.795   5.637   4.094  0.0231 -0.6417 -0.5770
   39MOL   C36814884   0.897   5.742   4.104 -0.2858  0.1978 -0.2755
   39MOL   C36914885   0.810   5.511   4.152 -0.4790  0.4061 -0.4878
   39MOL   C37014886   0.719   5.407   4.142 -0.2800 -0.0982 -0.9156
   39MOL   C37114887   0.552   5.244   3.919  0.5353 -0.1908  0.8036
   39MOL   H37214888   0.507   5.240   4.129 -2.2173 -0.1249  0.3241
   39MOL   H37314889   0.493   5.583   3.944 -1.6041  3.4005  4.2060
   39MOL   H37414890   0.653   5.762   3.991 -0.1285 -0.4077 -2.0049
   39MOL   H37514891   0.995   5.698   4.088 -0.0402  0.1230  1.3898
   39MOL   H37614892   0.886   5.814   4.023  0.9293  2.2316  1.3335
   39MOL   H37714893   0.896   5.800   4.196  1.6766 -0.5294  0.2115
   39MOL   H37814894   0.895   5.497   4.216  0.1697  1.9345 -0.9993
   39MOL   H37914895   0.731   5.310   4.187  1.0033  1.4238  2.1506
   39MOL   H38014896   0.507   5.147   3.895  2.2817 -0.5104 -1.3557
   39MOL   H38114897   0.659   5.223   3.916  0.7628  1.0953 -1.0148
   39MOL   H38214898   0.532   5.314   3.838  0.9975 -0.3081  0.5863
   40MOL     C114899   1.243   3.962   1.544  0.5910  0.1934 -0.3078
   40MOL     C214900   1.144   3.989   1.663  0.5993  0.6332 -0.6366
   40MOL     C314901   1.185   3.956   1.793 -0.0954 -0.0160 -0.9593
   40MOL     C414902   1.100   3.982   1.902  0.2369 -0.2413  0.1262
   40MOL     C514903   0.980   4.055   1.887 -0.0139 -0.1108  0.4132
   40MOL     C614904   0.896   4.091   2.004 -0.3237 -0.2578 -0.4605
   40MOL     C714905   0.933   4.084   1.756 -0.1968  0.2026  0.6667
   40MOL     C814906   1.013   4.047   1.645 -0.2358 -0.0685 -0.4852
   40MOL     C914907   1.220   3.823   1.472  0.2484 -0.2124  0.4118
   40MOL    H1014908   1.226   4.042   1.471 -0.2625  2.3139  2.1537
   40MOL    H1114909   1.278   3.902   1.803 -0.6331 -0.8487 -0.2950
   40MOL    H1214910   1.139   3.969   2.002  1.6998  0.5220 -0.3252
   40MOL    H1314911   0.843   4.184   1.984  0.6651  0.3423 -0.3586
   40MOL    H1414912   0.826   4.010   2.025  0.8065 -1.2201 -0.3188
   40MOL    H1514913   0.956   4.104   2.094 -1.3873  1.2811  0.0317
   40MOL    H1614914   0.836   4.128   1.740 -0.6213 -1.3186 -1.1252
   40MOL    H1714915   0.980   4.071   1.545 -2.3434  1.0612  0.4304
   40MOL    H1814916   1.112   3.811   1.460 -0.0695  1.8208  1.0303
   40MOL    H1914917   1.250   3.742   1.539 -0.4764  0.7625  1.9703
   40MOL    H2014918   1.347   3.957   1.576  0.3783 -2.0032  0.1512
   40MOL    C2114919   1.271   3.806   1.323  0.0974 -0.6227  0.4566
   40MOL    C2214920   1.264   3.656   1.277  0.3709 -0.4723  0.4942
   40MOL    C2314921   1.160   3.603   1.201 -0.1208  0.1956  0.2600
   40MOL    C2414922   1.169   3.474   1.153  0.3624 -0.0603  0.1480
   40MOL    C2514923   1.280   3.395   1.187 -0.2267 -0.2032  0.2134
   40MOL    C2614924   1.313   3.256   1.140 -0.0097  0.2824 -0.3405
   40MOL    C2714925   1.382   3.444   1.270  0.2393 -0.0126  0.5205
   40MOL    C2814926   1.367   3.573   1.324 -0.0259  0.1974 -0.2195
   40MOL    C2914927   1.411   3.861   1.289  0.4394 -0.0541  0.1151
   40MOL    H3014928   1.205   3.862   1.257  0.4535  0.4532  0.9977
   40MOL    H3114929   1.086   3.664   1.152  1.1336  0.2950 -1.5696
   40MOL    H3214930   1.093   3.431   1.090  0.8661 -1.8486  0.7107
   40MOL    H3314931   1.388   3.255   1.061  1.5238 -0.9670  1.1147
   40MOL    H3414932   1.334   3.191   1.225 -1.7874  1.4332  1.0121
   40MOL    H3514933   1.212   3.229   1.108 -0.8825  1.6048  1.2181
   40MOL    H3614934   1.467   3.381   1.286 -0.1701 -0.0341  2.7072
   40MOL    H3714935   1.450   3.608   1.383 -0.1456 -1.4231  0.9561
   40MOL    H3814936   1.458   3.792   1.219 -0.6185 -1.2608  0.5749
   40MOL    H3914937   1.459   3.856   1.387  1.7509 -1.0766 -0.5530
   40MOL    C4014938   1.421   4.006   1.233  0.0323 -0.2767 -0.1167
   40MOL    C4114939   1.340   4.025   1.106  0.6362  0.5856  0.8335
   40MOL    C4214940   1.229   4.108   1.100 -0.3828  0.1798 -0.2854
   40MOL    C4314941   1.171   4.139   0.970 -0.1659  0.5968  0.1760
   40MOL    C4414942   1.208   4.062   0.857 -0.3175 -0.6132  0.8099
   40MOL    C4514943   1.150   4.078   0.720 -0.0812 -0.5137  0.2922
   40MOL    C4614944   1.304   3.955   0.872  0.9302 -0.0678  0.2262
   40MOL    C4714945   1.374   3.948   0.991  0.4656  0.5141 -0.8040
   40MOL    C4814946   1.568   4.045   1.199  0.1531 -0.7997  0.1009
   40MOL    H4914947   1.382   4.063   1.317 -0.8892  0.8684 -1.2884
   40MOL    H5014948   1.186   4.156   1.187  0.6183 -1.9139  1.4166
   40MOL    H5114949   1.095   4.214   0.950 -0.2618 -0.2640 -2.9831
   40MOL    H5214950   1.043   4.059   0.717 -0.3347  0.7783  0.9564
   40MOL    H5314951   1.160   4.178   0.676  0.5880  0.3184  2.2860
   40MOL    H5414952   1.207   4.012   0.655 -0.4248 -1.7317  1.2225
   40MOL    H5514953   1.328   3.891   0.789  0.4810 -1.2879  1.0245
   40MOL    H5614954   1.460   3.882   0.993 -0.4279 -0.6763 -0.9133
   40MOL    H5714955   1.562   4.144   1.153 -5.4912  0.1300  2.3840
   40MOL    H5814956   1.606   3.978   1.122  3.2430 -0.3396  1.1380
   40MOL    C5914957   1.663   4.062   1.317 -0.7353 -0.1912  0.2176
   40MOL    C6014958   1.611   4.134   1.439 -0.3439  0.3892 -0.6526
   40MOL    C6114959   1.544   4.255   1.434  0.4686 -0.5961 -0.2619
   40MOL    C6214960   1.482   4.305   1.553  0.6531  0.7566 -0.3989
   40MOL    C6314961   1.496   4.231   1.676  0.8097 -0.4604  0.7379
   40MOL    C6414962   1.418   4.274   1.795  0.6940  1.0225 -0.2937
   40MOL    C6514963   1.576   4.118   1.682  0.1796 -0.0691 -0.2368
   40MOL    C6614964   1.633   4.073   1.563  0.2021  0.1954  0.2810
   40MOL    C6714965   1.805   4.117   1.262  0.2272 -0.2371 -0.0142
   40MOL    H6814966   1.683   3.961   1.353  0.6439 -0.5253 -1.3762
   40MOL    H6914967   1.531   4.301   1.337  0.0982 -0.2494 -0.0488
   40MOL    H7014968   1.427   4.398   1.546 -0.7259 -0.0428 -0.4914
   40MOL    H7114969   1.321   4.224   1.795 -0.2185  2.7172 -1.8562
   40MOL    H7214970   1.469   4.268   1.891 -1.3145 -0.2514  0.7262
   40MOL    H7314971   1.388   4.379   1.788 -0.0636  0.8323  0.0183
   40MOL    H7414972   1.588   4.064   1.775  1.2346  0.5326 -0.0209
   40MOL    H7514973   1.691   3.982   1.567  0.1683  0.1337 -0.4877
   40MOL    H7614974   1.798   4.119   1.153 -1.0724  1.1233  0.0830
   40MOL    H7714975   1.888   4.047   1.275  1.0990  0.5574 -1.1272
   40MOL    C7814976   1.864   4.255   1.312  0.0920  0.4007 -0.2084
   40MOL    C7914977   1.912   4.337   1.189  0.1522 -1.3193 -0.2925
   40MOL    C8014978   2.020   4.285   1.120 -0.1638 -0.4542 -0.2420
   40MOL    C8114979   2.082   4.366   1.018 -0.1858  0.9771  1.6254
   40MOL    C8214980   2.030   4.496   0.988 -0.2699 -0.2939  0.2376
   40MOL    C8314981   2.083   4.577   0.874 -0.2212 -0.4490  0.2564
   40MOL    C8414982   1.924   4.545   1.068  0.4754  0.3412  0.0366
   40MOL    C8514983   1.865   4.466   1.172  0.3663  0.0020  0.8744
   40MOL    C8614984   1.975   4.239   1.420  0.2011 -0.4180 -0.0386
   40MOL    H8714985   1.778   4.315   1.341  0.0896 -0.8425  2.4012
   40MOL    H8814986   2.065   4.189   1.141 -0.5779 -0.6108 -0.0828
   40MOL    H8914987   2.172   4.331   0.970 -0.3051  2.7761  0.0252
   40MOL    H9014988   2.049   4.542   0.776 -0.3167  0.1502  0.0751
   40MOL    H9114989   2.052   4.681   0.877 -0.0093 -0.3526 -0.7684
   40MOL    H9214990   2.188   4.560   0.853 -0.6738 -1.0900 -1.5915
   40MOL    H9314991   1.886   4.645   1.052 -2.2129 -0.6250 -0.0162
   40MOL    H9414992   1.775   4.496   1.223 -1.7153 -1.1286 -1.9557
   40MOL    H9514993   2.060   4.187   1.377 -0.8591 -1.1395 -1.3286
   40MOL    H9614994   1.934   4.171   1.494  0.9197  0.6373  1.3464
   40MOL    C9714995   2.022   4.364   1.502  0.0097  0.2400 -0.6910
   40MOL    C9814996   2.148   4.327   1.576  0.1607  0.1282  0.7105
   40MOL    C9914997   2.262   4.403   1.567  0.0917  0.0323 -0.0311
   40MOL   C10014998   2.379   4.367   1.633  0.1737 -0.0976 -0.7754
   40MOL   C10114999   2.384   4.245   1.711 -0.4999 -0.0953 -0.3083
   40MOL   C10215000   2.513   4.193   1.769 -0.6375  0.0882  1.1695
   40MOL   C10315001   2.270   4.171   1.723 -0.2583 -0.4458 -0.8747
   40MOL   C10415002   2.150   4.212   1.662  0.3317 -0.4290 -0.4774
   40MOL   C10515003   1.917   4.430   1.596 -0.3202  0.8010  0.5853
   40MOL   H10615004   2.050   4.439   1.428  1.2993 -0.4123 -0.8732
   40MOL   H10715005   2.272   4.490   1.504 -0.0157  0.0245 -0.0596
   40MOL   H10815006   2.465   4.429   1.613 -1.0948  1.6044 -1.0333
   40MOL   H10915007   2.597   4.206   1.702 -2.1629  1.3530 -0.5445
   40MOL   H11015008   2.529   4.245   1.864  0.2411 -0.2226  1.1918
   40MOL   H11115009   2.511   4.086   1.790  0.1872 -0.3894 -1.1083
   40MOL   H11215010   2.281   4.080   1.781 -0.5732 -0.1737 -0.3798
   40MOL   H11315011   2.068   4.142   1.667  0.0279  0.0115  0.8735
   40MOL   H11415012   1.881   4.342   1.650 -1.1916  0.4333 -0.5759
   40MOL   H11515013   1.834   4.459   1.532 -0.1640  0.2629  0.1380
   40MOL   C11615014   1.961   4.559   1.683 -0.5629 -0.5196  0.1531
   40MOL   C11715015   1.852   4.589   1.792 -0.5551  0.0510 -0.0642
   40MOL   C11815016   1.890   4.600   1.926  0.1791  0.4280 -0.0341
   40MOL   C11915017   1.804   4.628   2.034  0.7377 -0.7610 -0.8221
   40MOL   C12015018   1.672   4.644   1.995  0.4459  0.7642  0.0501
   40MOL   C12115019   1.570   4.685   2.095 -0.5343  0.3437 -0.9266
   40MOL   C12215020   1.624   4.625   1.861 -0.0714  0.6466  0.3271
   40MOL   C12315021   1.716   4.600   1.762  0.4222  0.2083  0.2754
   40MOL   C12415022   2.000   4.672   1.587  0.6175 -0.4670  0.6275
   40MOL   H12515023   2.046   4.518   1.736  0.0319 -1.2435 -1.3176
   40MOL   H12615024   1.993   4.596   1.957  0.3739 -1.0681 -0.8133
   40MOL   H12715025   1.849   4.649   2.130 -0.4205  2.9368 -1.0316
   40MOL   H12815026   1.470   4.648   2.074 -1.0316  1.3754 -0.4073
   40MOL   H12915027   1.603   4.639   2.188  0.1260  1.7409 -0.4556
   40MOL   H13015028   1.556   4.791   2.116 -0.1583  0.1319  0.3895
   40MOL   H13115029   1.518   4.620   1.839 -0.2861 -0.9882  1.6866
   40MOL   H13215030   1.696   4.589   1.656  0.1697 -2.4905  0.5592
   40MOL   H13315031   1.913   4.713   1.535 -1.2192 -3.6420  1.1047
   40MOL   H13415032   2.059   4.627   1.507  0.5011  1.4488 -0.5757
   40MOL   C13515033   2.084   4.791   1.633 -0.9505 -0.0621  0.7285
   40MOL   C13615034   2.126   4.876   1.516  0.6536  0.2928  0.3640
   40MOL   C13715035   2.231   4.835   1.433  0.5761  0.1562  0.0066
   40MOL   C13815036   2.283   4.913   1.329 -0.4633  0.2455  0.7632
   40MOL   C13915037   2.212   5.030   1.294  0.0290  0.3407 -0.0012
   40MOL   C14015038   2.256   5.112   1.181 -0.0400 -0.2830 -0.0287
   40MOL   C14115039   2.099   5.072   1.370 -0.2178 -0.0300 -0.2002
   40MOL   C14215040   2.068   5.001   1.485  0.9671 -0.4568  0.4993
   40MOL   C14315041   2.203   4.740   1.716  0.7050 -0.1508 -0.1208
   40MOL   H14415042   2.022   4.856   1.694 -1.8352 -1.0556  0.8943
   40MOL   H14515043   2.291   4.751   1.463 -0.2579 -0.9014 -1.2495
   40MOL   H14615044   2.373   4.883   1.277 -1.1584  0.8226 -0.8282
   40MOL   H14715045   2.341   5.076   1.124 -0.4795  0.6119 -1.2798
   40MOL   H14815046   2.178   5.126   1.105  0.0688 -1.2311 -0.3196
   40MOL   H14915047   2.273   5.215   1.215  1.4838 -1.0856  1.6907
   40MOL   H15015048   2.032   5.153   1.343  2.1069  2.0396  0.0887
   40MOL   H15115049   1.982   5.035   1.541  0.4131 -1.9375  0.5778
   40MOL   H15215050   2.236   4.659   1.651 -0.7049 -0.5053 -0.4136
   40MOL   H15315051   2.174   4.678   1.801  2.1368 -1.1906 -0.3737
   40MOL   C15415052   2.314   4.838   1.762  0.3965  0.8405 -0.1848
   40MOL   C15515053   2.443   4.755   1.775  0.0571  0.0400  0.6196
   40MOL   C15615054   2.559   4.804   1.714  0.1030 -0.3124 -0.4868
   40MOL   C15715055   2.681   4.731   1.718 -0.1423  0.2810  0.5992
   40MOL   C15815056   2.682   4.609   1.776 -0.2019 -0.5537  0.5873
   40MOL   C15915057   2.810   4.534   1.786  0.1641  0.2429 -0.0847
   40MOL   C16015058   2.567   4.563   1.838  0.2647 -0.5473 -0.7452
   40MOL   C16115059   2.448   4.633   1.841 -0.1145 -0.4885  0.6076
   40MOL   C16215060   2.278   4.911   1.888 -0.2613 -0.5839  0.2245
   40MOL   H16315061   2.322   4.907   1.677 -2.5349 -0.5446 -1.6495
   40MOL   H16415062   2.557   4.898   1.660 -0.2188 -0.1763 -0.2358
   40MOL   H16515063   2.774   4.779   1.690 -0.7663  1.7903  1.0655
   40MOL   H16615064   2.881   4.580   1.854  0.2158  0.8714 -0.5647
   40MOL   H16715065   2.787   4.431   1.813 -1.4629  1.0966  1.9384
   40MOL   H16815066   2.867   4.541   1.693  0.6634 -1.0795  0.1055
   40MOL   H16915067   2.577   4.463   1.877  2.2496  0.4639  1.4830
   40MOL   H17015068   2.361   4.589   1.889 -0.0024  1.1770  2.4254
   40MOL   H17115069   2.365   4.921   1.952 -0.9478 -1.1994  1.2758
   40MOL   H17215070   2.203   4.858   1.948 -1.7384  2.1693  0.8861
   40MOL   C17315071   2.232   5.062   1.864  0.3112 -0.1296  0.1635
   40MOL   C17415072   2.329   5.146   1.793 -0.1441 -0.2493 -0.8088
   40MOL   C17515073   2.462   5.165   1.842  0.9944 -0.4192  0.1637
   40MOL   C17615074   2.548   5.256   1.780 -0.9857 -0.0523  0.0563
   40MOL   C17715075   2.508   5.341   1.676 -0.1333  0.0574  0.3129
   40MOL   C17815076   2.603   5.439   1.612 -0.4814  0.1540  0.2070
   40MOL   C17915077   2.381   5.321   1.626 -0.1192 -0.8469 -0.2938
   40MOL   C18015078   2.290   5.222   1.681 -0.1594  0.4577  0.0284
   40MOL   C18115079   2.201   5.131   1.994 -0.2208  0.5185 -0.4631
   40MOL   H18215080   2.140   5.068   1.805  1.0025 -2.8156 -1.2957
   40MOL   H18315081   2.497   5.112   1.929  0.0347  2.4123  2.3014
   40MOL   H18415082   2.649   5.263   1.818 -1.4584  2.3346  0.9120
   40MOL   H18515083   2.563   5.498   1.530  0.8277  0.2356 -0.3862
   40MOL   H18615084   2.624   5.507   1.694 -1.8134  0.4043  0.3553
   40MOL   H18715085   2.697   5.388   1.590  0.6036  3.0488 -2.1815
   40MOL   H18815086   2.339   5.387   1.552  2.3522 -0.5427 -1.4768
   40MOL   H18915087   2.189   5.209   1.646 -1.2929 -0.1778  3.4234
   40MOL   H19015088   2.190   5.237   1.970  2.2024  0.7206 -0.8433
   40MOL   H19115089   2.289   5.129   2.058  0.0633  0.9397 -0.8332
   40MOL   C19215090   2.075   5.078   2.070  0.0300  0.1495 -0.8412
   40MOL   C19315091   1.954   5.082   1.979 -0.9706  0.2458 -0.1671
   40MOL   C19415092   1.918   5.204   1.909  0.2191 -0.5470  0.6701
   40MOL   C19515093   1.817   5.204   1.809 -0.3921  0.1079 -0.3264
   40MOL   C19615094   1.746   5.084   1.783 -0.0918 -0.1983  0.2137
   40MOL   C19715095   1.629   5.083   1.680  0.3136 -0.3557 -1.3817
   40MOL   C19815096   1.788   4.967   1.845  0.0475  0.4130 -0.5431
   40MOL   C19915097   1.885   4.964   1.944 -0.3621 -0.2052  0.0688
   40MOL   C20015098   2.065   5.156   2.203 -0.0422  0.1280  0.7262
   40MOL   H20115099   2.091   4.972   2.089  0.2753  0.4366  0.5944
   40MOL   H20215100   1.986   5.285   1.926 -0.7521  0.0156  2.0307
   40MOL   H20315101   1.800   5.302   1.767  0.4452  0.9303  1.2182
   40MOL   H20415102   1.596   5.186   1.671  2.4538  0.7516  2.3118
   40MOL   H20515103   1.673   5.045   1.588  1.2975 -1.1916 -0.5890
   40MOL   H20615104   1.549   5.014   1.707  0.3467  0.0108 -0.3410
   40MOL   H20715105   1.747   4.871   1.816 -1.2068  1.4283 -2.2427
   40MOL   H20815106   1.918   4.873   1.993 -0.3272 -1.0755 -1.5428
   40MOL   H20915107   2.050   5.259   2.174  1.6807 -0.0275 -0.7522
   40MOL   H21015108   2.164   5.167   2.247 -0.3348  1.0007  1.1714
   40MOL   C21115109   1.965   5.115   2.309  1.0550 -0.4904 -0.0673
   40MOL   C21215110   1.993   4.965   2.350 -0.0960 -1.0116  0.1291
   40MOL   C21315111   2.112   4.935   2.413  0.0597  0.5711  0.2522
   40MOL   C21415112   2.143   4.807   2.462  0.0608 -0.3473  1.0358
   40MOL   C21515113   2.049   4.704   2.448  0.0986  0.1044  0.0421
   40MOL   C21615114   2.070   4.561   2.516  0.3040 -0.2348 -0.0209
   40MOL   C21715115   1.928   4.728   2.381 -0.4576 -0.2083  0.2117
   40MOL   C21815116   1.903   4.857   2.323 -0.9433  0.0381  0.0570
   40MOL   C21915117   1.816   5.144   2.270 -0.2642 -0.3269  0.4312
   40MOL   H22015118   1.979   5.179   2.396  2.3452 -0.6445 -0.1517
   40MOL   H22115119   2.183   5.015   2.431  0.0606  0.3355  1.2938
   40MOL   H22215120   2.236   4.794   2.515 -0.0497  0.6434  1.4862
   40MOL   H22315121   1.988   4.538   2.583 -0.1417 -0.0975 -0.5144
   40MOL   H22415122   2.067   4.490   2.433  1.9229 -0.6242  0.2241
   40MOL   H22515123   2.160   4.545   2.576  0.6859 -2.3900 -1.1145
   40MOL   H22615124   1.854   4.651   2.370 -0.9995  0.3527 -0.1080
   40MOL   H22715125   1.822   4.863   2.251  0.2430  0.2164 -1.2810
   40MOL   H22815126   1.752   5.114   2.352  1.4014 -0.0843  1.8329
   40MOL   H22915127   1.784   5.076   2.191  0.7699 -0.5337  0.1862
   40MOL   C23015128   1.769   5.287   2.216  0.2747  0.1599 -0.1579
   40MOL   C23115129   1.767   5.394   2.328 -0.3073  0.1612  0.7815
   40MOL   C23215130   1.655   5.404   2.416  0.3562 -1.2379  0.1469
   40MOL   C23315131   1.657   5.498   2.514  0.6433  0.5116 -0.0037
   40MOL   C23415132   1.772   5.578   2.534  0.3875  0.3432 -0.4491
   40MOL   C23515133   1.783   5.674   2.643  0.0730  0.4288  0.2786
   40MOL   C23615134   1.885   5.569   2.445  0.3172  1.2827 -0.4684
   40MOL   C23715135   1.876   5.472   2.342 -0.0633 -1.1141  0.1995
   40MOL   C23815136   1.636   5.275   2.132 -0.3392 -0.4123  0.2174
   40MOL   H23915137   1.831   5.330   2.138  1.8048  0.4440  1.1759
   40MOL   H24015138   1.565   5.346   2.408 -0.1348 -0.5097  0.3437
   40MOL   H24115139   1.572   5.501   2.581 -0.2086 -2.0959 -0.8855
   40MOL   H24215140   1.854   5.638   2.717  1.1546  1.9955  0.0311
   40MOL   H24315141   1.827   5.768   2.609 -0.4193  0.8666  0.8375
   40MOL   H24415142   1.685   5.699   2.683 -0.2988  0.0303 -0.3722
   40MOL   H24515143   1.974   5.629   2.459  1.5883 -0.7951  0.5575
   40MOL   H24615144   1.959   5.467   2.274 -0.1731 -0.7402  0.0330
   40MOL   H24715145   1.567   5.208   2.183  0.2884 -0.5766  0.8410
   40MOL   H24815146   1.662   5.223   2.040  0.6694 -0.2847  0.4310
   40MOL   C24915147   1.554   5.405   2.095  0.2090  0.3779 -0.2834
   40MOL   C25015148   1.419   5.348   2.050  0.8074 -0.2001 -0.3004
   40MOL   C25115149   1.303   5.377   2.122 -0.0912  0.4680  0.4077
   40MOL   C25215150   1.183   5.324   2.082  0.9161 -0.4138 -0.7603
   40MOL   C25315151   1.177   5.239   1.966 -0.0505 -0.6172  0.4726
   40MOL   C25415152   1.048   5.188   1.919  0.2420 -0.0344 -0.2297
   40MOL   C25515153   1.291   5.212   1.896 -0.4758 -0.0403  0.7115
   40MOL   C25615154   1.412   5.267   1.937  0.5793  0.0783  0.8261
   40MOL   C25715155   1.616   5.492   1.985 -0.3389 -0.0844 -0.1465
   40MOL   H25815156   1.531   5.468   2.181 -0.5840  0.3207 -0.4513
   40MOL   H25915157   1.310   5.440   2.209 -1.5629  0.0372  0.8682
   40MOL   H26015158   1.095   5.360   2.134  0.5008  0.0814 -1.7902
   40MOL   H26115159   1.017   5.256   1.840 -2.2202  1.3011  1.7836
   40MOL   H26215160   1.065   5.087   1.882  0.7778  0.4578 -1.3443
   40MOL   H26315161   0.967   5.190   1.992 -0.9280 -1.9042 -1.4216
   40MOL   H26415162   1.284   5.142   1.814 -1.6700  0.2532  0.5557
   40MOL   H26515163   1.505   5.254   1.883 -1.9012 -0.1050 -3.6447
   40MOL   H26615164   1.559   5.478   1.894  1.3923  0.2975 -1.3133
   40MOL   H26715165   1.709   5.446   1.952 -0.6634 -0.4270 -0.5866
   40MOL   C26815166   1.629   5.641   2.013 -0.1249  0.2423 -0.0290
   40MOL   C26915167   1.499   5.692   2.071 -0.1146 -0.3861 -0.3432
   40MOL   C27015168   1.373   5.691   2.002 -0.0487 -0.7578 -0.6512
   40MOL   C27115169   1.257   5.741   2.065 -0.0710  0.2862  0.2386
   40MOL   C27215170   1.260   5.774   2.204 -0.3051  0.9482  0.1274
   40MOL   C27315171   1.129   5.805   2.277  0.1158 -0.1110 -0.0958
   40MOL   C27415172   1.381   5.767   2.266  1.0019  0.3385 -0.0211
   40MOL   C27515173   1.502   5.736   2.201 -0.3380 -0.2385  0.1918
   40MOL   C27615174   1.675   5.727   1.886  0.3523 -0.2794 -0.2855
   40MOL   H27715175   1.703   5.660   2.090 -1.0972  2.0876  0.4804
   40MOL   H27815176   1.366   5.664   1.898  0.0228  0.2589 -0.9190
   40MOL   H27915177   1.164   5.756   2.012 -0.4919 -0.3530  0.7843
   40MOL   H28015178   1.094   5.719   2.335 -0.1263  0.5245  0.7128
   40MOL   H28115179   1.153   5.889   2.342  0.2739  1.8715 -2.6417
   40MOL   H28215180   1.043   5.844   2.223  1.1693  0.5657 -1.2871
   40MOL   H28315181   1.383   5.799   2.369 -0.7367 -0.6463  0.3432
   40MOL   H28415182   1.596   5.740   2.254 -0.0483 -0.3467 -0.3072
   40MOL   H28515183   1.668   5.832   1.915  1.6815  0.2456 -1.8145
   40MOL   H28615184   1.606   5.718   1.803  1.8315 -3.0532 -1.2658
   40MOL   C28715185   1.819   5.705   1.828  0.3310  0.0486  0.6294
   40MOL   C28815186   1.928   5.697   1.932 -0.9624 -0.7970 -0.4120
   40MOL   C28915187   1.937   5.799   2.028 -0.3400 -0.0732 -0.7130
   40MOL   C29015188   2.039   5.807   2.123  0.0864  0.0586  0.3090
   40MOL   C29115189   2.128   5.696   2.139 -0.0664  0.1662  0.2190
   40MOL   C29215190   2.243   5.705   2.234 -0.2296  0.0681 -0.6360
   40MOL   C29315191   2.117   5.587   2.042 -0.2754  0.0220  0.1834
   40MOL   C29415192   2.022   5.589   1.940 -0.1815  0.0494  0.2518
   40MOL   C29515193   1.858   5.787   1.714  0.2020 -0.0568  0.8938
   40MOL   H29615194   1.830   5.607   1.781  0.7500  0.0726  0.6767
   40MOL   H29715195   1.857   5.872   2.034 -0.7829 -0.7473  2.9490
   40MOL   H29815196   2.046   5.886   2.196  0.3322 -0.7315  1.1660
   40MOL   H29915197   2.269   5.806   2.265  1.0183  0.5898 -3.2395
   40MOL   H30015198   2.210   5.656   2.325  0.6829 -0.9172 -0.8309
   40MOL   H30115199   2.332   5.651   2.202  1.7564  1.4894  2.3199
   40MOL   H30215200   2.176   5.497   2.047 -1.7060 -0.8582  1.7398
   40MOL   H30315201   2.029   5.508   1.869 -0.3495  1.7956 -1.8393
   40MOL   H30415202   1.959   5.762   1.683 -0.6806 -0.1551 -2.0004
   40MOL   H30515203   1.868   5.889   1.753  2.4869  0.3293 -0.5872
   40MOL   C30615204   1.770   5.766   1.591 -0.3474 -0.0428  0.0101
   40MOL   C30715205   1.750   5.622   1.537  0.1535 -0.0849  0.6824
   40MOL   C30815206   1.855   5.562   1.462 -0.0852 -0.8892 -0.0709
   40MOL   C30915207   1.834   5.440   1.395 -0.5233  0.5443 -0.1516
   40MOL   C31015208   1.710   5.375   1.397 -0.4476 -0.0831 -0.6397
   40MOL   C31115209   1.683   5.242   1.334  0.2263 -0.8440  0.0866
   40MOL   C31215210   1.612   5.427   1.486 -0.3838  0.0429 -0.2993
   40MOL   C31315211   1.633   5.544   1.556  0.2338 -0.2195 -0.1365
   40MOL   C31415212   1.809   5.878   1.490  0.6161  0.0998 -0.5270
   40MOL   H31515213   1.671   5.798   1.624 -0.1623  1.5271 -0.9272
   40MOL   H31615214   1.947   5.618   1.465  0.4510 -1.7621 -0.1225
   40MOL   H31715215   1.923   5.403   1.346 -0.5277  0.2379  0.0705
   40MOL   H31815216   1.720   5.234   1.232  1.9294  1.3123  0.5063
   40MOL   H31915217   1.740   5.162   1.382  2.2255  0.8831  0.6339
   40MOL   H32015218   1.575   5.242   1.322 -0.0379  1.6074  2.0913
   40MOL   H32115219   1.518   5.375   1.497  0.4451 -1.2960  0.4684
   40MOL   H32215220   1.550   5.587   1.610  1.6419 -0.5261  2.3279
   40MOL   H32315221   1.913   5.865   1.459 -0.2286 -3.3718 -2.1071
   40MOL   H32415222   1.800   5.973   1.543 -1.7297 -0.4203  0.0408
   40MOL   C32515223   1.727   5.882   1.354 -1.0703 -0.0805 -0.1828
   40MOL   C32615224   1.798   5.972   1.251  0.5101  0.0347  0.7834
   40MOL   C32715225   1.852   5.919   1.129 -0.6899  0.2193  0.0729
   40MOL   C32815226   1.915   6.001   1.031  0.1447  0.1590  0.4871
   40MOL   C32915227   1.926   6.139   1.065  0.5986 -0.0135  0.1000
   40MOL   C33015228   1.988   6.232   0.968  0.2160  0.5105 -0.5905
   40MOL   C33115229   1.862   6.197   1.176 -0.4334  0.2146  1.0227
   40MOL   C33215230   1.813   6.115   1.269 -0.4990 -0.0581 -0.1204
   40MOL   C33315231   1.576   5.918   1.368  0.4048 -0.1756 -0.2205
   40MOL   H33415232   1.725   5.780   1.316  0.7073  0.6362 -2.2955
   40MOL   H33515233   1.845   5.813   1.111 -2.3147  0.0859  1.2950
   40MOL   H33615234   1.958   5.975   0.935 -0.7273 -1.9192  0.6366
   40MOL   H33715235   2.034   6.317   1.017  0.6160 -0.3075  0.4832
   40MOL   H33815236   2.068   6.183   0.913 -2.8120 -3.7147 -1.5293
   40MOL   H33915237   1.906   6.275   0.910 -0.6312  0.1476  0.3227
   40MOL   H34015238   1.867   6.304   1.187 -1.0188  0.5939 -1.8660
   40MOL   H34115239   1.774   6.154   1.362 -1.2805  1.9378 -1.2483
   40MOL   H34215240   1.562   6.016   1.414 -1.6414 -0.7445  0.4344
   40MOL   H34315241   1.522   5.849   1.432  1.2493  1.2174  2.0579
   40MOL   C34415242   1.494   5.936   1.237  0.0826  0.1895  0.1967
   40MOL   C34515243   1.431   6.077   1.230  0.7959  0.3259  0.7114
   40MOL   C34615244   1.463   6.165   1.125 -0.6322 -0.0513  0.1258
   40MOL   C34715245   1.403   6.292   1.116 -0.1651 -0.5313 -0.3626
   40MOL   C34815246   1.303   6.329   1.209 -0.1587 -0.6763 -0.3124
   40MOL   C34915247   1.239   6.467   1.209 -1.2915  0.5894 -0.1851
   40MOL   C35015248   1.267   6.242   1.312 -0.2468  0.1223 -0.1697
   40MOL   C35115249   1.341   6.121   1.325 -0.9396 -0.2972  0.0993
   40MOL   C35215250   1.373   5.839   1.227 -0.0196  0.0811 -0.4399
   40MOL   H35315251   1.555   5.916   1.149  0.9272 -0.2879  0.8756
   40MOL   H35415252   1.532   6.131   1.050 -2.4383 -3.1676 -0.1972
   40MOL   H35515253   1.434   6.349   1.030  1.0996 -3.0276 -1.6467
   40MOL   H35615254   1.137   6.461   1.172 -1.9340 -0.8091  1.7416
   40MOL   H35715255   1.237   6.503   1.311  0.3812 -2.0950  0.8673
   40MOL   H35815256   1.307   6.525   1.146  0.6179  0.1809  1.4587
   40MOL   H35915257   1.197   6.268   1.391  0.3907 -1.3340  0.8967
   40MOL   H36015258   1.326   6.050   1.405  1.7371  0.1422  1.0353
   40MOL   H36115259   1.303   5.877   1.153  2.9123  1.7380 -2.4951
   40MOL   H36215260   1.325   5.838   1.325 -0.4775 -2.3627 -0.6596
   40MOL   C36315261   1.411   5.692   1.191  0.5224  0.0289  0.1316
   40MOL   C36415262   1.462   5.688   1.045 -0.6406 -0.2291 -0.0417
   40MOL   C36515263   1.591   5.641   1.011  0.0199  0.2268 -0.5218
   40MOL   C36615264   1.636   5.637   0.880  0.1030 -0.0333  0.0845
   40MOL   C36715265   1.554   5.672   0.768  0.3971  0.7090  0.3345
   40MOL   C36815266   1.598   5.663   0.622  0.2173 -0.3218 -0.5601
   40MOL   C36915267   1.433   5.724   0.801 -0.2017  1.0389  0.3116
   40MOL   C37015268   1.382   5.723   0.935  0.0199  0.0032  0.1434
   40MOL   C37115269   1.293   5.595   1.208 -0.0260 -0.5860  0.3710
   40MOL   H37215270   1.502   5.666   1.246  0.5711  0.9236  0.4786
   40MOL   H37315271   1.658   5.605   1.088 -1.7733 -0.1931  0.8689
   40MOL   H37415272   1.736   5.600   0.863  1.7002  3.4460  1.4485
   40MOL   H37515273   1.662   5.575   0.630  2.2783  1.2160  0.6671
   40MOL   H37615274   1.516   5.649   0.552 -0.7612 -1.7669  0.8449
   40MOL   H37715275   1.666   5.746   0.600  0.2600  0.1118  1.0745
   40MOL   H37815276   1.373   5.766   0.721 -2.2354  1.1161  1.8411
   40MOL   H37915277   1.283   5.755   0.964 -0.8349 -0.5557 -2.0070
   40MOL   H38015278   1.251   5.627   1.304  0.7699  0.4837  0.3706
   40MOL   H38115279   1.325   5.491   1.213  1.9402 -0.0261 -0.2237
   40MOL   H38215280   1.224   5.595   1.124  0.6530 -0.5490 -0.1922
   41MOL     C115281   7.919   7.285   5.970 -0.1080  0.0247 -0.3049
   41MOL     C215282   7.827   7.403   5.944 -0.2290 -0.3890  0.3819
   41MOL     C315283   7.866   7.536   5.948  0.5949  0.1686 -0.0350
   41MOL     C415284   7.781   7.641   5.927  0.1076  0.2510  0.6609
   41MOL     C515285   7.643   7.613   5.914 -0.2640 -0.8290 -0.7041
   41MOL     C615286   7.537   7.722   5.891 -0.7130  0.4590  0.3599
   41MOL     C715287   7.600   7.482   5.923  0.1333 -0.0887 -0.0436
   41MOL     C815288   7.689   7.375   5.937  0.3825  0.3946  0.9505
   41MOL     C915289   7.931   7.196   5.848  0.2704 -0.3635  0.1043
   41MOL    H1015290   8.015   7.336   5.978  1.7673 -2.6900 -3.9078
   41MOL    H1115291   7.973   7.552   5.945  0.3898  1.3766 -2.1729
   41MOL    H1215292   7.825   7.739   5.913  0.0244  0.1436 -0.4192
   41MOL    H1315293   7.579   7.812   5.846  0.2490  0.0054  0.3593
   41MOL    H1415294   7.440   7.687   5.855 -0.8777 -0.3300  1.5455
   41MOL    H1515295   7.524   7.757   5.994 -0.5950  1.0558  0.1761
   41MOL    H1615296   7.498   7.455   5.905 -0.0543  0.7184 -0.2199
   41MOL    H1715297   7.651   7.274   5.935  1.1367  0.0088  3.4421
   41MOL    H1815298   7.961   7.258   5.764 -1.2694 -1.0359 -0.9596
   41MOL    H1915299   7.833   7.169   5.809  0.8219  1.2414 -2.4516
   41MOL    H2015300   7.903   7.237   6.067 -1.2977  0.0035 -0.4974
   41MOL    C2115301   8.008   7.061   5.851 -0.6398  0.8210  0.5744
   41MOL    C2215302   7.930   6.950   5.919 -0.2135 -0.1813 -0.6886
   41MOL    C2315303   7.898   6.836   5.842 -0.9270 -0.2500 -0.5673
   41MOL    C2415304   7.810   6.738   5.890  0.0356  0.1558  0.2636
   41MOL    C2515305   7.764   6.737   6.021 -0.0352  0.0980  0.3250
   41MOL    C2615306   7.672   6.631   6.078 -0.2678  0.0132  0.6735
   41MOL    C2715307   7.806   6.844   6.104 -0.3470 -0.4680 -0.7456
   41MOL    C2815308   7.876   6.952   6.047 -0.4753  0.3438  0.1014
   41MOL    C2915309   0.070   7.072   5.913  0.3637 -0.4665 -0.3487
   41MOL    H3015310   8.021   7.032   5.747  0.9227  0.2396  0.9191
   41MOL    H3115311   7.929   6.808   5.743 -0.9385 -0.5677 -0.4820
   41MOL    H3215312   7.780   6.659   5.822  0.5179  1.0328 -0.9829
   41MOL    H3315313   7.675   6.534   6.030 -0.8575  0.4684 -0.3099
   41MOL    H3415314   7.703   6.613   6.181  0.4166 -2.7039  0.0216
   41MOL    H3515315   7.570   6.663   6.102 -0.6092 -0.5832  0.0146
   41MOL    H3615316   7.783   6.841   6.210  0.6189  1.4256 -0.4516
   41MOL    H3715317   7.916   7.026   6.116  1.8013 -0.9883  0.2494
   41MOL    H3815318   0.094   6.965   5.911 -2.0672 -1.0185 -1.9211
   41MOL    H3915319   0.072   7.101   6.018 -0.2990  0.5615 -0.6129
   41MOL    C4015320   0.174   7.145   5.825 -0.0707 -0.5325  0.0928
   41MOL    C4115321   0.184   7.103   5.682  1.0474 -0.7342  0.3532
   41MOL    C4215322   0.144   7.199   5.581 -0.1601  0.4446 -0.7728
   41MOL    C4315323   0.140   7.167   5.446 -0.4978 -0.5399  0.0781
   41MOL    C4415324   0.175   7.033   5.406  0.1344  0.3688  0.0102
   41MOL    C4515325   0.169   6.999   5.255 -0.7413  0.1458 -0.2997
   41MOL    C4615326   0.216   6.937   5.501  0.0183 -0.0807 -0.0360
   41MOL    C4715327   0.216   6.973   5.639  0.9998 -0.6672  0.3293
   41MOL    C4815328   0.318   7.156   5.883 -0.3794 -0.4261 -0.8627
   41MOL    H4915329   0.136   7.247   5.823 -0.1310 -0.5663 -1.4305
   41MOL    H5015330   0.101   7.294   5.609 -0.1258  0.3561 -0.4135
   41MOL    H5115331   0.093   7.240   5.382  1.1522  2.3534  2.0836
   41MOL    H5215332   0.109   7.074   5.203 -0.3589  0.4406 -0.3212
   41MOL    H5315333   0.264   7.009   5.201 -0.7404 -0.4643 -0.4190
   41MOL    H5415334   0.136   6.896   5.238 -0.2939 -0.1307  0.4919
   41MOL    H5515335   0.247   6.838   5.472  1.4778  1.1897 -2.9818
   41MOL    H5615336   0.228   6.894   5.711 -0.9401 -0.4139  0.9445
   41MOL    H5715337   0.400   7.157   5.810 -0.0059  0.1125 -0.4418
   41MOL    H5815338   0.338   7.065   5.939 -3.1312 -1.8404 -2.0764
   41MOL    C5915339   0.333   7.266   5.986  0.5396  0.1492 -0.5375
   41MOL    C6015340   0.301   7.405   5.933  1.0436 -0.1772 -0.2344
   41MOL    C6115341   0.350   7.450   5.812 -0.1745  0.3539 -0.1996
   41MOL    C6215342   0.318   7.574   5.759 -0.8429  0.2521 -0.1009
   41MOL    C6315343   0.238   7.661   5.836  0.8684  0.4997  0.4485
   41MOL    C6415344   0.188   7.795   5.791 -0.0218 -0.1437  0.7382
   41MOL    C6515345   0.190   7.615   5.960 -0.0903  0.2637  0.2870
   41MOL    C6615346   0.215   7.485   6.007 -1.1672 -0.6398  0.8844
   41MOL    C6715347   0.465   7.268   6.070 -0.0968 -0.2029 -0.4178
   41MOL    H6815348   0.259   7.236   6.061  1.9714 -0.5806  0.6192
   41MOL    H6915349   0.414   7.386   5.752 -0.9443 -0.9174  0.3126
   41MOL    H7015350   0.361   7.608   5.666 -1.4085 -0.4632 -0.6276
   41MOL    H7115351   0.268   7.868   5.802 -0.1763  0.0401  0.6455
   41MOL    H7215352   0.178   7.787   5.683 -0.6119 -0.4902  0.8145
   41MOL    H7315353   0.094   7.831   5.833 -0.7383  0.2451 -1.1457
   41MOL    H7415354   0.126   7.683   6.014 -1.6536 -1.5570  0.7737
   41MOL    H7515355   0.187   7.449   6.105 -2.0648  2.4446  1.8146
   41MOL    H7615356   0.534   7.306   5.994  0.9290 -0.0311  0.5899
   41MOL    H7715357   0.502   7.168   6.090  0.1658  0.2037  1.1698
   41MOL    C7815358   0.482   7.356   6.193 -0.2916  0.4586 -0.5386
   41MOL    C7915359   0.627   7.396   6.199 -0.5750  0.1019 -0.5624
   41MOL    C8015360   0.661   7.525   6.152 -0.2193 -0.1996  0.0545
   41MOL    C8115361   0.793   7.573   6.151 -0.1336  0.9639  0.5659
   41MOL    C8215362   0.892   7.482   6.189 -0.7452 -0.4882 -0.3407
   41MOL    C8315363   1.033   7.529   6.184  0.3813  0.2720  0.3826
   41MOL    C8415364   0.866   7.349   6.233 -0.3963  0.3190 -0.4018
   41MOL    C8515365   0.733   7.307   6.236 -0.0066  0.3487  0.0910
   41MOL    C8615366   0.457   7.295   6.334 -0.1944  0.4807  0.3933
   41MOL    H8715367   0.411   7.438   6.192 -1.1421 -0.2687 -0.6226
   41MOL    H8815368   0.581   7.584   6.109 -0.1071 -1.1777 -1.5475
   41MOL    H8915369   0.813   7.676   6.126  0.7208  0.1579 -2.2479
   41MOL    H9015370   1.058   7.567   6.283  1.3088  0.7125 -0.0141
   41MOL    H9115371   1.092   7.449   6.139 -2.1984 -1.2479 -0.4067
   41MOL    H9215372   1.041   7.613   6.115  0.4796 -0.8963 -1.0699
   41MOL    H9315373   0.940   7.274   6.254 -0.6367 -0.2896 -1.6502
   41MOL    H9415374   0.718   7.204   6.263 -0.3869 -0.0231 -1.4503
   41MOL    H9515375   0.495   7.368   6.406  2.0066 -1.4050  1.2143
   41MOL    H9615376   0.529   7.215   6.355  0.2109  0.9351  0.7486
   41MOL    C9715377   0.307   7.256   6.363  0.1109  0.3290 -0.5899
   41MOL    C9815378   0.216   7.383   6.376 -0.6309  0.5867  0.2919
   41MOL    C9915379   0.095   7.392   6.310 -0.0265  0.0827 -0.3533
   41MOL   C10015380   0.021   7.506   6.322  0.5898  0.6185  0.9530
   41MOL   C10115381   0.059   7.605   6.414  0.0928  0.1225 -0.0885
   41MOL   C10215382   8.042   7.714   6.450  0.0440 -0.2866  0.5929
   41MOL   C10315383   0.183   7.595   6.479 -0.1112 -0.3723  0.1568
   41MOL   C10415384   0.270   7.489   6.462  0.0443  0.9442 -0.0536
   41MOL   C10515385   0.297   7.174   6.492  0.3260  0.3347 -0.3534
   41MOL   H10615386   0.261   7.214   6.274 -0.1605  0.1530 -0.3682
   41MOL   H10715387   0.061   7.306   6.253 -2.0536  2.0481 -2.1944
   41MOL   H10815388   8.009   7.506   6.265  1.5039 -0.0477 -0.5414
   41MOL   H10915389   8.052   7.791   6.374 -1.5322 -2.1602 -1.5955
   41MOL   H11015390   7.941   7.673   6.451 -0.8519  1.7279 -1.7776
   41MOL   H11115391   8.056   7.748   6.553  0.7603  0.0641  0.3832
   41MOL   H11215392   0.220   7.668   6.549 -2.2114  1.1760 -0.3147
   41MOL   H11315393   0.364   7.491   6.515  0.2567  1.4781 -0.4586
   41MOL   H11415394   0.192   7.160   6.520 -0.2534  3.3320 -0.9039
   41MOL   H11515395   0.343   7.235   6.570 -0.2403  0.8786 -0.4455
   41MOL   C11615396   0.366   7.040   6.476  0.1784 -0.4313 -0.1421
   41MOL   C11715397   0.303   6.944   6.370  0.5102 -0.7489  0.3988
   41MOL   C11815398   0.377   6.916   6.251  0.0672 -0.2736  0.2281
   41MOL   C11915399   0.309   6.833   6.160 -0.0771  0.9351 -0.1289
   41MOL   C12015400   0.179   6.777   6.181  0.4067  0.1796  0.2576
   41MOL   C12115401   0.114   6.690   6.076 -0.1128 -0.8384 -0.2318
   41MOL   C12215402   0.126   6.793   6.305 -0.3820 -0.2681  0.1554
   41MOL   C12315403   0.179   6.885   6.400  0.2526 -0.3667 -0.2957
   41MOL   C12415404   0.417   6.979   6.609  0.0012  0.6763  0.0681
   41MOL   H12515405   0.463   7.059   6.428 -0.5936  1.4639 -1.0288
   41MOL   H12615406   0.470   6.962   6.220  0.1229 -0.2018  0.5030
   41MOL   H12715407   0.355   6.815   6.064 -0.3177  0.6069 -0.1838
   41MOL   H12815408   0.114   6.751   5.986 -1.7609  0.4904  0.6542
   41MOL   H12915409   0.170   6.596   6.066  1.1135 -0.1135 -0.3184
   41MOL   H13015410   0.013   6.675   6.114  0.2582  0.0832  1.1437
   41MOL   H13115411   0.030   6.748   6.330 -0.4616 -0.3446 -0.2959
   41MOL   H13215412   0.123   6.899   6.491  1.0515  0.9232  0.0117
   41MOL   H13315413   0.368   6.881   6.611 -1.4568  1.3790 -0.7511
   41MOL   H13415414   0.373   7.034   6.692 -0.5517 -0.0270  0.2513
   41MOL   C13515415   0.569   6.988   6.638  0.6499  0.4318 -0.3446
   41MOL   C13615416   0.644   6.909   6.530 -0.2796 -0.5079  0.6944
   41MOL   C13715417   0.618   6.776   6.507 -0.2781  0.2598  0.4390
   41MOL   C13815418   0.679   6.716   6.396 -0.0635 -0.2074  0.1847
   41MOL   C13915419   0.775   6.784   6.318  0.1512  0.2630  0.4654
   41MOL   C14015420   0.845   6.701   6.208 -0.0415  0.4493 -0.2203
   41MOL   C14115421   0.804   6.919   6.350  0.5780 -0.2402  0.4655
   41MOL   C14215422   0.727   6.984   6.448  0.8560  0.3671 -0.6004
   41MOL   C14315423   0.601   6.931   6.784 -0.0714  0.1399 -0.3838
   41MOL   H14415424   0.597   7.093   6.636 -0.7063  0.7758 -1.3914
   41MOL   H14515425   0.557   6.709   6.566  1.9054 -1.3372  0.9462
   41MOL   H14615426   0.646   6.615   6.374  0.6130 -0.1394 -1.1727
   41MOL   H14715427   0.940   6.753   6.205  0.7270 -0.8339  1.1546
   41MOL   H14815428   0.855   6.601   6.252 -0.5652  0.1097 -0.8615
   41MOL   H14915429   0.798   6.704   6.110 -0.3007 -0.1755 -0.1218
   41MOL   H15015430   0.879   6.978   6.300  0.4070  1.6309  2.3319
   41MOL   H15115431   0.738   7.091   6.458  1.4492  0.3052 -0.5929
   41MOL   H15215432   0.662   6.841   6.776  0.7670  0.5053  1.4886
   41MOL   H15315433   0.509   6.910   6.839  1.2025  0.1730  1.8040
   41MOL   C15415434   0.686   7.018   6.875 -0.4894  0.1569  0.0911
   41MOL   C15515435   0.750   6.930   6.989 -0.2960  0.1539  0.2442
   41MOL   C15615436   0.883   6.936   7.011  0.0789  0.7937 -1.0469
   41MOL   C15715437   0.944   6.858   7.109 -0.5120 -0.0475 -0.2717
   41MOL   C15815438   0.867   6.770   7.192  0.6317 -0.8352  0.1830
   41MOL   C15915439   0.926   6.679   7.297  0.2055 -0.0625 -0.6298
   41MOL   C16015440   0.728   6.768   7.174  0.3142 -0.1147 -0.4679
   41MOL   C16115441   0.665   6.847   7.071 -0.0040  0.1942  0.6956
   41MOL   C16215442   0.603   7.130   6.948 -0.3066 -0.5199  0.1532
   41MOL   H16315443   0.770   7.060   6.820  1.3404 -1.1884  1.7811
   41MOL   H16415444   0.934   7.008   6.949 -1.4240  0.2839 -2.9218
   41MOL   H16515445   1.051   6.870   7.120 -0.4791  4.0045 -3.6137
   41MOL   H16615446   0.915   6.572   7.277  1.1241  0.0151 -1.5953
   41MOL   H16715447   1.035   6.685   7.301  0.1145  1.1981  0.2804
   41MOL   H16815448   0.892   6.696   7.399 -1.9125  1.6512 -1.5860
   41MOL   H16915449   0.667   6.704   7.237 -0.8341  1.8870  0.5004
   41MOL   H17015450   0.559   6.854   7.055  0.1097 -1.6173 -1.0957
   41MOL   H17115451   0.665   7.156   7.033 -0.5684  2.2591 -0.4696
   41MOL   H17215452   0.507   7.090   6.982 -1.4044  1.0825 -0.9964
   41MOL   C17315453   0.571   7.261   6.869  0.5166 -0.3950 -0.3739
   41MOL   C17415454   0.694   7.326   6.802  1.0822 -0.1478 -0.0281
   41MOL   C17515455   0.679   7.346   6.661  0.3599 -0.2052 -0.0434
   41MOL   C17615456   0.781   7.415   6.590 -0.6343 -0.1003  0.8277
   41MOL   C17715457   0.898   7.463   6.662 -0.3252 -0.1004 -0.9061
   41MOL   C17815458   1.002   7.549   6.588  0.8089  0.1726  0.3851
   41MOL   C17915459   0.905   7.431   6.799  0.3267 -0.8110 -0.4437
   41MOL   C18015460   0.802   7.369   6.872 -0.1855 -0.0050  0.3256
   41MOL   C18115461   0.505   7.365   6.961  0.5167  0.0125 -0.8127
   41MOL   H18215462   0.499   7.244   6.789 -1.0835  2.7132  0.3127
   41MOL   H18315463   0.586   7.321   6.612 -0.2356 -0.7020  1.3059
   41MOL   H18415464   0.763   7.428   6.485  1.4698  0.6828  0.5552
   41MOL   H18515465   0.960   7.643   6.551 -2.0886  0.1077  3.2601
   41MOL   H18615466   1.088   7.561   6.653  1.4220  1.1921 -0.5970
   41MOL   H18715467   1.045   7.501   6.500 -0.9738  0.0624 -0.4595
   41MOL   H18815468   0.996   7.454   6.852  0.2937 -0.1437 -0.6750
   41MOL   H18915469   0.820   7.340   6.975 -1.2336 -1.7471  0.0438
   41MOL   H19015470   0.494   7.458   6.905  1.5743 -0.5395 -1.9559
   41MOL   H19115471   0.579   7.384   7.039 -1.1362  1.4024  0.4616
   41MOL   C19215472   0.366   7.336   7.020  0.5913 -0.3086  0.2667
   41MOL   C19315473   0.264   7.344   6.906 -0.3300 -0.1121 -0.3679
   41MOL   C19415474   0.222   7.455   6.850  0.3329 -0.8908  0.3229
   41MOL   C19515475   0.131   7.457   6.747  0.4648  0.0863  0.0006
   41MOL   C19615476   0.057   7.339   6.724  0.8093 -0.1658  0.5263
   41MOL   C19715477   8.007   7.351   6.644 -0.4674  0.4231 -0.1265
   41MOL   C19815478   0.094   7.220   6.783  0.3199  0.0236  0.2234
   41MOL   C19915479   0.198   7.224   6.871 -0.1501 -0.1943 -0.2061
   41MOL   C20015480   0.329   7.426   7.136  0.2671  0.1959 -0.1071
   41MOL   H20115481   0.357   7.234   7.057  1.0208 -0.6501 -0.5436
   41MOL   H20215482   0.260   7.553   6.875 -1.7627  0.7848 -2.7093
   41MOL   H20315483   0.087   7.547   6.705 -0.8476 -0.8575 -0.7122
   41MOL   H20415484   7.937   7.277   6.684  2.6733 -1.2628  2.4344
   41MOL   H20515485   7.956   7.447   6.640  0.8324  1.0468 -2.5219
   41MOL   H20615486   8.027   7.328   6.539  1.0930  1.8386 -0.1585
   41MOL   H20715487   0.028   7.136   6.766  0.3600 -0.7390  3.4598
   41MOL   H20815488   0.227   7.133   6.921  0.4752  0.6646  1.0337
   41MOL   H20915489   0.220   7.428   7.146  0.4105  0.8198  1.3632
   41MOL   H21015490   0.362   7.527   7.114  1.0341 -0.3726 -1.5971
   41MOL   C21115491   0.387   7.378   7.276 -0.5005 -0.0207 -0.1336
   41MOL   C21215492   0.354   7.235   7.309  0.5766  0.0505  0.1131
   41MOL   C21315493   0.457   7.135   7.299 -0.3442 -0.3364 -0.1417
   41MOL   C21415494   0.424   7.002   7.325  0.3242  0.1977 -0.4742
   41MOL   C21515495   0.298   6.962   7.368 -0.4557 -1.0941 -0.1256
   41MOL   C21615496   0.271   6.822   7.409  0.1906 -0.6486 -0.2509
   41MOL   C21715497   0.195   7.060   7.374 -0.2682 -0.2457 -0.0341
   41MOL   C21815498   0.228   7.197   7.356  0.4891 -0.1773 -0.3284
   41MOL   C21915499   0.345   7.474   7.386  0.9967  0.2096  0.5006
   41MOL   H22015500   0.495   7.382   7.257 -0.5342  2.9125 -0.0253
   41MOL   H22115501   0.556   7.166   7.269  0.2326 -2.1287 -0.1652
   41MOL   H22215502   0.507   6.935   7.312 -0.2338 -0.4514 -0.7428
   41MOL   H22315503   0.198   6.768   7.349 -1.2991 -0.2572  1.1794
   41MOL   H22415504   0.366   6.770   7.398  0.6041  0.1369 -0.4255
   41MOL   H22515505   0.232   6.813   7.511 -2.1078 -0.3410 -1.0781
   41MOL   H22615506   0.094   7.036   7.403 -0.7294  0.2629 -1.1747
   41MOL   H22715507   0.151   7.272   7.362 -0.1407 -0.9172  1.1644
   41MOL   H22815508   0.241   7.451   7.410  1.4476 -1.4010  0.9556
   41MOL   H22915509   0.345   7.578   7.351 -0.3785 -1.1391 -3.7821
   41MOL   C23015510   0.419   7.445   7.522 -0.5587  0.6383 -0.2475
   41MOL   C23115511   0.336   7.477   7.644 -0.0175 -0.0313  0.0701
   41MOL   C23215512   0.335   7.384   7.757  0.2767  0.6032  0.3440
   41MOL   C23315513   0.249   7.415   7.870  0.0765 -0.1615 -0.1714
   41MOL   C23415514   0.170   7.534   7.876 -0.2782  0.1386  0.2584
   41MOL   C23515515   0.068   7.561   7.989  0.3416 -0.5326 -0.5106
   41MOL   C23615516   0.179   7.627   7.770  0.1842  0.2956  0.0613
   41MOL   C23715517   0.260   7.598   7.657  1.0115  0.0218  0.1271
   41MOL   C23815518   0.547   7.532   7.530 -0.2719  0.2861 -0.8364
   41MOL   H23915519   0.446   7.339   7.527 -3.3970 -0.0859  0.5823
   41MOL   H24015520   0.384   7.290   7.742 -0.3486  0.3848 -0.3638
   41MOL   H24115521   0.245   7.353   7.959 -2.5889 -0.6632 -0.6068
   41MOL   H24215522   0.093   7.650   8.047  0.1884 -0.0555 -1.1797
   41MOL   H24315523   8.056   7.574   7.933  0.3096  3.5214  0.3681
   41MOL   H24415524   0.068   7.480   8.062  0.1191  0.7074  0.8830
   41MOL   H24515525   0.113   7.712   7.757  1.2466  0.8679 -1.7852
   41MOL   H24615526   0.254   7.676   7.582 -0.9994  0.1834  0.4279
   41MOL   H24715527   0.568   7.529   7.636  2.7964  3.3084 -1.2538
   41MOL   H24815528   0.524   7.638   7.513 -0.0672  0.7247  1.5524
   41MOL   C24915529   0.675   7.495   7.449  0.6048  0.0119 -0.0962
   41MOL   C25015530   0.729   7.356   7.479  0.1665 -0.2525 -0.0076
   41MOL   C25115531   0.745   7.307   7.610 -0.0554 -0.1385  0.1487
   41MOL   C25215532   0.799   7.180   7.622 -0.0938  0.5801  0.5401
   41MOL   C25315533   0.836   7.097   7.515 -0.2587 -0.4559  0.4898
   41MOL   C25415534   0.885   6.957   7.545 -0.2427 -0.8722 -0.7100
   41MOL   C25515535   0.815   7.145   7.385 -0.1571 -0.3813  0.0924
   41MOL   C25615536   0.771   7.276   7.367 -0.4866 -0.5921 -0.2724
   41MOL   C25715537   0.785   7.596   7.488  0.3485 -0.2142 -0.1576
   41MOL   H25815538   0.644   7.492   7.345 -2.0627 -0.4636  0.6690
   41MOL   H25915539   0.734   7.367   7.699 -1.2469 -0.1150  0.0015
   41MOL   H26015540   0.813   7.136   7.720 -0.5645 -0.1414  0.2813
   41MOL   H26115541   0.807   6.884   7.521  0.6017 -1.7584 -0.8005
   41MOL   H26215542   0.972   6.931   7.485  0.3645  1.2084 -0.7685
   41MOL   H26315543   0.903   6.947   7.652  0.7426  2.2966 -0.5407
   41MOL   H26415544   0.840   7.087   7.297  0.9537  1.1681 -0.6359
   41MOL   H26515545   0.761   7.318   7.268 -2.8369  2.1453  1.0337
   41MOL   H26615546   0.877   7.549   7.453  0.5282  0.0836 -0.0858
   41MOL   H26715547   0.797   7.624   7.593  0.8938  0.4567 -0.3903
   41MOL   C26815548   0.773   7.732   7.411 -0.0046  0.4022 -0.4154
   41MOL   C26915549   0.729   7.721   7.268 -0.0395 -0.8128 -0.1657
   41MOL   C27015550   0.607   7.766   7.233  0.1207 -0.6074  0.0579
   41MOL   C27115551   0.551   7.741   7.103  0.1626  0.1279 -0.0185
   41MOL   C27215552   0.642   7.694   7.003  0.8982  0.2778  0.1430
   41MOL   C27315553   0.601   7.685   6.859 -0.4562 -0.0610 -0.3848
   41MOL   C27415554   0.769   7.648   7.042 -0.1036  0.6618 -0.0708
   41MOL   C27515555   0.806   7.659   7.173  0.1252  0.2891  0.0370
   41MOL   C27615556   0.896   7.839   7.405 -1.2169 -0.3263  0.5677
   41MOL   H27715557   0.711   7.793   7.477 -0.2931  0.8045 -1.0537
   41MOL   H27815558   0.546   7.809   7.311 -2.6473 -2.9621 -0.7329
   41MOL   H27915559   0.449   7.767   7.082  0.4590  0.8968 -0.5438
   41MOL   H28015560   0.508   7.739   6.838 -0.0619  1.2174  1.0509
   41MOL   H28115561   0.676   7.736   6.800 -0.8342  0.4783 -0.4061
   41MOL   H28215562   0.605   7.588   6.811  0.5771 -0.7169  0.9852
   41MOL   H28315563   0.838   7.608   6.970  1.3304  0.4346  1.3846
   41MOL   H28415564   0.904   7.619   7.196 -0.9139 -1.3469  1.8199
   41MOL   H28515565   0.888   7.916   7.482  1.8939  1.0145 -0.3456
   41MOL   H28615566   0.894   7.898   7.313 -0.1437  0.3723  0.9842
   41MOL   C28715567   1.039   7.786   7.437  0.6551 -0.2851  0.9261
   41MOL   C28815568   1.050   7.727   7.576  0.0932  0.1043  0.7388
   41MOL   C28915569   1.070   7.593   7.600  0.5714 -0.4283  0.3577
   41MOL   C29015570   1.059   7.529   7.725  0.0070 -0.3557 -0.1181
   41MOL   C29115571   1.023   7.604   7.842  0.4680  0.9237  0.3529
   41MOL   C29215572   1.012   7.534   7.978  0.0416 -0.4018 -0.3836
   41MOL   C29315573   0.999   7.745   7.822 -0.0996 -0.5722 -0.0161
   41MOL   C29415574   1.014   7.801   7.691  0.0659 -0.4192  0.3466
   41MOL   C29515575   1.139   7.895   7.406  0.2893  0.2798  0.4044
   41MOL   H29615576   1.045   7.695   7.377 -2.4835  0.3720 -0.4502
   41MOL   H29715577   1.090   7.529   7.515  0.8728  0.9135 -0.5910
   41MOL   H29815578   1.072   7.422   7.735 -1.9963 -0.7589 -1.5179
   41MOL   H29915579   0.983   7.592   8.066 -0.9069 -1.7687  0.2311
   41MOL   H30015580   0.940   7.455   7.951 -4.1377  1.9299  3.2845
   41MOL   H30115581   1.107   7.483   7.992  0.1284  0.1471  1.0452
   41MOL   H30215582   0.973   7.819   7.897 -0.6050 -1.9133  1.1471
   41MOL   H30315583   1.002   7.908   7.683  2.2792 -0.1098  0.7070
   41MOL   H30415584   1.206   7.913   7.490  2.4104  3.1591 -1.8084
   41MOL   H30515585   1.088   7.991   7.397  0.5254  0.3792  0.1335
   41MOL   C30615586   1.224   7.865   7.283 -0.2818 -0.5288  0.3368
   41MOL   C30715587   1.349   7.946   7.290  0.0638 -0.1880 -1.1409
   41MOL   C30815588   1.449   7.899   7.385  0.4477 -0.3381 -0.1663
   41MOL   C30915589   1.565   7.971   7.412 -0.4094 -0.6324  0.5094
   41MOL   C31015590   1.583   0.015   7.345 -0.0426  0.6919 -0.1091
   41MOL   C31115591   1.693   0.105   7.386  0.6486 -0.3699  0.4159
   41MOL   C31215592   1.494   0.054   7.240  0.8401 -0.0034  0.2420
   41MOL   C31315593   1.377   8.060   7.213  0.9761  0.7930 -0.2795
   41MOL   C31415594   1.158   7.858   7.146  0.2268 -0.4244 -0.0983
   41MOL   H31515595   1.254   7.761   7.299 -0.6929 -0.5774  0.8321
   41MOL   H31615596   1.429   7.812   7.446  0.8952 -0.3166  0.0093
   41MOL   H31715597   1.624   7.938   7.496 -0.0688  1.6380  1.1856
   41MOL   H31815598   1.755   0.069   7.468  1.5227 -1.1043 -0.5378
   41MOL   H31915599   1.757   0.113   7.297  0.5475 -2.4374  0.1355
   41MOL   H32015600   1.642   0.198   7.407  0.3733 -0.2102 -0.9020
   41MOL   H32115601   1.495   0.153   7.196  1.5023 -0.1750 -0.1281
   41MOL   H32215602   1.296   0.023   7.155 -0.1476  0.5979  1.1093
   41MOL   H32315603   1.109   7.954   7.128  1.1313  0.1736  0.5682
   41MOL   H32415604   1.066   7.800   7.152 -0.2014  0.4296  1.9996
   41MOL   C32515605   1.249   7.832   7.024  0.6075  0.4735  0.1592
   41MOL   C32615606   1.180   7.854   6.892 -0.1408  0.0740 -0.2086
   41MOL   C32715607   1.057   7.793   6.865  0.1584  0.3811 -0.1856
   41MOL   C32815608   0.986   7.837   6.749 -0.5490  0.0392  0.1840
   41MOL   C32915609   1.043   7.930   6.660 -0.6511  0.2694 -0.0878
   41MOL   C33015610   0.969   7.959   6.534  0.0210 -0.1336 -0.1569
   41MOL   C33115611   1.163   7.998   6.692 -0.6256 -0.0023 -0.0482
   41MOL   C33215612   1.232   7.957   6.807  0.0622 -1.1317  0.1292
   41MOL   C33315613   1.326   7.693   7.034  0.5506  0.1059 -0.2929
   41MOL   H33415614   1.326   7.909   7.030  0.5420  0.5511  0.0124
   41MOL   H33515615   1.026   7.708   6.923  2.1045 -0.4221 -0.2667
   41MOL   H33615616   0.892   7.789   6.725 -0.3897  0.5764 -1.5256
   41MOL   H33715617   1.008   8.043   6.476 -0.1686  1.3801  1.8620
   41MOL   H33815618   0.980   7.876   6.464  0.5431 -0.4506  0.2958
   41MOL   H33915619   0.860   7.963   6.537  0.0932  1.1455  1.3104
   41MOL   H34015620   1.208   8.076   6.632  2.5785 -1.3103  0.5774
   41MOL   H34115621   1.321   8.011   6.834 -0.8229 -0.0186  0.8517
   41MOL   H34215622   1.263   7.607   7.061  2.1859 -0.9389  0.2632
   41MOL   H34315623   1.402   7.704   7.112  0.9889 -0.0917 -0.6907
   41MOL   C34415624   1.390   7.648   6.902 -0.0511  0.8535 -0.1724
   41MOL   C34515625   1.445   7.500   6.908  0.0569  0.0295  0.2090
   41MOL   C34615626   1.433   7.424   6.795 -1.0955  0.3094 -0.0426
   41MOL   C34715627   1.471   7.284   6.799 -1.2084 -0.3899  0.0080
   41MOL   C34815628   1.516   7.224   6.924 -0.1864 -0.2984 -0.5359
   41MOL   C34915629   1.550   7.075   6.935  0.4858 -0.5976 -0.1748
   41MOL   C35015630   1.527   7.309   7.036  0.2747  0.1224 -0.7588
   41MOL   C35115631   1.492   7.447   7.030 -0.6832  0.7538  0.5682
   41MOL   C35215632   1.507   7.741   6.866 -0.3221  0.4288  0.9365
   41MOL   H35315633   1.316   7.654   6.822  0.5483  0.8617 -0.7328
   41MOL   H35415634   1.407   7.473   6.703 -0.1865 -1.8358 -1.4929
   41MOL   H35515635   1.476   7.221   6.711 -0.5304 -0.8312  0.3642
   41MOL   H35615636   1.647   7.046   6.975  0.1995  0.8353  1.6301
   41MOL   H35715637   1.495   7.024   7.014 -0.5509  2.1843  0.9903
   41MOL   H35815638   1.525   7.014   6.848  0.8147  0.3798 -0.9739
   41MOL   H35915639   1.546   7.255   7.128  1.8216  0.4217 -0.8993
   41MOL   H36015640   1.490   7.502   7.122 -0.1023 -0.7574  1.5129
   41MOL   H36115641   1.587   7.725   6.938  0.5657  0.0956 -0.0989
   41MOL   H36215642   1.486   7.847   6.883  0.6952  0.8492 -0.3279
   41MOL   C36315643   1.572   7.733   6.725 -0.6196 -0.1960 -0.0216
   41MOL   C36415644   1.705   7.809   6.719  0.6690  0.3700  0.3281
   41MOL   C36515645   1.820   7.744   6.769 -0.4782 -0.1791  0.4173
   41MOL   C36615646   1.943   7.809   6.768  0.0778  0.3084 -0.5862
   41MOL   C36715647   1.956   7.948   6.739 -0.1577 -0.2861  0.8764
   41MOL   C36815648   2.084   8.024   6.767  1.1405 -0.7323  0.2490
   41MOL   C36915649   1.838   8.008   6.698 -0.8642 -0.1423 -0.1599
   41MOL   C37015650   1.708   7.944   6.682  0.0504 -0.3520 -0.2427
   41MOL   C37115651   1.475   7.773   6.612  0.4007  0.3556  0.3016
   41MOL   H37215652   1.589   7.627   6.710  2.6334  0.2720 -0.0238
   41MOL   H37315653   1.816   7.636   6.777  0.5344 -0.1486  1.6124
   41MOL   H37415654   2.035   7.758   6.794 -0.1107  1.2044  1.9444
   41MOL   H37515655   2.077   0.053   6.770 -1.8768 -0.8735  0.1720
   41MOL   H37615656   2.127   8.004   6.865  2.2252  1.2742  0.2163
   41MOL   H37715657   2.169   8.006   6.703  0.5426  0.0858 -0.7908
   41MOL   H37815658   1.836   0.036   6.683 -1.5581 -0.3126 -1.4597
   41MOL   H37915659   1.621   7.997   6.647 -0.9013 -1.6899  0.0409
   41MOL   H38015660   1.395   7.699   6.616  0.5759  0.2222  1.4637
   41MOL   H38115661   1.531   7.755   6.520 -0.8362  1.4045 -0.6731
   41MOL   H38215662   1.429   7.871   6.616 -0.5819 -0.0012 -1.4366
   42MOL     C115663   7.123   4.645   7.820 -0.0720 -0.3934 -0.6221
   42MOL     C215664   7.058   4.753   7.899 -0.8206 -0.6956  1.2581
   42MOL     C315665   6.970   4.716   8.000  0.0864 -0.4620  0.0276
   42MOL     C415666   6.889   4.818   8.056  0.0201 -0.0860 -0.5903
   42MOL     C515667   6.901   4.947   8.009  0.6819 -0.0514  0.4866
   42MOL     C615668   6.824   5.051   0.003 -0.7012 -0.0981 -0.9146
   42MOL     C715669   6.981   4.982   7.905 -0.1824  0.3903 -0.0189
   42MOL     C815670   7.058   4.882   7.842 -0.2643 -0.2580  0.7582
   42MOL     C915671   7.236   4.587   7.912 -0.2382  0.4570  0.4006
   42MOL    H1015672   7.052   4.574   7.778  0.0480  0.3516 -2.1082
   42MOL    H1115673   6.955   4.611   8.021 -2.2454 -0.1799 -0.1370
   42MOL    H1215674   6.812   4.794   0.049 -0.7604  0.3401 -1.2678
   42MOL    H1315675   6.770   5.113   8.011 -1.0120 -0.6948 -1.1982
   42MOL    H1415676   6.740   5.011   0.060 -1.0843  0.9255 -0.7492
   42MOL    H1515677   6.898   5.104   0.062 -1.0728 -0.1756 -0.3804
   42MOL    H1615678   6.999   5.084   7.877  1.9598  0.3049  1.0056
   42MOL    H1715679   7.124   4.904   7.759 -1.1192 -0.5349 -0.0035
   42MOL    H1815680   7.195   4.539   8.000  0.6547 -0.1452  0.4966
   42MOL    H1915681   7.298   4.672   7.943  0.6683 -0.6841  1.7793
   42MOL    H2015682   7.176   4.682   7.732  2.6733 -1.7597  0.3840
   42MOL    C2115683   7.316   4.491   7.815 -0.0704  0.2406  0.1585
   42MOL    C2215684   7.258   4.352   7.819 -0.1126 -0.6542  0.8317
   42MOL    C2315685   7.252   4.280   7.944 -0.2969  0.2959 -0.4401
   42MOL    C2415686   7.197   4.150   7.944 -0.2932 -0.8022 -0.0661
   42MOL    C2515687   7.160   4.089   7.822 -0.3923  0.6019  0.3160
   42MOL    C2615688   7.108   3.943   7.819  0.1080 -0.6452 -0.1917
   42MOL    C2715689   7.184   4.152   7.702  0.1954 -0.0105  0.1627
   42MOL    C2815690   7.227   4.283   7.697 -0.3105  0.3665  0.0676
   42MOL    C2915691   7.474   4.473   7.843  0.0857 -0.9431 -0.2188
   42MOL    H3015692   7.302   4.514   7.709 -0.4735  0.3325  0.2314
   42MOL    H3115693   7.287   4.328   8.035 -1.0454  1.8022 -0.9200
   42MOL    H3215694   7.180   4.100   8.038  0.0934  0.0455  0.4553
   42MOL    H3315695   7.032   3.920   7.745  0.1222 -2.3163  0.2909
   42MOL    H3415696   7.190   3.877   7.790 -0.6639 -2.0416  0.7452
   42MOL    H3515697   7.081   3.912   7.920  0.2109  2.2122  0.7605
   42MOL    H3615698   7.159   4.102   7.610 -1.0687 -0.0824  0.5480
   42MOL    H3715699   7.228   4.333   7.601  2.4971 -0.9840 -0.6621
   42MOL    H3815700   7.513   4.419   7.757 -1.9145 -1.5639 -0.7808
   42MOL    H3915701   7.490   4.407   7.928 -1.5393 -0.6151  0.3755
   42MOL    C4015702   7.553   4.604   7.870  0.0558 -0.5801  0.5835
   42MOL    C4115703   7.547   4.683   7.737 -0.2462  0.0334 -0.1896
   42MOL    C4215704   7.630   4.641   7.634 -0.9420  0.2475 -0.0593
   42MOL    C4315705   7.643   4.715   7.519 -0.0101 -0.2785  0.1085
   42MOL    C4415706   7.566   4.835   7.506  0.2473 -0.0984 -0.4827
   42MOL    C4515707   7.580   4.913   7.373 -0.1838  0.2350 -0.1605
   42MOL    C4615708   7.481   4.880   7.610  1.1891  0.1370 -0.1032
   42MOL    C4715709   7.475   4.803   7.729 -0.5379 -0.0911 -0.0289
   42MOL    C4815710   7.698   4.593   7.928  0.3217 -0.1828  0.3854
   42MOL    H4915711   7.509   4.671   7.944 -0.4685 -1.0703  0.7129
   42MOL    H5015712   7.677   4.544   7.647 -4.0731 -1.2534  0.7950
   42MOL    H5115713   7.710   4.680   7.441  0.0292 -1.8668  0.8243
   42MOL    H5215714   7.500   4.887   7.303  0.4917 -2.5941  0.0610
   42MOL    H5315715   7.583   5.021   7.390 -0.5295  0.2878 -0.4205
   42MOL    H5415716   7.669   4.875   7.322 -0.8443 -0.1561 -1.0494
   42MOL    H5515717   7.444   4.981   7.604  0.9330  0.0666  0.3009
   42MOL    H5615718   7.423   4.837   7.818  0.0444 -2.5205  1.2723
   42MOL    H5715719   7.766   4.669   7.889  0.6469 -0.8699 -0.3834
   42MOL    H5815720   7.750   4.503   7.895  1.0080  0.6159 -0.7377
   42MOL    C5915721   7.719   4.596   0.004 -0.0845  0.0675 -0.4237
   42MOL    C6015722   7.618   4.517   0.077  0.1984  0.3834 -0.2460
   42MOL    C6115723   7.637   4.381   0.097 -0.3685 -0.0845 -0.0140
   42MOL    C6215724   7.550   4.289   0.161  0.0483 -0.6708 -0.8211
   42MOL    C6315725   7.422   4.345   0.202  0.4893 -0.2452 -0.0384
   42MOL    C6415726   7.313   4.251   0.249 -0.4665  0.2263  0.2198
   42MOL    C6515727   7.396   4.483   0.187  0.4203 -0.1212  0.1946
   42MOL    C6615728   7.493   4.565   0.125  0.2876 -0.4503  0.4151
   42MOL    C6715729   7.734   4.740   0.055  0.0455 -0.5132 -0.5257
   42MOL    H6815730   7.818   4.553   0.020  0.0974  0.1652 -1.2647
   42MOL    H6915731   7.727   4.344   0.050  0.8419  1.7639  0.8053
   42MOL    H7015732   7.576   4.185   0.166  0.4893 -0.4825  1.2427
   42MOL    H7115733   7.294   4.178   0.170  1.4791  0.0285 -0.0998
   42MOL    H7215734   7.335   4.203   0.344  1.0634  1.6994  0.6336
   42MOL    H7315735   7.220   4.307   0.255 -0.0565  0.7430  1.9726
   42MOL    H7415736   7.299   4.520   0.217 -1.1874 -1.2061 -3.3953
   42MOL    H7515737   7.468   4.670   0.125 -1.1171 -0.7565  2.1264
   42MOL    H7615738   7.647   4.804   0.037  1.0749  1.5343  1.4832
   42MOL    H7715739   7.806   4.786   8.068 -0.8232 -0.0244 -1.1409
   42MOL    C7815740   7.788   4.752   0.200  0.4966 -0.2989  0.0269
   42MOL    C7915741   7.785   4.901   0.240 -0.6264  0.0480 -0.0699
   42MOL    C8015742   7.739   4.936   0.368 -0.3657 -0.0319 -0.0615
   42MOL    C8115743   7.749   5.071   0.412  1.0256  0.6138 -0.1770
   42MOL    C8215744   7.795   5.169   0.331 -0.0843  0.4800  0.1851
   42MOL    C8315745   7.791   5.306   0.385  0.1330 -0.4173 -0.0403
   42MOL    C8415746   7.849   5.131   0.208 -0.1694 -0.5121  0.0909
   42MOL    C8515747   7.838   5.001   0.157  0.1946  0.1433  0.2081
   42MOL    C8615748   7.933   4.700   0.220 -0.1791 -0.3513 -0.7161
   42MOL    H8715749   7.716   4.699   0.262  1.4237 -0.3894  1.0362
   42MOL    H8815750   7.701   4.859   0.434 -0.7705  0.9177  0.8334
   42MOL    H8915751   7.705   5.097   0.507 -2.3038 -0.0426 -1.4438
   42MOL    H9015752   7.842   5.300   0.481 -0.7051 -0.3228  0.4146
   42MOL    H9115753   7.848   5.379   0.327  2.2009 -0.5884  1.7208
   42MOL    H9215754   7.689   5.342   0.399  0.1366 -0.0908 -0.8546
   42MOL    H9315755   7.894   5.208   0.147 -1.1300 -0.6786 -0.8533
   42MOL    H9415756   7.875   4.980   0.057 -0.6627  2.5739 -0.6650
   42MOL    H9515757   7.989   4.763   0.289  1.6488 -1.0545 -1.5262
   42MOL    H9615758   7.986   4.724   0.128  1.3499  4.1194  1.1762
   42MOL    C9715759   7.946   4.558   0.275  0.6978  0.4027 -0.2885
   42MOL    C9815760   7.888   4.535   0.416  0.5627 -0.4286 -0.5309
   42MOL    C9915761   7.949   4.595   0.528 -0.6676 -0.5333 -0.3044
   42MOL   C10015762   7.904   4.571   0.661  0.0089 -0.3489 -0.5306
   42MOL   C10115763   7.788   4.497   0.680 -0.3014 -0.0946 -0.8969
   42MOL   C10215764   7.741   4.479   0.823 -0.3367  0.4327  0.6975
   42MOL   C10315765   7.721   4.443   0.570  0.3074 -0.3595 -0.3578
   42MOL   C10415766   7.778   4.451   0.440  0.0055 -1.4031  0.4174
   42MOL   C10515767   0.015   4.513   0.273  0.7516 -0.0171 -0.2065
   42MOL   H10615768   7.895   4.479   0.220 -1.4567  0.6442  1.2583
   42MOL   H10715769   8.031   4.664   0.518 -0.5577 -0.6478 -0.1919
   42MOL   H10815770   7.953   4.613   0.748  1.7974 -1.4194 -1.0162
   42MOL   H10915771   7.784   4.410   0.897  0.7439  1.4520  1.0480
   42MOL   H11015772   7.756   4.583   0.854  0.4057  0.7835 -0.7922
   42MOL   H11115773   7.633   4.467   0.825 -0.0888 -1.9511  1.9617
   42MOL   H11215774   7.634   4.381   0.589 -0.3165  0.5050 -0.3462
   42MOL   H11315775   7.724   4.407   0.358  1.3415  2.8585 -2.9826
   42MOL   H11415776   0.037   4.434   0.344 -0.4084  1.8288  2.2830
   42MOL   H11515777   0.087   4.587   0.308  1.0796 -0.6751  0.5057
   42MOL   C11615778   0.058   4.453   0.138  0.0718  0.1019 -0.3875
   42MOL   C11715779   8.049   4.329   0.108 -0.7387  0.0762 -0.8111
   42MOL   C11815780   8.012   4.240   0.212  0.6734  0.2904  0.6320
   42MOL   C11915781   7.925   4.129   0.184  0.4368 -0.2811 -0.1608
   42MOL   C12015782   7.885   4.110   0.049  0.4053 -0.6326  0.4621
   42MOL   C12115783   7.798   3.990   0.014 -0.0404 -0.1845  0.5621
   42MOL   C12215784   7.921   4.206   8.031 -0.1878 -0.4130 -0.2209
   42MOL   C12315785   8.006   4.307   8.061 -0.5275  0.1952  0.0802
   42MOL   C12415786   0.211   4.434   0.140 -0.6220  0.5325 -0.0534
   42MOL   H12515787   0.025   4.527   0.064 -0.0960 -0.2671 -0.6853
   42MOL   H12615788   8.042   4.248   0.315  0.2189 -1.3632  0.8918
   42MOL   H12715789   7.904   4.057   0.261  2.3563  0.1469  0.7928
   42MOL   H12815790   7.754   3.951   0.105 -2.8772 -0.3720 -0.8420
   42MOL   H12915791   7.719   4.022   8.025 -1.4215 -1.5504  1.4897
   42MOL   H13015792   7.861   3.911   8.052  1.0575  0.2631  1.3334
   42MOL   H13115793   7.882   4.204   7.930 -0.8260 -0.0869  0.0101
   42MOL   H13215794   8.035   4.366   7.975 -0.0419 -2.5664 -1.7415
   42MOL   H13315795   0.264   4.513   0.193  0.6233 -1.5550  1.8984
   42MOL   H13415796   0.247   4.445   0.037  0.6472 -2.2520  0.0400
   42MOL   C13515797   0.261   4.299   0.188 -0.7797 -0.2324  0.2645
   42MOL   C13615798   0.273   4.283   0.342  0.2041 -0.0818  0.1489
   42MOL   C13715799   0.313   4.385   0.427  0.6439 -0.1369 -0.3358
   42MOL   C13815800   0.348   4.365   0.563 -0.0707  0.0338 -0.0263
   42MOL   C13915801   0.353   4.235   0.607  0.0635 -0.1250 -0.0178
   42MOL   C14015802   0.402   4.210   0.746  0.4256  1.0158 -0.8671
   42MOL   C14115803   0.309   4.126   0.528 -0.6451  0.0874  0.1574
   42MOL   C14215804   0.269   4.153   0.397  0.5496  0.4047 -0.4093
   42MOL   C14315805   0.392   4.258   0.125 -0.3832 -0.2554  0.3298
   42MOL   H14415806   0.198   4.224   0.139 -0.2368  0.3121 -1.3224
   42MOL   H14515807   0.330   4.488   0.399  0.3370 -0.0780 -0.3098
   42MOL   H14615808   0.359   4.451   0.628  1.8355 -1.4117  1.6050
   42MOL   H14715809   0.318   4.195   0.813  0.2274 -1.5306 -1.6433
   42MOL   H14815810   0.476   4.130   0.751 -0.1343  0.4474 -1.6512
   42MOL   H14915811   0.463   4.298   0.771  1.3494  0.5793 -1.5327
   42MOL   H15015812   0.325   4.031   0.576  1.3900  1.1901  1.7217
   42MOL   H15115813   0.231   4.070   0.339 -4.1935  1.3076  1.1805
   42MOL   H15215814   0.404   4.158   0.167  0.6395  0.4938  1.8538
   42MOL   H15315815   0.473   4.321   0.164 -0.2474 -0.4572  0.3789
   42MOL   C15415816   0.416   4.250   8.056 -0.9334  0.5738 -0.1823
   42MOL   C15515817   0.307   4.163   7.989  0.5049 -0.4082 -0.5288
   42MOL   C15615818   0.294   4.029   8.024 -0.0793  0.0451  0.0351
   42MOL   C15715819   0.193   3.947   7.966  0.4381 -0.5050  0.5572
   42MOL   C15815820   0.107   4.004   7.872  0.1419 -0.0753 -0.1353
   42MOL   C15915821   8.074   3.908   7.821  0.1005  0.3971 -0.0112
   42MOL   C16015822   0.125   4.131   7.827 -0.2715 -0.0812  0.0418
   42MOL   C16115823   0.228   4.213   7.885  0.0581  0.7560  0.7101
   42MOL   C16215824   0.554   4.186   8.038  0.4972  0.0934 -0.6613
   42MOL   H16315825   0.418   4.348   8.009  0.6289  0.1390 -1.0741
   42MOL   H16415826   0.362   3.992   0.019  0.6259  1.2877  0.0227
   42MOL   H16515827   0.183   3.842   7.989  1.4219 -0.8322 -0.4949
   42MOL   H16615828   8.042   3.840   7.899 -1.4891  0.0546 -0.9219
   42MOL   H16715829   7.995   3.968   7.776  0.1445  0.6640  0.2653
   42MOL   H16815830   0.032   3.850   7.737  0.9255  0.9452 -0.0248
   42MOL   H16915831   0.062   4.178   7.754 -0.2951  1.6968  1.1574
   42MOL   H17015832   0.244   4.317   7.860  1.8054  0.0849 -1.1369
   42MOL   H17115833   0.563   4.162   7.933  0.0472  2.0561 -1.1785
   42MOL   H17215834   0.556   4.094   0.017 -1.8658  1.2077  1.3011
   42MOL   C17315835   0.677   4.277   8.067  0.0158 -0.5034  0.1886
   42MOL   C17415836   0.670   4.404   7.986  0.3016 -0.5742  0.2812
   42MOL   C17515837   0.642   4.401   7.845  0.8636  0.6803 -0.8812
   42MOL   C17615838   0.649   4.517   7.767 -0.6663 -0.3089 -0.5083
   42MOL   C17715839   0.677   4.641   7.832  0.4511  0.2995  0.2324
   42MOL   C17815840   0.675   4.767   7.753 -0.0108  0.2833 -0.1744
   42MOL   C17915841   0.696   4.647   7.969  0.2381  0.5821  0.8410
   42MOL   C18015842   0.688   4.531   8.046  0.1842  0.0852 -0.9747
   42MOL   C18115843   0.817   4.213   8.038  0.2205 -0.9780  0.9784
   42MOL   H18215844   0.672   4.299   0.094  0.0966  1.1687 -0.1386
   42MOL   H18315845   0.618   4.308   7.795 -1.4607  0.4055  0.6763
   42MOL   H18415846   0.637   4.503   7.661 -1.1682 -1.0540 -0.3521
   42MOL   H18515847   0.749   4.763   7.673  1.8481 -2.3863  1.5904
   42MOL   H18615848   0.573   4.795   7.726 -0.7834 -0.7735  1.6132
   42MOL   H18715849   0.711   4.850   7.815  0.3473 -0.7540  1.0175
   42MOL   H18815850   0.734   4.732   8.024  0.3879  1.6489 -0.8734
   42MOL   H18915851   0.720   4.541   0.069  0.5217 -0.1221 -1.0597
   42MOL   H19015852   0.884   4.298   8.055  0.4985 -0.7086 -1.2593
   42MOL   H19115853   0.819   4.182   7.934  0.7380 -0.3532  0.7908
   42MOL   C19215854   0.848   4.082   0.040 -0.4407  0.0743 -0.6827
   42MOL   C19315855   0.813   4.099   0.190 -0.7248  0.6228  0.3806
   42MOL   C19415856   0.701   4.031   0.247  0.0446 -0.2706 -0.7702
   42MOL   C19515857   0.668   4.046   0.388 -0.7816 -0.0990 -0.0957
   42MOL   C19615858   0.756   4.120   0.473 -0.0468 -0.6447  0.4509
   42MOL   C19715859   0.723   4.120   0.620 -0.6186 -0.2120 -0.4215
   42MOL   C19815860   0.875   4.187   0.413  0.4767 -0.3952  0.1292
   42MOL   C19915861   0.892   4.184   0.273 -0.2130  0.3916 -0.0044
   42MOL   C20015862   0.985   4.040   0.022 -0.4028 -0.5482 -0.2101
   42MOL   H20115863   0.780   4.005   0.004  1.1392 -0.9893 -1.4482
   42MOL   H20215864   0.626   3.982   0.186 -1.7314  2.4266 -0.8329
   42MOL   H20315865   0.575   4.008   0.427  0.0028 -1.6618  0.2865
   42MOL   H20415866   0.691   4.022   0.656  2.0931 -0.5836  1.1895
   42MOL   H20515867   0.803   4.156   0.685 -0.4049 -2.3325  0.5619
   42MOL   H20615868   0.646   4.195   0.635 -0.2836 -0.5347  3.6947
   42MOL   H20715869   0.948   4.241   0.472  1.1460 -0.8869 -0.2460
   42MOL   H20815870   0.977   4.233   0.229  1.4490 -0.5788  2.0536
   42MOL   H20915871   1.031   3.971   0.093  0.1282 -0.3337 -0.3465
   42MOL   H21015872   1.047   4.129   0.030 -0.0360 -0.8270  0.0480
   42MOL   C21115873   1.008   3.965   7.970  0.8199 -0.1543  0.2927
   42MOL   C21215874   0.992   3.807   7.982  0.1591 -0.1372  0.0865
   42MOL   C21315875   1.099   3.722   8.026  0.1867  0.2270  1.4141
   42MOL   C21415876   1.079   3.578   8.039 -0.5777 -0.0336  0.5426
   42MOL   C21515877   0.959   3.519   8.003  0.4121 -0.3696  0.4213
   42MOL   C21615878   0.935   3.369   8.019  0.3253  0.4902  0.2148
   42MOL   C21715879   0.857   3.607   7.956 -0.2221  0.5104 -0.1082
   42MOL   C21815880   0.871   3.748   7.952  0.4281  0.7872  0.0242
   42MOL   C21915881   1.144   4.002   7.918 -0.9350 -0.0352 -0.1316
   42MOL   H22015882   0.932   4.003   7.901  1.2343  0.4510  0.1657
   42MOL   H22115883   1.195   3.765   8.050  0.5966 -0.6384  1.3482
   42MOL   H22215884   1.173   3.529   8.062  0.5564  0.5415 -2.5792
   42MOL   H22315885   0.845   3.343   8.076  0.0532 -0.9893 -0.8420
   42MOL   H22415886   0.936   3.323   7.920  0.0240 -1.3798  1.0426
   42MOL   H22515887   1.010   3.319   8.080  0.4207  0.6262  0.2085
   42MOL   H22615888   0.760   3.570   7.926  0.1991  0.6872 -1.7436
   42MOL   H22715889   0.791   3.813   7.922  0.4890 -0.5889 -3.3116
   42MOL   H22815890   1.174   3.918   7.855  0.5453 -1.5857  2.5060
   42MOL   H22915891   1.226   4.004   7.990  1.8273 -0.3706 -3.1704
   42MOL   C23015892   1.147   4.124   7.829  0.1920 -0.0781 -0.0045
   42MOL   C23115893   1.067   4.109   7.696  0.1247  0.0855 -0.3302
   42MOL   C23215894   1.119   4.039   7.587  0.5727 -0.0560  0.3528
   42MOL   C23315895   1.045   4.015   7.463 -0.0213  0.1072 -0.3345
   42MOL   C23415896   0.913   4.063   7.458 -0.1214 -0.1728 -0.5105
   42MOL   C23515897   0.822   4.044   7.340  0.1655  0.5466  0.1342
   42MOL   C23615898   0.861   4.140   7.567  0.6323 -0.2179  0.0012
   42MOL   C23715899   0.945   4.173   7.678 -0.5381  0.9429  0.1322
   42MOL   C23815900   1.294   4.179   7.808 -0.5098  0.2383 -0.5703
   42MOL   H23915901   1.081   4.193   7.881  1.7965  1.3925  0.1252
   42MOL   H24015902   1.220   4.002   7.597  0.0488 -1.4448  0.6311
   42MOL   H24115903   1.082   3.947   7.388  0.6253 -1.1745  1.0950
   42MOL   H24215904   0.761   4.132   7.318 -0.0025  0.5913  0.7618
   42MOL   H24315905   0.891   4.027   7.258  0.0568  1.8133 -0.2358
   42MOL   H24415906   0.764   3.953   7.354 -1.3696  0.6569 -4.6189
   42MOL   H24515907   0.766   4.191   7.558  1.8686  1.8171 -1.6615
   42MOL   H24615908   0.894   4.235   7.750 -2.6281  0.6956 -1.0904
   42MOL   H24715909   1.295   4.256   7.731 -2.4326  1.1973  0.3346
   42MOL   H24815910   1.357   4.098   7.771 -1.4136 -0.8053  0.1472
   42MOL   C24915911   1.360   4.258   7.928 -0.0175  0.2930  0.2781
   42MOL   C25015912   1.267   4.331   8.020 -0.3164  0.2183  0.7667
   42MOL   C25115913   1.205   4.449   7.979  0.0044  0.7352 -0.0946
   42MOL   C25215914   1.117   4.526   8.065  0.1327  0.7557  0.0076
   42MOL   C25315915   1.124   4.501   0.125 -0.0923  1.0599 -0.0354
   42MOL   C25415916   1.049   4.592   0.218  0.1325 -0.1981  0.1925
   42MOL   C25515917   1.201   4.386   0.174  0.0748 -0.0461  0.0527
   42MOL   C25615918   1.269   4.297   0.082 -0.5074 -0.7338 -0.2596
   42MOL   C25715919   1.471   4.359   7.883  0.2365  0.1500 -0.1445
   42MOL   H25815920   1.417   4.187   7.988  1.1510  1.2509  0.3201
   42MOL   H25915921   1.213   4.477   7.875  1.5640 -0.0804 -0.2066
   42MOL   H26015922   1.072   4.619   8.034 -1.5124 -0.3031 -0.9081
   42MOL   H26115923   1.076   4.695   0.195 -1.2538  0.6502  2.1508
   42MOL   H26215924   0.944   4.592   0.190 -0.0556  0.1883  0.8760
   42MOL   H26315925   1.052   4.569   0.325 -0.8066  0.5828  0.3939
   42MOL   H26415926   1.185   4.361   0.278 -0.7894  0.4114  0.0378
   42MOL   H26515927   1.319   4.208   0.117  0.4362  0.0154  0.3344
   42MOL   H26615928   1.507   4.415   7.969 -0.9028 -0.9789  1.0790
   42MOL   H26715929   1.422   4.429   7.815  1.1128 -1.6218 -2.6766
   42MOL   C26815930   1.591   4.294   7.817 -0.6347  0.2503  0.1026
   42MOL   C26915931   1.670   4.211   7.915  0.2022 -0.7364 -0.3250
   42MOL   C27015932   1.678   4.068   7.908 -0.4588 -0.3462 -0.1674
   42MOL   C27115933   1.777   3.999   7.985  0.0114 -0.3529  0.5180
   42MOL   C27215934   1.872   4.071   8.066  0.6768 -0.0136  0.2973
   42MOL   C27315935   1.981   3.995   0.057 -0.5597  0.2560 -0.6018
   42MOL   C27415936   1.860   4.211   8.080 -0.1909  0.3064 -0.3807
   42MOL   C27515937   1.756   4.277   8.013  0.6782  0.0392 -0.5113
   42MOL   C27615938   1.682   4.401   7.744  0.1201 -0.2517  0.0270
   42MOL   H27715939   1.559   4.226   7.738 -1.4091  0.2103  0.4434
   42MOL   H27815940   1.622   4.007   7.838  0.8751  1.1297 -2.5538
   42MOL   H27915941   1.781   3.892   7.974 -0.2286 -0.2893 -0.1755
   42MOL   H28015942   2.033   3.936   8.061 -1.5849  0.9640 -1.8844
   42MOL   H28115943   2.040   4.057   0.124 -4.0808 -0.1397  3.0067
   42MOL   H28215944   1.925   3.931   0.125 -1.0833 -0.5376 -1.7482
   42MOL   H28315945   1.928   4.260   0.068 -0.2450  1.1834 -0.9546
   42MOL   H28415946   1.749   4.384   8.027 -0.2434  0.1080 -1.3639
   42MOL   H28515947   1.704   4.470   7.826 -0.3062 -1.1147  0.8720
   42MOL   H28615948   1.622   4.456   7.671  0.0768 -1.9314 -1.2254
   42MOL   C28715949   1.823   4.356   7.693 -0.6683  0.7482 -0.0599
   42MOL   C28815950   1.894   4.480   7.632 -0.1656  0.3902  0.3092
   42MOL   C28915951   1.857   4.538   7.508 -0.3641 -0.1301  0.2766
   42MOL   C29015952   1.934   4.639   7.448 -0.5715  0.5947  0.5127
   42MOL   C29115953   2.039   4.692   7.526 -0.3120  0.0853  0.6011
   42MOL   C29215954   2.132   4.789   7.464 -0.6456 -0.4059 -0.5909
   42MOL   C29315955   2.066   4.646   7.657 -0.1635 -0.2279  0.4265
   42MOL   C29415956   2.009   4.529   7.708  0.4452  0.1361  0.4513
   42MOL   C29515957   1.801   4.241   7.596  0.0608  0.4075  0.5425
   42MOL   H29615958   1.888   4.322   7.774  0.9601  1.5779 -0.9893
   42MOL   H29715959   1.772   4.499   7.453 -1.8343  1.8350  1.1085
   42MOL   H29815960   1.909   4.671   7.348 -0.7049 -1.3377 -0.1063
   42MOL   H29915961   2.077   4.860   7.401 -0.1492 -0.3478 -0.9628
   42MOL   H30015962   2.179   4.839   7.549  0.7426  0.0981 -1.6230
   42MOL   H30115963   2.209   4.738   7.406  0.2133  0.6319 -0.3872
   42MOL   H30215964   2.152   4.687   7.708 -0.4810  1.8163 -0.6448
   42MOL   H30315965   2.036   4.487   7.804  2.4115 -1.2973 -0.7137
   42MOL   H30415966   1.747   4.269   7.505  1.7031 -2.0146 -1.2814
   42MOL   H30515967   1.731   4.165   7.631  2.5827 -2.0260  0.5276
   42MOL   C30615968   1.932   4.160   7.562  0.4263  0.1688 -0.4999
   42MOL   C30715969   1.970   4.162   7.409  0.3425 -0.9635 -0.0903
   42MOL   C30815970   2.090   4.236   7.377 -0.2234  0.0040  0.3560
   42MOL   C30915971   2.138   4.242   7.244  0.0481  0.3393  0.6151
   42MOL   C31015972   2.067   4.174   7.147  0.1770 -0.3804  0.7078
   42MOL   C31115973   2.110   4.172   7.002  0.7460 -0.6380 -0.5956
   42MOL   C31215974   1.945   4.112   7.172 -0.0834  0.3456 -0.5932
   42MOL   C31315975   1.896   4.106   7.303  0.2966  0.5533 -0.6342
   42MOL   C31415976   1.905   4.016   7.610 -0.8067  0.6253  0.4380
   42MOL   H31515977   2.017   4.191   7.622 -0.6724 -1.0710  1.7387
   42MOL   H31615978   2.151   4.285   7.451  0.1474 -0.7903  0.5810
   42MOL   H31715979   2.231   4.294   7.221  0.1318 -1.0532 -2.5602
   42MOL   H31815980   2.032   4.120   6.946 -0.9721 -0.8651  1.9207
   42MOL   H31915981   2.127   4.269   6.957 -1.5056 -0.4301 -1.0476
   42MOL   H32015982   2.203   4.117   6.983  1.0844 -0.7391  1.2557
   42MOL   H32115983   1.897   4.062   7.090 -1.0926 -0.2512  0.3460
   42MOL   H32215984   1.796   4.068   7.318  0.6594 -0.9955 -2.0744
   42MOL   H32315985   1.827   3.986   7.540  0.8845  1.3563 -1.8349
   42MOL   H32415986   1.873   4.016   7.714  1.2004  0.2327  1.0799
   42MOL   C32515987   2.024   3.924   7.600  0.1936  0.8161  0.4532
   42MOL   C32615988   1.965   3.776   7.607 -0.0742  0.5668 -0.2994
   42MOL   C32715989   1.876   3.719   7.704 -0.0021 -0.6440 -0.1168
   42MOL   C32815990   1.839   3.585   7.708  0.6251  0.0053 -0.3340
   42MOL   C32915991   1.885   3.495   7.611 -0.4023 -0.1863  0.1632
   42MOL   C33015992   1.856   3.344   7.611 -0.7972 -0.4765  0.8613
   42MOL   C33115993   1.970   3.546   7.513  0.0757 -0.1618 -0.4920
   42MOL   C33215994   2.007   3.684   7.508  0.9365  0.2650 -0.5669
   42MOL   C33315995   2.120   3.937   7.724 -0.2134 -0.0814  0.3369
   42MOL   H33415996   2.070   3.933   7.501 -0.1165 -3.1118 -0.1333
   42MOL   H33515997   1.837   3.783   7.782  2.0703  1.4923 -0.7846
   42MOL   H33615998   1.765   3.553   7.780  0.7650  0.7834  0.1649
   42MOL   H33715999   1.845   3.306   7.510 -0.2422 -1.1858  1.0642
   42MOL   H33816000   1.941   3.284   7.643 -1.0858 -1.7008 -0.6352
   42MOL   H33916001   1.772   3.314   7.675 -1.0087 -0.5811  0.5335
   42MOL   H34016002   2.015   3.477   7.443  1.1172  1.9579 -1.9579
   42MOL   H34116003   2.078   3.713   7.432  1.5362  0.4148  0.0466
   42MOL   H34216004   2.067   3.893   7.808 -1.2574  0.3908 -0.0587
   42MOL   H34316005   2.128   4.041   7.758 -1.2400  0.1594 -0.1186
   42MOL   C34416006   2.260   3.867   7.701  0.2248  0.7638 -0.4455
   42MOL   C34516007   2.343   3.852   7.825 -0.1024 -0.5435  0.9255
   42MOL   C34616008   2.403   3.730   7.859 -0.1449  0.4376  0.3040
   42MOL   C34716009   2.498   3.719   7.965  0.0450  0.4041 -0.1596
   42MOL   C34816010   2.531   3.838   8.040  0.1531 -0.0922  0.4089
   42MOL   C34916011   2.644   3.852   0.057 -0.3972  0.2896 -0.0722
   42MOL   C35016012   2.468   3.960   8.007  0.9004  0.2348 -0.7706
   42MOL   C35116013   2.383   3.967   7.895  0.4137 -0.9392 -0.0836
   42MOL   C35216014   2.333   3.945   7.592  0.6241 -0.2741  0.2624
   42MOL   H35316015   2.257   3.765   7.664  1.8375  0.4383  0.3140
   42MOL   H35416016   2.380   3.651   7.788  2.7155  1.7422 -2.2083
   42MOL   H35516017   2.539   3.621   7.987 -2.3946 -0.9917 -1.6808
   42MOL   H35616018   2.707   3.941   0.054 -1.8627  1.3313 -0.0973
   42MOL   H35716019   2.604   3.841   0.157 -1.6303 -1.6655 -0.7536
   42MOL   H35816020   2.705   3.762   0.046 -0.3990  0.2650  0.1233
   42MOL   H35916021   2.490   4.055   8.052  1.1125 -0.2653  0.2065
   42MOL   H36016022   2.344   4.062   7.861  2.4188 -0.4243 -1.0142
   42MOL   H36116023   2.306   4.050   7.601 -0.3196 -0.4977  0.0951
   42MOL   H36216024   2.275   3.915   7.504 -0.7027  2.1896  0.2577
   42MOL   C36316025   2.481   3.933   7.562 -0.0672 -0.3078 -0.6255
   42MOL   C36416026   2.515   4.024   7.446  0.5558  0.8604  0.2099
   42MOL   C36516027   2.459   4.005   7.320 -0.4156  0.6618  0.7290
   42MOL   C36616028   2.480   4.102   7.217 -0.3787  0.3991  0.5856
   42MOL   C36716029   2.544   4.224   7.252 -0.4068  0.4265 -1.0068
   42MOL   C36816030   2.549   4.336   7.155 -0.4733  0.1138 -0.1397
   42MOL   C36916031   2.601   4.237   7.380  0.4406 -0.4927 -0.1642
   42MOL   C37016032   2.584   4.139   7.476  0.3821 -0.1270 -0.5959
   42MOL   C37116033   2.537   3.787   7.520  0.2082 -0.4601  0.5573
   42MOL   H37216034   2.527   3.961   7.657 -2.5721  3.2833 -0.3911
   42MOL   H37316035   2.396   3.918   7.309  1.6582 -0.8875  0.8123
   42MOL   H37416036   2.439   4.085   7.118  2.0414 -0.6375 -0.2829
   42MOL   H37516037   2.586   4.302   7.059 -0.8288 -0.2073 -0.1636
   42MOL   H37616038   2.453   4.387   7.146 -0.8277  0.1705  3.1995
   42MOL   H37716039   2.615   4.417   7.186  0.6214 -0.9414  0.3092
   42MOL   H37816040   2.669   4.316   7.408  1.8486 -1.0634 -1.8846
   42MOL   H37916041   2.630   4.141   7.573  1.2789 -0.3909 -1.0041
   42MOL   H38016042   2.492   3.752   7.427 -1.4764  0.3827  1.0344
   42MOL   H38116043   2.519   3.708   7.593  0.3319 -0.7604  0.2652
   42MOL   H38216044   2.642   3.777   7.495  0.0072 -1.2491  0.0339
   43MOL     C116045   3.343   1.831   1.550 -0.5458  0.3012  0.1478
   43MOL     C216046   3.220   1.918   1.532  0.1352  0.6237  0.1035
   43MOL     C316047   3.177   1.955   1.403 -0.9142  0.4560  0.5527
   43MOL     C416048   3.057   2.023   1.390  0.2068  0.3153  0.5180
   43MOL     C516049   2.981   2.075   1.497  0.2101 -0.0005  0.6763
   43MOL     C616050   2.867   2.166   1.473 -0.1320  0.7472  0.1466
   43MOL     C716051   3.031   2.052   1.623 -0.5064  0.6234 -0.0674
   43MOL     C816052   3.137   1.960   1.638 -0.4066 -0.2464 -0.2438
   43MOL     C916053   3.434   1.896   1.654  0.1200  0.5227 -0.1698
   43MOL    H1016054   3.304   1.734   1.579 -3.3192  0.4943 -2.6922
   43MOL    H1116055   3.239   1.933   1.317 -0.1980  0.0146  1.1787
   43MOL    H1216056   3.017   2.042   1.292  1.5577 -0.4947 -0.2050
   43MOL    H1316057   2.869   2.213   1.375 -0.9926  2.2951  0.8599
   43MOL    H1416058   2.766   2.126   1.480  0.7080 -1.6552 -0.8652
   43MOL    H1516059   2.877   2.248   1.544  0.3954 -0.3004  1.2909
   43MOL    H1616060   2.980   2.094   1.709 -1.3829 -0.6214  0.0379
   43MOL    H1716061   3.153   1.923   1.739  0.0565 -1.4275 -0.7462
   43MOL    H1816062   3.379   1.874   1.746 -1.1379 -0.0560 -1.0378
   43MOL    H1916063   3.425   2.005   1.660  2.7722  0.8605 -1.6571
   43MOL    H2016064   3.381   1.813   1.449 -0.1486 -0.1040  0.3708
   43MOL    C2116065   3.588   1.854   1.654 -0.3181  0.1985 -0.5467
   43MOL    C2216066   3.616   1.704   1.672  0.7735 -0.1894 -0.4633
   43MOL    C2316067   3.685   1.624   1.575  0.4725 -0.9517 -0.0477
   43MOL    C2416068   3.713   1.487   1.605  0.6775 -0.7112  0.4193
   43MOL    C2516069   3.672   1.430   1.727  0.4028 -0.0593 -0.0259
   43MOL    C2616070   3.706   1.289   1.761 -0.7753 -0.4912 -0.6602
   43MOL    C2716071   3.596   1.508   1.811 -0.5904 -0.0360 -0.3242
   43MOL    C2816072   3.580   1.647   1.795 -0.3692 -0.1164  0.6606
   43MOL    C2916073   3.665   1.941   1.756 -0.0858 -0.5064  0.4520
   43MOL    H3016074   3.627   1.873   1.554 -1.4366 -0.0836 -1.0418
   43MOL    H3116075   3.726   1.670   1.487  1.4401 -3.1229 -0.7604
   43MOL    H3216076   3.771   1.430   1.534  0.2000 -0.8725  0.1569
   43MOL    H3316077   3.810   1.272   1.733 -0.6445  0.0076 -0.4863
   43MOL    H3416078   3.674   1.265   1.862  0.0270 -0.3364 -0.3623
   43MOL    H3516079   3.654   1.219   1.696 -4.7492 -0.3890  2.2594
   43MOL    H3616080   3.564   1.456   1.900 -1.5347 -0.9227 -1.1604
   43MOL    H3716081   3.525   1.711   1.861  1.0149  2.6749 -0.7883
   43MOL    H3816082   3.639   1.926   1.861  2.2536  1.3281  1.3226
   43MOL    H3916083   3.639   2.045   1.738  1.0125 -0.4498 -0.8709
   43MOL    C4016084   3.813   1.915   1.756  0.0808 -0.7185 -0.2301
   43MOL    C4116085   3.886   1.988   1.874  0.3048  0.3210 -0.7113
   43MOL    C4216086   3.846   2.114   1.920  0.4057  0.5209  0.1493
   43MOL    C4316087   3.919   2.183   2.016 -0.8663  0.1717 -0.2924
   43MOL    C4416088   4.038   2.124   2.070  0.3862 -0.2497 -0.1853
   43MOL    C4516089   4.114   2.205   2.176  0.0577 -0.9045 -0.3065
   43MOL    C4616090   4.081   1.997   2.027  0.3569 -0.0576 -0.5197
   43MOL    C4716091   4.006   1.928   1.928  0.4822  0.2720  0.6809
   43MOL    C4816092   3.898   1.952   1.621  0.0231 -0.2430 -0.3384
   43MOL    H4916093   3.838   1.812   1.778  1.2966 -0.3790  0.0393
   43MOL    H5016094   3.759   2.161   1.875  0.0511 -1.0523 -0.8524
   43MOL    H5116095   3.876   2.278   2.045 -1.0160  0.2393 -0.7278
   43MOL    H5216096   4.065   2.207   2.274  1.7645  0.0766  0.5525
   43MOL    H5316097   4.216   2.167   2.177 -0.5922 -2.7111  2.4183
   43MOL    H5416098   4.131   2.307   2.143 -0.4906  0.2559  2.8274
   43MOL    H5516099   4.161   1.952   2.083  0.8018  2.9761  1.3547
   43MOL    H5616100   4.034   1.827   1.900 -0.0338  0.6457 -1.3079
   43MOL    H5716101   3.857   1.908   1.530 -1.6726  1.4308 -0.4040
   43MOL    H5816102   3.989   1.892   1.627  1.1768  1.6472  1.6006
   43MOL    C5916103   3.932   2.107   1.596 -0.9021 -0.3921 -0.0609
   43MOL    C6016104   3.805   2.187   1.579  0.2090 -0.5664  0.6647
   43MOL    C6116105   3.796   2.300   1.654 -0.3394 -0.5203  0.0618
   43MOL    C6216106   3.676   2.378   1.652 -0.0205 -0.2370  0.0403
   43MOL    C6316107   3.570   2.337   1.567  0.8013  0.1784  0.1135
   43MOL    C6416108   3.440   2.406   1.562  0.2186  0.4795  0.1202
   43MOL    C6516109   3.587   2.225   1.491  0.7259  1.0809 -0.6352
   43MOL    C6616110   3.701   2.148   1.493 -0.1929 -0.4627  1.2621
   43MOL    C6716111   4.025   2.124   1.476  0.4437  0.2142  0.3239
   43MOL    H6816112   3.979   2.135   1.689  0.6333 -0.1692 -0.8902
   43MOL    H6916113   3.882   2.331   1.712  0.8863 -3.3908 -0.1387
   43MOL    H7016114   3.665   2.470   1.708  1.3129 -1.1606  1.8630
   43MOL    H7116115   3.411   2.409   1.457 -0.8970  1.6843  0.4427
   43MOL    H7216116   3.363   2.351   1.617  0.3224  0.8299  0.6233
   43MOL    H7316117   3.432   2.504   1.609 -2.9282 -0.0364  0.7996
   43MOL    H7416118   3.510   2.189   1.423  1.3395  2.5086 -2.1168
   43MOL    H7516119   3.716   2.070   1.420  0.8681  1.1651 -0.3099
   43MOL    H7616120   4.021   2.226   1.439  2.1093  0.1354 -0.0747
   43MOL    H7716121   3.995   2.067   1.387  0.6395  1.1655 -0.3582
   43MOL    C7816122   4.175   2.081   1.507 -0.0929 -0.2906 -1.0799
   43MOL    C7916123   4.236   2.192   1.590  0.0212  0.1991  0.5400
   43MOL    C8016124   4.282   2.314   1.536 -0.0673 -0.1420  0.0714
   43MOL    C8116125   4.352   2.410   1.612  0.0161  0.6204  0.1232
   43MOL    C8216126   4.377   2.382   1.746  0.3825  0.8188  0.2719
   43MOL    C8316127   4.443   2.488   1.832 -0.3102  0.6759  0.0636
   43MOL    C8416128   4.326   2.263   1.806  0.5725 -0.3345 -0.3725
   43MOL    C8516129   4.262   2.174   1.728 -0.0982  0.3860 -0.1550
   43MOL    C8616130   4.256   2.053   1.388 -0.4727  0.1284  0.1235
   43MOL    H8716131   4.190   2.000   1.579  0.6122 -0.3766 -1.3270
   43MOL    H8816132   4.277   2.324   1.428 -0.8075 -0.0480  0.1093
   43MOL    H8916133   4.400   2.492   1.562 -1.0440  0.7544 -0.6958
   43MOL    H9016134   4.360   2.548   1.868  0.2503  0.6794  1.4046
   43MOL    H9116135   4.491   2.443   1.919 -0.7673  2.1446  1.0942
   43MOL    H9216136   4.530   2.539   1.790 -0.7153  0.2946 -1.2359
   43MOL    H9316137   4.351   2.247   1.910 -0.3463  0.9847  0.0648
   43MOL    H9416138   4.245   2.081   1.782  0.6159  0.9920  1.1244
   43MOL    H9516139   4.361   2.051   1.416 -0.3003  2.0851 -0.2961
   43MOL    H9616140   4.233   2.130   1.314 -1.4927 -0.5935 -0.3211
   43MOL    C9716141   4.221   1.916   1.312 -0.2586  0.0699 -0.5826
   43MOL    C9816142   4.197   1.793   1.400  0.4962 -0.2556 -0.0586
   43MOL    C9916143   4.080   1.721   1.376  0.1406 -0.1245  0.7925
   43MOL   C10016144   4.043   1.613   1.455  0.2250 -0.1342  0.2637
   43MOL   C10116145   4.126   1.568   1.562 -0.2462 -0.0697 -1.0043
   43MOL   C10216146   4.100   1.437   1.641  0.9185 -0.4626 -0.0708
   43MOL   C10316147   4.249   1.641   1.591 -0.7542  0.3369  0.8696
   43MOL   C10416148   4.283   1.752   1.512 -0.7354 -0.2516 -0.3096
   43MOL   C10516149   4.332   1.901   1.200 -0.1128  0.8231  0.1100
   43MOL   H10616150   4.119   1.930   1.276 -0.5711  0.0795  0.2896
   43MOL   H10716151   4.011   1.750   1.298 -0.1618 -0.4004  0.9551
   43MOL   H10816152   3.951   1.559   1.434  0.9368 -0.9609 -0.7889
   43MOL   H10916153   4.015   1.440   1.709  1.3679  0.7700  0.4432
   43MOL   H11016154   4.082   1.361   1.565 -0.6067  0.0357 -0.2016
   43MOL   H11116155   4.187   1.407   1.699  1.2008 -1.3565 -0.9382
   43MOL   H11216156   4.320   1.614   1.668  1.1876 -1.4957 -1.4630
   43MOL   H11316157   4.362   1.816   1.548 -2.5471  1.6855  0.2882
   43MOL   H11416158   4.421   1.866   1.252  0.4877 -1.2719 -2.2538
   43MOL   H11516159   4.369   1.992   1.154  1.3150  0.5042  0.6150
   43MOL   C11616160   4.296   1.798   1.095 -0.2925  0.2327 -0.8549
   43MOL   C11716161   4.420   1.710   1.064 -0.3915 -0.3693  0.2388
   43MOL   C11816162   4.524   1.750   0.978 -0.4358  0.1127  0.2834
   43MOL   C11916163   4.636   1.665   0.956 -0.0252  0.1997 -0.0227
   43MOL   C12016164   4.647   1.534   1.015  0.3571  0.0519 -0.3089
   43MOL   C12116165   4.773   1.447   0.987 -0.1434  0.4411  0.0474
   43MOL   C12216166   4.540   1.495   1.103 -0.4043 -0.4506 -0.2178
   43MOL   C12316167   4.433   1.581   1.130  0.4844 -0.3024 -0.1344
   43MOL   C12416168   4.243   1.866   0.971 -0.3428  0.1128  0.0502
   43MOL   H12516169   4.218   1.733   1.136  1.6606 -1.5447  0.1713
   43MOL   H12616170   4.521   1.851   0.940 -1.8864  0.1895  0.5593
   43MOL   H12716171   4.715   1.706   0.896  0.1427 -1.0940 -0.7068
   43MOL   H12816172   4.850   1.474   1.059 -1.1899 -0.3891  1.4999
   43MOL   H12916173   4.757   1.339   0.998 -0.5872  0.3993 -0.9664
   43MOL   H13016174   4.816   1.478   0.892 -1.0155 -1.1281 -0.8800
   43MOL   H13116175   4.539   1.404   1.162  1.0696  0.3688  1.1054
   43MOL   H13216176   4.360   1.552   1.204  1.1336 -2.1116 -0.1819
   43MOL   H13316177   4.234   1.787   0.897  0.1063 -0.9725  1.1368
   43MOL   H13416178   4.324   1.927   0.931 -0.3133 -0.5460 -0.9103
   43MOL   C13516179   4.117   1.958   0.989 -0.6315  0.6913  0.1487
   43MOL   C13616180   3.988   1.875   1.028 -0.4905  0.0767 -0.0487
   43MOL   C13716181   3.896   1.932   1.112  0.1305  0.5238  0.3510
   43MOL   C13816182   3.785   1.860   1.158 -0.0804 -1.0892 -0.3188
   43MOL   C13916183   3.752   1.730   1.108 -0.2654 -0.0451  0.3837
   43MOL   C14016184   3.628   1.659   1.145  0.2512 -0.7168 -0.7672
   43MOL   C14116185   3.838   1.679   1.005 -0.5504 -0.0169  0.0937
   43MOL   C14216186   3.955   1.752   0.963  0.0310 -0.0604  0.0724
   43MOL   C14316187   4.086   2.045   0.870 -0.1215 -0.4444  0.6198
   43MOL   H14416188   4.134   2.022   1.076  0.1684  0.2575  0.3191
   43MOL   H14516189   3.901   2.033   1.150 -0.5364  1.0221 -0.8646
   43MOL   H14616190   3.711   1.890   1.231 -1.1889 -1.0675 -1.4251
   43MOL   H14716191   3.646   1.585   1.223  1.3256 -0.0833 -0.4078
   43MOL   H14816192   3.552   1.726   1.184 -1.9018 -3.1807 -0.5615
   43MOL   H14916193   3.583   1.602   1.064 -2.1432 -0.1576  0.1398
   43MOL   H15016194   3.830   1.582   0.957  0.2128 -1.0496  2.0070
   43MOL   H15116195   4.013   1.722   0.877  0.5966  0.1983  0.3648
   43MOL   H15216196   3.983   2.080   0.880 -0.1331 -1.0771  3.2644
   43MOL   H15316197   4.072   1.977   0.786  0.4766  1.0911 -0.7527
   43MOL   C15416198   4.187   2.158   0.849 -0.3854  0.1944  0.0918
   43MOL   C15516199   4.206   2.254   0.964  0.1993 -0.0878 -0.0816
   43MOL   C15616200   4.093   2.338   0.994  0.0272  0.5189 -0.0067
   43MOL   C15716201   4.101   2.429   1.094 -0.2613  0.3616 -0.4324
   43MOL   C15816202   4.229   2.461   1.148 -0.1924  0.2470  0.2793
   43MOL   C15916203   4.235   2.562   1.258 -0.3250  0.6852  0.6935
   43MOL   C16016204   4.347   2.380   1.114  0.5304  0.1068  0.4678
   43MOL   C16116205   4.329   2.270   1.027 -0.3389  0.1721 -0.5571
   43MOL   C16216206   4.173   2.235   0.718  0.2997 -0.1263  0.0751
   43MOL   H16316207   4.283   2.109   0.832  1.2657  3.7813 -1.6316
   43MOL   H16416208   3.999   2.312   0.949  0.1653 -0.1112  0.0550
   43MOL   H16516209   4.005   2.473   1.117 -0.9854 -2.0847  1.5465
   43MOL   H16616210   4.211   2.512   1.351 -2.0983 -0.7670 -0.5115
   43MOL   H16716211   4.320   2.632   1.259  0.0348  0.3024 -1.0526
   43MOL   H16816212   4.147   2.624   1.246  0.1682  0.6070 -4.3185
   43MOL   H16916213   4.442   2.396   1.162 -0.8418  1.3459  2.8254
   43MOL   H17016214   4.413   2.205   1.005 -1.6892 -1.6795 -0.3251
   43MOL   H17116215   4.081   2.293   0.719 -0.2473 -0.9870  1.4067
   43MOL   H17216216   4.153   2.161   0.640  0.6420 -1.2411  1.0271
   43MOL   C17316217   4.307   2.303   0.655 -0.2824  0.1970 -0.3629
   43MOL   C17416218   4.419   2.202   0.625  0.3188 -0.8979 -0.5336
   43MOL   C17516219   4.540   2.212   0.692  0.1286  0.6522  0.2586
   43MOL   C17616220   4.649   2.125   0.673 -0.2797  1.0525  0.1126
   43MOL   C17716221   4.635   2.025   0.577 -0.2226  0.4726 -0.3287
   43MOL   C17816222   4.745   1.927   0.558 -0.2478 -0.1498 -0.3778
   43MOL   C17916223   4.514   2.006   0.504 -0.4930  0.2822 -0.5675
   43MOL   C18016224   4.404   2.100   0.529  0.0454  0.4639 -0.0194
   43MOL   C18116225   4.351   2.437   0.718  0.0524  0.9687 -0.6763
   43MOL   H18216226   4.285   2.338   0.554  1.5920 -0.9175 -1.1994
   43MOL   H18316227   4.562   2.286   0.767  0.9194  0.4766  0.2076
   43MOL   H18416228   4.740   2.157   0.722 -0.1085  2.9416 -1.3695
   43MOL   H18516229   4.749   1.823   0.589  0.8094 -0.2194 -0.7280
   43MOL   H18616230   4.772   1.936   0.453 -0.0755 -0.8269 -0.3924
   43MOL   H18716231   4.839   1.960   0.603  0.1995 -1.6292 -0.1911
   43MOL   H18816232   4.509   1.921   0.438  2.1677  0.0176 -0.4554
   43MOL   H18916233   4.314   2.089   0.470  0.5094 -1.3247 -0.4257
   43MOL   H19016234   4.435   2.474   0.660  0.0162  1.2177 -0.5682
   43MOL   H19116235   4.392   2.418   0.818  2.1501  0.4150 -1.6226
   43MOL   C19216236   4.251   2.556   0.704 -0.0354  0.2346  0.3869
   43MOL   C19316237   4.237   2.594   0.553  0.4025  0.6088 -0.1405
   43MOL   C19416238   4.332   2.681   0.492 -0.0685  0.2861  0.0106
   43MOL   C19516239   4.324   2.704   0.354  0.1328 -0.0485  0.0530
   43MOL   C19616240   4.225   2.633   0.281  0.1817  0.1031 -0.4483
   43MOL   C19716241   4.217   2.653   0.134  0.0245  0.4766 -0.7902
   43MOL   C19816242   4.125   2.556   0.343  0.7097  0.2253  0.2501
   43MOL   C19916243   4.132   2.539   0.482 -0.4814 -0.0507  0.1497
   43MOL   C20016244   4.285   2.679   0.794 -0.1449  0.3278 -0.3092
   43MOL   H20116245   4.157   2.513   0.739  0.8687 -0.8620  1.5114
   43MOL   H20216246   4.417   2.719   0.547 -1.1343  0.3550  1.6497
   43MOL   H20316247   4.400   2.767   0.310  2.0166 -1.7224  0.8275
   43MOL   H20416248   4.314   2.684   0.096  1.5521 -0.7077  1.9814
   43MOL   H20516249   4.214   2.553   0.092  1.5393  0.5896 -1.2125
   43MOL   H20616250   4.137   2.718   0.100 -0.0783  2.0879  2.2895
   43MOL   H20716251   4.044   2.513   0.286  2.1418  1.9152 -3.1748
   43MOL   H20816252   4.060   2.471   0.525  0.0127 -1.5379 -1.3159
   43MOL   H20916253   4.378   2.730   0.768  0.7886  0.0551  2.3308
   43MOL   H21016254   4.311   2.648   0.896  0.2509 -0.5565 -0.6731
   43MOL   C21116255   4.177   2.783   0.803 -0.3393 -0.2836 -0.1180
   43MOL   C21216256   4.228   2.912   0.865  0.6778 -1.2011  0.1502
   43MOL   C21316257   4.201   3.030   0.797 -0.3426 -0.1597  0.7406
   43MOL   C21416258   4.245   3.150   0.856  0.5365  1.3023  0.3369
   43MOL   C21516259   4.326   3.159   0.971  1.0082  0.0638 -0.1797
   43MOL   C21616260   4.358   3.302   1.018 -0.5323  0.3623  0.1013
   43MOL   C21716261   4.365   3.038   1.032  0.6692  0.0906  0.2935
   43MOL   C21816262   4.300   2.917   0.989 -0.5547  0.2155 -0.3976
   43MOL   C21916263   4.056   2.725   0.875 -0.0609  0.1228  0.2275
   43MOL   H22016264   4.161   2.815   0.700  3.3655 -1.3109 -1.0832
   43MOL   H22116265   4.126   3.047   0.721  0.4178 -4.1544 -1.0132
   43MOL   H22216266   4.204   3.240   0.812  1.4258  1.0167 -1.0791
   43MOL   H22316267   4.275   3.374   1.010 -1.1619 -0.4008 -0.2639
   43MOL   H22416268   4.394   3.297   1.121 -0.5453 -1.7010  0.0169
   43MOL   H22516269   4.439   3.348   0.962  0.3520  0.4552  1.4454
   43MOL   H22616270   4.427   3.042   1.121  1.2692  1.6040 -0.1899
   43MOL   H22716271   4.313   2.824   1.042  1.3945 -0.5517 -2.1547
   43MOL   H22816272   4.093   2.686   0.970  0.4846 -0.5502 -0.2539
   43MOL   H22916273   4.026   2.632   0.828  0.6704 -1.2144  2.3304
   43MOL   C23016274   3.932   2.816   0.887 -1.2561 -0.5810 -0.5155
   43MOL   C23116275   3.852   2.769   1.004  0.2374 -0.4303 -0.3848
   43MOL   C23216276   3.847   2.848   1.118 -0.0637  0.9570 -0.3199
   43MOL   C23316277   3.782   2.793   1.227  0.1299  0.2492 -0.6120
   43MOL   C23416278   3.709   2.673   1.219  0.1698 -0.0977 -0.1743
   43MOL   C23516279   3.635   2.607   1.333 -0.0156 -0.5346  0.5444
   43MOL   C23616280   3.704   2.600   1.097  0.1258  0.4479 -0.8595
   43MOL   C23716281   3.781   2.642   0.991 -0.4555  0.0546  0.1057
   43MOL   C23816282   3.859   2.822   0.754  0.3458  0.0532  0.0392
   43MOL   H23916283   3.961   2.916   0.920 -0.8228 -0.1625 -2.1574
   43MOL   H24016284   3.910   2.935   1.128  0.8250  0.3286 -0.3509
   43MOL   H24116285   3.796   2.843   1.322  0.5856 -0.7075 -0.1672
   43MOL   H24216286   3.697   2.529   1.378 -1.5791 -1.6964  0.7059
   43MOL   H24316287   3.608   2.672   1.417  0.8050  2.0494 -1.1102
   43MOL   H24416288   3.544   2.562   1.294  0.4678 -0.8045 -0.3041
   43MOL   H24516289   3.644   2.511   1.102  0.4152  0.3345  0.6508
   43MOL   H24616290   3.802   2.571   0.913 -1.9401 -0.7201  0.4113
   43MOL   H24716291   3.810   2.727   0.731  0.1805  0.0049  0.5781
   43MOL   H24816292   3.929   2.844   0.674  0.7162 -1.8445 -0.1894
   43MOL   C24916293   3.755   2.942   0.755  0.7394 -0.0833  0.4140
   43MOL   C25016294   3.624   2.900   0.698  0.1752  0.2297 -0.2086
   43MOL   C25116295   3.589   2.896   0.562  0.2739  0.8470  0.1657
   43MOL   C25216296   3.454   2.870   0.524 -1.1077 -0.0104  0.0767
   43MOL   C25316297   3.356   2.825   0.617 -0.8820  0.0004  0.1583
   43MOL   C25416298   3.216   2.797   0.572 -0.7665 -0.1462  0.0993
   43MOL   C25516299   3.394   2.818   0.747 -0.1705 -0.4437  0.3302
   43MOL   C25616300   3.521   2.862   0.793  0.3492 -0.7813  0.1607
   43MOL   C25716301   3.797   3.072   0.688  0.6170 -0.2532 -0.0357
   43MOL   H25816302   3.743   2.963   0.861 -2.3096 -0.4895  0.1715
   43MOL   H25916303   3.662   2.929   0.489  0.8670 -0.7333  0.0294
   43MOL   H26016304   3.425   2.882   0.420 -2.0043 -0.0878  0.3202
   43MOL   H26116305   3.156   2.884   0.597  1.4866  1.3292  0.5636
   43MOL   H26216306   3.200   2.765   0.469  0.1727  0.5828 -0.2855
   43MOL   H26316307   3.169   2.723   0.636 -0.4992 -0.7303 -0.3771
   43MOL   H26416308   3.326   2.784   0.823  0.4415 -2.5951 -0.0518
   43MOL   H26516309   3.546   2.876   0.897 -0.2727  0.1202  0.1973
   43MOL   H26616310   3.832   3.053   0.586 -1.4013 -1.1460 -0.5761
   43MOL   H26716311   3.882   3.112   0.743  0.3559  0.7636 -0.3506
   43MOL   C26816312   3.699   3.193   0.672 -0.7225  0.0401 -0.0819
   43MOL   C26916313   3.768   3.304   0.595 -0.0040 -0.4096 -0.2585
   43MOL   C27016314   3.881   3.372   0.652  0.4115 -0.5457 -0.0711
   43MOL   C27116315   3.958   3.456   0.570  0.1770  0.0182 -0.1481
   43MOL   C27216316   3.917   3.490   0.442 -0.7173  0.3764 -0.0153
   43MOL   C27316317   3.988   3.599   0.356 -0.3178 -0.0177 -0.7439
   43MOL   C27416318   3.807   3.422   0.382  0.1767 -0.5287  0.5912
   43MOL   C27516319   3.729   3.329   0.460 -0.0903 -0.6110 -0.1580
   43MOL   C27616320   3.641   3.239   0.807  0.0723  0.3336 -0.3194
   43MOL   H27716321   3.613   3.156   0.617  0.8624  0.7282 -3.1057
   43MOL   H27816322   3.928   3.346   0.746 -0.3100 -1.9617 -0.0964
   43MOL   H27916323   4.051   3.494   0.609  0.8770 -0.4465 -1.3400
   43MOL   H28016324   4.071   3.636   0.417 -1.4863  0.5103  0.5660
   43MOL   H28116325   4.041   3.557   0.271 -2.0763 -3.0240 -0.4037
   43MOL   H28216326   3.930   3.688   0.332 -0.2251  0.9922  2.4540
   43MOL   H28316327   3.771   3.452   0.285  0.6844  1.1345  0.8968
   43MOL   H28416328   3.640   3.281   0.422 -0.0175 -0.3666 -0.6407
   43MOL   H28516329   3.701   3.306   0.868 -0.7769 -0.2169  1.1537
   43MOL   H28616330   3.654   3.166   0.887 -0.6207  0.6896  0.1304
   43MOL   C28716331   3.493   3.268   0.802  0.1635 -0.0580  0.6656
   43MOL   C28816332   3.436   3.311   0.668  0.0927  0.5754  0.2773
   43MOL   C28916333   3.459   3.439   0.614 -0.5354  0.1024 -0.7272
   43MOL   C29016334   3.398   3.478   0.499  0.7841  0.3755 -0.3665
   43MOL   C29116335   3.337   3.380   0.416 -0.3865 -0.8709  0.2554
   43MOL   C29216336   3.261   3.422   0.289 -0.3574  0.0491  0.3939
   43MOL   C29316337   3.310   3.248   0.465  0.0438 -0.4419 -0.6984
   43MOL   C29416338   3.360   3.215   0.591 -0.3355 -0.0282  0.8015
   43MOL   C29516339   3.453   3.376   0.907  0.4009 -0.2324  0.3834
   43MOL   H29616340   3.439   3.175   0.822 -0.2419  0.2025  0.8048
   43MOL   H29716341   3.512   3.512   0.674  1.5420 -2.3787  0.5806
   43MOL   H29816342   3.415   3.579   0.464  0.7812 -0.2268 -2.1628
   43MOL   H29916343   3.308   3.507   0.240  2.3338 -0.1322  2.5700
   43MOL   H30016344   3.239   3.340   0.221  2.9221 -0.8974  0.4194
   43MOL   H30116345   3.161   3.458   0.316 -0.1038  1.1759 -0.1246
   43MOL   H30216346   3.244   3.182   0.409  0.3656  0.6120 -2.3405
   43MOL   H30316347   3.349   3.121   0.643  0.7537  1.1046  3.1727
   43MOL   H30416348   3.345   3.388   0.909  0.3035 -0.6052 -1.7091
   43MOL   H30516349   3.480   3.477   0.876  0.0324  0.0399  0.9457
   43MOL   C30616350   3.501   3.343   1.053 -0.1707 -0.5913 -0.6731
   43MOL   C30716351   3.446   3.211   1.106  0.3200  0.4861 -0.4398
   43MOL   C30816352   3.534   3.105   1.134  0.6538 -0.2355 -0.0869
   43MOL   C30916353   3.484   2.975   1.168  0.0753  0.2469  0.2423
   43MOL   C31016354   3.346   2.957   1.183  0.1203  0.6671 -0.0006
   43MOL   C31116355   3.288   2.818   1.216 -0.7410  0.5310  0.7130
   43MOL   C31216356   3.258   3.065   1.169 -0.4842 -0.2903  0.7947
   43MOL   C31316357   3.306   3.194   1.131  0.6047 -0.8752  0.7921
   43MOL   C31416358   3.480   3.458   1.160 -0.0006  0.3136  0.7286
   43MOL   H31516359   3.610   3.336   1.055  0.0005  1.2338 -2.0669
   43MOL   H31616360   3.641   3.112   1.120  0.6017  0.1973 -0.2692
   43MOL   H31716361   3.545   2.887   1.184  0.3258  0.1369 -1.2271
   43MOL   H31816362   3.271   2.767   1.122  1.5760 -0.1342  0.6241
   43MOL   H31916363   3.347   2.758   1.285 -1.1469 -1.1594 -0.3841
   43MOL   H32016364   3.191   2.834   1.264 -0.3140  0.1112  1.7392
   43MOL   H32116365   3.154   3.051   1.192 -0.4104 -0.0343  1.3067
   43MOL   H32216366   3.235   3.274   1.119 -0.8536 -2.2917 -0.0899
   43MOL   H32316367   3.375   3.443   1.188  0.1740 -3.3084 -0.2408
   43MOL   H32416368   3.473   3.553   1.108 -3.3676  0.7611  1.8370
   43MOL   C32516369   3.580   3.453   1.277 -0.2980  0.3858  0.3480
   43MOL   C32616370   3.522   3.459   1.419 -0.7756  0.0951  0.9937
   43MOL   C32716371   3.485   3.583   1.480 -0.7445  0.4328  0.2442
   43MOL   C32816372   3.438   3.587   1.612  0.4656  0.0701  0.1816
   43MOL   C32916373   3.413   3.469   1.679 -0.6829 -0.9694 -0.1008
   43MOL   C33016374   3.373   3.473   1.821  0.3997  0.0494 -0.3853
   43MOL   C33116375   3.423   3.349   1.613  0.5619  0.7931  0.3455
   43MOL   C33216376   3.486   3.339   1.489  0.1406 -0.0901  0.5400
   43MOL   C33316377   3.698   3.550   1.251  0.3296 -0.3706  0.1513
   43MOL   H33416378   3.622   3.352   1.274 -1.2106  0.0269 -0.6286
   43MOL   H33516379   3.516   3.679   1.443 -0.0692  0.8465  1.8564
   43MOL   H33616380   3.429   3.680   1.667 -1.7243  0.0468 -0.1015
   43MOL   H33716381   3.293   3.401   1.840 -0.0902  0.7032  0.0477
   43MOL   H33816382   3.460   3.428   1.867  0.2705  0.8256  0.6395
   43MOL   H33916383   3.366   3.572   1.866  1.4769  0.6730 -1.5630
   43MOL   H34016384   3.392   3.255   1.656  0.1774  2.3165  3.5950
   43MOL   H34116385   3.506   3.243   1.443  0.8826  0.2110  0.2287
   43MOL   H34216386   3.750   3.573   1.344 -0.2266  2.0846 -0.1112
   43MOL   H34316387   3.648   3.641   1.218 -1.8419 -1.6429 -0.1528
   43MOL   C34416388   3.809   3.509   1.146  0.2231  0.4073 -0.0329
   43MOL   C34516389   3.880   3.382   1.195  0.0537 -0.2164  0.0814
   43MOL   C34616390   3.896   3.345   1.331 -0.5152 -0.2662 -0.8947
   43MOL   C34716391   3.956   3.217   1.360 -0.3335 -0.8005 -0.5120
   43MOL   C34816392   4.029   3.147   1.265 -0.3425  0.3787  0.0936
   43MOL   C34916393   4.106   3.026   1.304  0.0789 -0.1563 -1.5507
   43MOL   C35016394   4.019   3.187   1.134  0.0721  0.0824 -0.4114
   43MOL   C35116395   3.950   3.306   1.097  0.5235  0.0490 -0.0233
   43MOL   C35216396   3.897   3.636   1.128  0.1731 -0.8776 -0.6155
   43MOL   H35316397   3.762   3.481   1.052 -0.2740 -2.1602  0.9551
   43MOL   H35416398   3.856   3.406   1.410 -1.1088 -0.9139 -0.6831
   43MOL   H35516399   3.951   3.185   1.463 -1.7564  0.3296 -0.2091
   43MOL   H35616400   4.195   3.054   1.360 -1.2866 -0.9173  1.0525
   43MOL   H35716401   4.037   2.957   1.352 -0.8427  2.1504  0.5340
   43MOL   H35816402   4.136   2.968   1.217  0.0324  1.1011 -2.4161
   43MOL   H35916403   4.068   3.130   1.057 -2.7438  0.2811 -2.4655
   43MOL   H36016404   3.946   3.331   0.993  0.2440 -1.0927 -0.3007
   43MOL   H36116405   3.946   3.654   1.224 -3.1166 -0.4146  1.0290
   43MOL   H36216406   3.840   3.729   1.125  1.0457 -0.1409  2.8279
   43MOL   C36316407   4.004   3.621   1.012  1.0952 -0.6717  0.8741
   43MOL   C36416408   4.124   3.714   1.023  1.2754  0.8935 -0.2982
   43MOL   C36516409   4.131   3.819   1.112  0.3918 -0.4138  0.1287
   43MOL   C36616410   4.250   3.894   1.116  0.4327 -0.0968  0.5280
   43MOL   C36716411   4.361   3.862   1.040 -0.0266 -0.4069  0.0105
   43MOL   C36816412   4.477   3.961   1.038 -0.2787  0.5931  0.4905
   43MOL   C36916413   4.354   3.753   0.956  0.1035 -0.3701  0.5852
   43MOL   C37016414   4.237   3.674   0.948 -0.3536  0.3183 -0.7618
   43MOL   C37116415   3.931   3.643   0.879 -0.1741 -0.1224 -0.2362
   43MOL   H37216416   4.039   3.517   1.011 -6.1733 -3.4324  0.5012
   43MOL   H37316417   4.054   3.846   1.182 -0.2454  1.6545 -1.3249
   43MOL   H37416418   4.268   3.980   1.179  0.6909 -0.0271  0.3580
   43MOL   H37516419   4.572   3.908   1.035 -0.5602  0.1535 -1.0734
   43MOL   H37616420   4.466   4.025   0.951  0.1983 -0.8417 -0.6389
   43MOL   H37716421   4.490   4.011   1.134 -0.0536 -1.2899  1.4593
   43MOL   H37816422   4.443   3.719   0.904 -0.2572  0.1681 -0.4117
   43MOL   H37916423   4.247   3.582   0.891  2.6164  1.0392 -1.4769
   43MOL   H38016424   3.887   3.742   0.892  1.7631  0.7128  0.2178
   43MOL   H38116425   3.855   3.567   0.862 -1.5999  1.4461 -1.0610
   43MOL   H38216426   3.995   3.648   0.790 -0.5204 -0.1378 -0.4889
   44MOL     C116427   2.503   7.424   4.042 -0.4921 -0.1510 -0.8225
   44MOL     C216428   2.624   7.464   3.971  0.7136 -0.2497 -0.2698
   44MOL     C316429   2.623   7.467   3.828 -0.4732  0.1621  0.2886
   44MOL     C416430   2.716   7.548   3.759 -0.2064  0.0226  0.3732
   44MOL     C516431   2.830   7.608   3.820  0.6549  0.7763  0.1544
   44MOL     C616432   2.924   7.701   3.748  0.1703 -0.7105  0.4220
   44MOL     C716433   2.846   7.583   3.960  0.3060 -0.3010 -0.6582
   44MOL     C816434   2.739   7.520   4.031  0.2530  0.0446  0.2976
   44MOL     C916435   2.381   7.514   4.013 -0.4014  0.5897  0.5013
   44MOL    H1016436   2.474   7.321   4.018  0.2180 -0.4221 -0.5237
   44MOL    H1116437   2.538   7.432   3.772  0.9763 -1.0551 -1.2006
   44MOL    H1216438   2.721   7.563   3.652  0.1530  2.7276  0.7287
   44MOL    H1316439   3.001   7.636   3.706  0.3120 -0.9542  1.0535
   44MOL    H1416440   2.877   7.764   3.672  0.7184 -0.1992  0.5059
   44MOL    H1516441   2.970   7.773   3.816  2.6020 -1.8357 -0.0071
   44MOL    H1616442   2.929   7.617   4.020 -0.5228  0.4245  0.0991
   44MOL    H1716443   2.750   7.500   4.136  2.5479  0.3577  0.1495
   44MOL    H1816444   2.385   7.519   3.904 -0.7865 -0.0808  0.4563
   44MOL    H1916445   2.398   7.620   4.033 -1.4341  0.6193  1.2432
   44MOL    H2016446   2.528   7.420   4.148  1.8207  1.1892 -1.2950
   44MOL    C2116447   2.239   7.472   4.051 -0.6285  0.5132 -0.0874
   44MOL    C2216448   2.138   7.485   3.938  0.4905  0.1093  0.0249
   44MOL    C2316449   2.079   7.369   3.885 -0.7227  0.0796 -0.0280
   44MOL    C2416450   1.975   7.376   3.794 -0.3632  0.9493  1.0877
   44MOL    C2516451   1.942   7.504   3.745 -0.1111  0.8490  0.4501
   44MOL    C2616452   1.816   7.508   3.649 -0.2872  0.4628  0.1349
   44MOL    C2716453   1.998   7.620   3.791  0.1949  0.2129 -0.2102
   44MOL    C2816454   2.102   7.612   3.888  0.2664 -0.3478  0.2696
   44MOL    C2916455   2.203   7.558   4.177  0.4280 -0.9659  0.0319
   44MOL    H3016456   2.242   7.364   4.066 -1.6624  0.8087  2.4598
   44MOL    H3116457   2.115   7.274   3.922 -1.0441 -0.6643 -1.5734
   44MOL    H3216458   1.935   7.285   3.752  0.1102  0.7302  1.1160
   44MOL    H3316459   1.761   7.601   3.665  0.0584  0.2862  2.4365
   44MOL    H3416460   1.846   7.510   3.544  1.1620  0.1964  0.5338
   44MOL    H3516461   1.742   7.431   3.668  1.9042 -1.6127  0.5476
   44MOL    H3616462   1.970   7.712   3.742  2.4358  0.2659 -1.4668
   44MOL    H3716463   2.156   7.702   3.914  0.4313 -0.6411  0.9771
   44MOL    H3816464   2.095   7.571   4.184  0.3355 -0.4383 -2.1683
   44MOL    H3916465   2.239   7.660   4.162 -1.2329 -0.2379  0.7739
   44MOL    C4016466   2.235   7.507   4.314  0.9751 -0.2162  0.2042
   44MOL    C4116467   2.163   7.374   4.347  0.1551  0.9648  0.0296
   44MOL    C4216468   2.028   7.374   4.388 -0.1260 -0.3895 -1.0471
   44MOL    C4316469   1.964   7.251   4.412 -0.3857 -0.4027  0.2419
   44MOL    C4416470   2.035   7.132   4.401  0.2079  0.1935  0.5093
   44MOL    C4516471   1.962   7.005   4.425  0.6791  0.4073 -0.3647
   44MOL    C4616472   2.168   7.134   4.356 -0.9610  0.1292  0.7701
   44MOL    C4716473   2.232   7.251   4.327 -0.0733  0.0680 -0.0576
   44MOL    C4816474   2.225   7.607   4.439  0.1814  0.7111  0.2319
   44MOL    H4916475   2.340   7.479   4.298  0.8725 -1.0242  0.9243
   44MOL    H5016476   1.972   7.464   4.408 -0.2450 -1.0681  1.8528
   44MOL    H5116477   1.870   7.250   4.467 -0.2957  1.6182  0.4583
   44MOL    H5216478   1.868   7.007   4.370  1.4879 -0.4159 -1.7976
   44MOL    H5316479   2.016   6.914   4.399 -1.0314 -0.5331 -0.6803
   44MOL    H5416480   1.926   7.000   4.528 -0.8193 -0.9369 -0.9355
   44MOL    H5516481   2.226   7.043   4.353  0.9778  1.3162  1.3265
   44MOL    H5616482   2.338   7.250   4.306 -0.1295 -0.3350 -0.3271
   44MOL    H5716483   2.248   7.559   4.534 -1.8997 -0.9409 -0.0494
   44MOL    H5816484   2.120   7.633   4.450  0.0531  0.2052  0.2255
   44MOL    C5916485   2.322   7.725   4.432  0.0576  0.5982 -0.3486
   44MOL    C6016486   2.463   7.688   4.409  0.4556  0.6168 -0.3790
   44MOL    C6116487   2.529   7.734   4.294 -0.1604  0.1340  0.3608
   44MOL    C6216488   2.667   7.714   4.271 -0.3731  0.6555 -0.6937
   44MOL    C6316489   2.746   7.651   4.368 -0.1818  0.1909 -0.5600
   44MOL    C6416490   2.894   7.644   4.366  0.0700  0.0427  0.3474
   44MOL    C6516491   2.680   7.601   4.483 -0.0689 -0.0820 -0.2765
   44MOL    C6616492   2.543   7.613   4.502  0.2601  0.0450 -0.2910
   44MOL    C6716493   2.304   7.824   4.552  0.0732 -0.2263 -0.2248
   44MOL    H6816494   2.295   7.773   4.338  0.8107  0.3096 -0.7145
   44MOL    H6916495   2.484   7.782   4.208 -1.4068  0.6526  1.2978
   44MOL    H7016496   2.717   7.748   4.181 -0.7836  2.2831 -0.3130
   44MOL    H7116497   2.932   7.706   4.447 -1.6206  1.4823  0.0761
   44MOL    H7216498   2.934   7.544   4.380  0.3496  0.4102  2.3633
   44MOL    H7316499   2.921   7.687   4.270  1.5521 -0.0678  0.7017
   44MOL    H7416500   2.753   7.561   4.553  0.0315 -1.0048 -0.8984
   44MOL    H7516501   2.492   7.574   4.589 -2.1690 -0.4543 -1.9142
   44MOL    H7616502   2.400   7.875   4.563 -0.6150  1.4681 -1.7878
   44MOL    H7716503   2.274   7.765   4.638 -1.6905  0.0228 -0.6542
   44MOL    C7816504   2.197   7.935   4.525 -0.0987 -0.1344 -0.1107
   44MOL    C7916505   2.217   8.016   4.399 -0.3832 -0.2805  0.7416
   44MOL    C8016506   2.128   8.009   4.299  0.8523 -0.2347  0.5191
   44MOL    C8116507   2.137   0.004   4.183  0.3173 -1.2144 -0.3494
   44MOL    C8216508   2.248   0.085   4.163  0.1494 -0.2892  0.0912
   44MOL    C8316509   2.264   0.162   4.033  0.4625 -0.2995  0.1833
   44MOL    C8416510   2.341   0.099   4.266  0.3437 -0.3130  0.8761
   44MOL    C8516511   2.331   0.019   4.382 -0.3345  1.0127  0.0812
   44MOL    C8616512   2.180   8.029   4.645 -0.1475 -0.0198  0.0618
   44MOL    H8716513   2.108   7.877   4.504  0.5365 -0.5616 -1.6572
   44MOL    H8816514   2.043   7.943   4.292  0.3396  0.3661  1.0258
   44MOL    H8916515   2.066   8.071   4.103 -1.2156  0.3438  0.7096
   44MOL    H9016516   2.316   0.255   4.059  0.1078  0.3408 -1.3900
   44MOL    H9116517   2.323   0.104   3.962  2.7343  2.6854 -0.4728
   44MOL    H9216518   2.159   0.179   4.009  0.1436  0.1943  1.8067
   44MOL    H9316519   2.425   0.166   4.260  0.4583 -0.0832  4.1911
   44MOL    H9416520   2.404   0.034   4.461  1.0716  2.7595 -1.5273
   44MOL    H9516521   2.129   0.033   4.599 -1.3207 -1.2161 -0.8630
   44MOL    H9616522   2.273   8.072   4.682 -1.4258 -1.0116  4.7419
   44MOL    C9716523   2.097   7.971   4.769  0.4238 -0.5837  0.9055
   44MOL    C9816524   1.977   7.884   4.729  0.1244 -0.2689 -0.4626
   44MOL    C9916525   1.984   7.741   4.741 -0.1713  0.4484 -0.2577
   44MOL   C10016526   1.872   7.660   4.719 -0.1078  0.5304  0.3701
   44MOL   C10116527   1.744   7.719   4.712  0.2994  0.4941  1.0654
   44MOL   C10216528   1.619   7.638   4.703  0.2451  0.2956 -0.0110
   44MOL   C10316529   1.733   7.858   4.702 -0.5137  0.2905  0.1575
   44MOL   C10416530   1.849   7.942   4.700  0.4275 -0.2957  0.5458
   44MOL   C10516531   2.062   8.065   4.883 -0.2674 -0.4990  0.8119
   44MOL   H10616532   2.164   7.902   4.821 -0.3351 -0.1935  2.4355
   44MOL   H10716533   2.079   7.700   4.771 -1.4233 -1.8764  0.6028
   44MOL   H10816534   1.884   7.554   4.735  1.6830  0.7612  0.6562
   44MOL   H10916535   1.529   7.695   4.679 -1.2429 -2.2778 -0.7285
   44MOL   H11016536   1.635   7.556   4.633 -0.2257  2.1875 -2.3844
   44MOL   H11116537   1.613   7.582   4.797  0.2799 -0.5185 -0.4868
   44MOL   H11216538   1.640   7.911   4.689  0.4776  2.4010  1.4772
   44MOL   H11316539   1.844   8.050   4.702  0.2482 -0.2456 -1.5468
   44MOL   H11416540   2.007   0.072   4.847  0.8084  0.3845  1.2820
   44MOL   H11516541   2.151   0.038   4.918  0.2225 -1.9300  1.7781
   44MOL   C11616542   1.972   8.007   4.996  0.7327  0.7604 -0.5441
   44MOL   C11716543   1.899   0.031   5.083  0.5201 -0.1637 -0.1948
   44MOL   C11816544   1.761   0.015   5.106  0.5468 -0.7799  0.8048
   44MOL   C11916545   1.695   0.116   5.175  0.0001 -0.0874 -0.5961
   44MOL   C12016546   1.768   0.229   5.217  0.1301 -0.1029 -0.9336
   44MOL   C12116547   1.699   0.334   5.298 -0.2611  0.2475  0.2917
   44MOL   C12216548   1.902   0.245   5.187 -0.5308 -0.4917  0.3418
   44MOL   C12316549   1.973   0.146   5.123  0.1567 -0.4576 -0.8404
   44MOL   C12416550   2.055   7.903   5.083 -0.4113  0.0051 -0.6021
   44MOL   H12516551   1.892   7.957   4.941  0.1684  2.6832 -1.5133
   44MOL   H12616552   1.703   8.008   5.076  1.1810 -0.8568 -0.1888
   44MOL   H12716553   1.591   0.096   5.199  0.2698 -0.7074  0.0769
   44MOL   H12816554   1.604   0.295   5.335  0.6318 -2.1361  0.1548
   44MOL   H12916555   1.762   0.358   5.384  0.6654 -0.5432 -0.1688
   44MOL   H13016556   1.688   0.434   5.255  2.0316 -0.0935 -1.1399
   44MOL   H13116557   1.952   0.331   5.229  0.7457 -1.1068  0.1161
   44MOL   H13216558   2.076   0.166   5.096  0.2731 -0.3645 -0.3388
   44MOL   H13316559   2.118   7.951   5.158 -0.9970  0.6784 -0.5397
   44MOL   H13416560   2.126   7.850   5.019  0.7751  1.2207 -0.3228
   44MOL   C13516561   1.961   7.805   5.162  0.0580 -0.3305 -0.1713
   44MOL   C13616562   2.040   7.730   5.270  0.0739  0.7097  0.2850
   44MOL   C13716563   2.126   7.620   5.241 -0.5944 -0.7123  0.3559
   44MOL   C13816564   2.179   7.544   5.347  0.0224 -0.3764  0.2273
   44MOL   C13916565   2.153   7.581   5.483  0.5091 -0.1782  0.1019
   44MOL   C14016566   2.223   7.504   5.593 -0.0657 -0.0021 -0.2612
   44MOL   C14116567   2.073   7.692   5.510  0.1887  0.1552 -0.9932
   44MOL   C14216568   2.014   7.763   5.404  0.0199  0.2053  0.2891
   44MOL   C14316569   1.884   7.701   5.061 -0.0529 -0.3219  0.0340
   44MOL   H14416570   1.875   7.861   5.200 -0.4212 -0.8016 -0.5540
   44MOL   H14516571   2.142   7.601   5.136 -1.1443  0.5732  0.0297
   44MOL   H14616572   2.246   7.463   5.320 -1.5556 -1.1752 -1.3563
   44MOL   H14716573   2.207   7.554   5.689 -2.8421  0.6957 -1.0369
   44MOL   H14816574   2.191   7.400   5.601 -1.3885  0.4484  0.5594
   44MOL   H14916575   2.328   7.488   5.571 -0.3930 -1.8756 -0.5735
   44MOL   H15016576   2.051   7.720   5.611 -2.3311 -0.6271 -1.2881
   44MOL   H15116577   1.949   7.848   5.418 -1.8171 -1.2031  0.5326
   44MOL   H15216578   1.954   7.639   5.005  3.4808  3.1118  0.4330
   44MOL   H15316579   1.834   7.767   4.990 -0.7765 -0.8895  0.0168
   44MOL   C15416580   1.761   7.616   5.115 -0.3910 -0.2016 -0.1483
   44MOL   C15516581   1.637   7.697   5.165  0.1680  0.2529 -0.2371
   44MOL   C15616582   1.651   7.773   5.284  0.0086  0.2692 -0.2697
   44MOL   C15716583   1.547   7.859   5.330  0.1081  1.1921  0.3477
   44MOL   C15816584   1.424   7.849   5.270 -0.0144  0.4955  0.3379
   44MOL   C15916585   1.303   7.924   5.328 -0.0673  0.0632  0.4595
   44MOL   C16016586   1.409   7.783   5.147  0.0225  0.1679  0.6837
   44MOL   C16116587   1.513   7.707   5.091  1.2397  0.3566  0.5098
   44MOL   C16216588   1.804   7.507   5.219 -0.0501  0.7348  0.3948
   44MOL   H16316589   1.733   7.568   5.022  0.0765  0.9947 -0.9281
   44MOL   H16416590   1.742   7.760   5.340 -1.4241  1.8387  2.5535
   44MOL   H16516591   1.566   7.915   5.420 -1.1298 -2.0493  2.7291
   44MOL   H16616592   1.215   7.861   5.338  0.4876 -0.7983  0.0527
   44MOL   H16716593   1.323   7.971   5.424 -2.0232  1.3150  0.2708
   44MOL   H16816594   1.276   7.994   5.249 -0.2269  1.0027  1.3511
   44MOL   H16916595   1.310   7.780   5.103  0.8520 -1.2303 -1.1444
   44MOL   H17016596   1.494   7.664   4.994 -2.6529  0.4008  1.1769
   44MOL   H17116597   1.719   7.485   5.285  0.2872 -2.2956 -0.0979
   44MOL   H17216598   1.876   7.553   5.286  0.7043  0.5088 -0.2636
   44MOL   C17316599   1.840   7.370   5.162 -0.4522 -0.0836  0.6155
   44MOL   C17416600   1.869   7.272   5.279 -0.0622 -0.6637 -0.0137
   44MOL   C17516601   1.765   7.207   5.347 -0.1277  0.1587  0.2713
   44MOL   C17616602   1.787   7.133   5.463 -1.1524 -0.6670  0.7120
   44MOL   C17716603   1.909   7.131   5.522 -0.3251  0.4636 -1.2291
   44MOL   C17816604   1.921   7.061   5.653 -0.5585 -0.9290 -0.2755
   44MOL   C17916605   2.020   7.191   5.455 -0.2085  0.2594  0.5291
   44MOL   C18016606   1.998   7.255   5.336  0.1138 -0.6483  0.4483
   44MOL   C18116607   1.948   7.363   5.047 -0.4647 -0.1854  0.1938
   44MOL   H18216608   1.751   7.332   5.112  0.3740  0.4919 -1.3493
   44MOL   H18316609   1.668   7.213   5.300  0.9398 -1.1202 -2.1719
   44MOL   H18416610   1.704   7.081   5.508 -1.0601 -1.7308 -0.3306
   44MOL   H18516611   1.995   7.112   5.716 -0.7918 -0.5209 -0.3314
   44MOL   H18616612   1.828   7.070   5.710 -0.1529 -1.1284  0.4333
   44MOL   H18716613   1.954   6.957   5.649  1.6802 -0.4204  2.9979
   44MOL   H18816614   2.118   7.182   5.499  0.4404 -0.7694 -1.1099
   44MOL   H18916615   2.085   7.297   5.289  0.0786  0.0931  1.0260
   44MOL   H19016616   2.035   7.411   5.091  0.3732 -0.3122 -1.2919
   44MOL   H19116617   1.922   7.422   4.958  0.2772  1.9333  1.3533
   44MOL   C19216618   1.999   7.226   4.997 -0.3103 -0.1877  0.1880
   44MOL   C19316619   2.133   7.249   4.916  0.7407  0.3682  0.5363
   44MOL   C19416620   2.256   7.285   4.983  0.4164 -0.0904  0.0169
   44MOL   C19516621   2.377   7.300   4.911  0.0326 -0.1140 -0.0303
   44MOL   C19616622   2.384   7.266   4.771  0.2204 -0.5442  0.0294
   44MOL   C19716623   2.511   7.278   4.689  0.1215  0.3500 -0.3695
   44MOL   C19816624   2.268   7.237   4.700  0.6913  0.0040  0.0855
   44MOL   C19916625   2.146   7.239   4.773  0.4054  0.7951 -0.4554
   44MOL   C20016626   1.894   7.135   4.930  0.1081  0.6121 -0.2930
   44MOL   H20116627   2.026   7.175   5.089 -0.4412  0.2050  0.4437
   44MOL   H20216628   2.257   7.292   5.091  1.1658  1.0837 -0.0498
   44MOL   H20316629   2.472   7.338   4.945  0.4335 -0.3988 -0.8014
   44MOL   H20416630   2.574   7.189   4.701  0.8334  0.8236 -0.5720
   44MOL   H20516631   2.496   7.281   4.581  3.0744  1.2705 -0.8060
   44MOL   H20616632   2.558   7.369   4.724 -0.4190 -0.7598  3.5019
   44MOL   H20716633   2.274   7.230   4.592  0.1881  2.2727 -0.1236
   44MOL   H20816634   2.057   7.231   4.713  0.0087  1.0005  0.1049
   44MOL   H20916635   1.862   7.180   4.836 -2.3359  0.6920  0.5347
   44MOL   H21016636   1.798   7.134   4.982 -0.2692  1.7322 -0.9520
   44MOL   C21116637   1.937   6.989   4.893 -0.7079  0.5069  0.2644
   44MOL   C21216638   1.843   6.920   4.792 -0.1991 -0.0874 -0.7801
   44MOL   C21316639   1.711   6.955   4.775  0.0634  0.2966 -0.0893
   44MOL   C21416640   1.621   6.889   4.690 -0.4968  0.0251 -0.1102
   44MOL   C21516641   1.669   6.782   4.616 -0.1314 -0.0624  0.8558
   44MOL   C21616642   1.582   6.698   4.515  0.2891  0.5809 -0.2239
   44MOL   C21716643   1.807   6.752   4.620 -0.8366 -0.1916 -0.2295
   44MOL   C21816644   1.895   6.819   4.713  0.1288 -0.1918  0.5649
   44MOL   C21916645   1.956   6.897   5.021 -0.3260  0.5278  0.0475
   44MOL   H22016646   2.036   7.003   4.849 -0.2265  1.2555  1.5642
   44MOL   H22116647   1.666   7.027   4.841 -0.1253  0.6390 -0.5892
   44MOL   H22216648   1.515   6.905   4.696 -0.6266 -1.1513  0.9709
   44MOL   H22316649   1.479   6.729   4.527  0.3058  0.5151  0.1068
   44MOL   H22416650   1.615   6.714   4.413  0.7719  1.4202  0.0624
   44MOL   H22516651   1.584   6.592   4.543  0.8678  0.6591  0.0551
   44MOL   H22616652   1.838   6.672   4.555  1.1412  0.4754 -0.1486
   44MOL   H22716653   2.001   6.800   4.704  0.4146  0.4075  2.5446
   44MOL   H22816654   1.914   6.799   5.001  0.9580  0.3143 -1.7134
   44MOL   H22916655   1.904   6.940   5.107  0.1322 -1.0949  1.1500
   44MOL   C23016656   2.108   6.886   5.047  0.2225  0.3386 -0.6240
   44MOL   C23116657   2.189   6.801   4.953 -0.2019  0.8632  0.3530
   44MOL   C23216658   2.262   6.870   4.848  0.7677 -0.9107 -0.7631
   44MOL   C23316659   2.359   6.804   4.774 -0.5037 -0.2464 -0.2632
   44MOL   C23416660   2.380   6.666   4.800  0.3797 -0.4249  0.3644
   44MOL   C23516661   2.477   6.600   4.710 -0.4695  0.6301  0.2444
   44MOL   C23616662   2.302   6.593   4.898 -0.4278 -0.0529  0.2514
   44MOL   C23716663   2.207   6.663   4.973  0.2986 -0.3371  0.1013
   44MOL   C23816664   2.134   6.838   5.191 -0.6010  0.2694 -0.6307
   44MOL   H23916665   2.143   6.988   5.039 -0.9487  0.7827 -0.2621
   44MOL   H24016666   2.262   6.977   4.836 -1.9859 -0.7243  0.5525
   44MOL   H24116667   2.421   6.857   4.703  0.3298 -0.6380  0.1756
   44MOL   H24216668   2.442   6.570   4.611 -1.5707 -0.6964  1.0224
   44MOL   H24316669   2.561   6.667   4.695  1.1111 -1.8322 -2.1991
   44MOL   H24416670   2.514   6.508   4.756 -1.3044 -0.2110 -0.7225
   44MOL   H24516671   2.321   6.488   4.916 -0.5539 -0.5434 -2.2169
   44MOL   H24616672   2.150   6.612   5.050 -0.5952  1.1079  0.4071
   44MOL   H24716673   2.095   6.736   5.197 -0.4426  0.2923  1.3004
   44MOL   H24816674   2.076   6.902   5.257 -0.1689  0.5205 -0.4905
   44MOL   C24916675   2.280   6.839   5.246  0.3052  0.2143 -0.8224
   44MOL   C25016676   2.266   6.786   5.386  0.2382  0.1561  0.5292
   44MOL   C25116677   2.289   6.652   5.420  0.4997  0.3694 -0.4025
   44MOL   C25216678   2.269   6.602   5.550  0.3028  0.1458 -0.9482
   44MOL   C25316679   2.228   6.688   5.653 -0.0934  0.1291  0.0832
   44MOL   C25416680   2.199   6.635   5.792  0.0556  0.2565 -0.7001
   44MOL   C25516681   2.205   6.826   5.625 -0.6326  0.3478 -0.0363
   44MOL   C25616682   2.222   6.870   5.488  0.0175  0.0868  0.6299
   44MOL   C25716683   2.354   6.970   5.220 -0.5722 -0.5257 -0.2031
   44MOL   H25816684   2.333   6.765   5.186  0.0156  0.3775 -1.2793
   44MOL   H25916685   2.321   6.577   5.350 -0.7369 -1.6368  1.1439
   44MOL   H26016686   2.290   6.502   5.583  0.2223  0.5290  0.3115
   44MOL   H26116687   2.133   6.552   5.766  0.7381 -0.7121  0.5926
   44MOL   H26216688   2.298   6.615   5.832  0.0349  2.4365  0.5589
   44MOL   H26316689   2.140   6.706   5.850 -0.3167  0.9650 -1.9222
   44MOL   H26416690   2.165   6.901   5.692 -1.5828 -0.3468  0.1965
   44MOL   H26516691   2.195   6.971   5.460 -0.7833 -0.6134 -1.1297
   44MOL   H26616692   2.289   7.054   5.245  1.7150  1.4892 -0.8494
   44MOL   H26716693   2.391   6.972   5.118 -3.5860  1.1656 -1.3119
   44MOL   C26816694   2.486   6.989   5.304  0.4646 -0.4294  0.7401
   44MOL   C26916695   2.515   7.138   5.328  0.5474 -0.1538 -0.1604
   44MOL   C27016696   2.532   7.224   5.216 -0.2421 -0.1973  0.1515
   44MOL   C27116697   2.548   7.364   5.222 -0.1974 -0.0216  0.3640
   44MOL   C27216698   2.555   7.417   5.354 -0.2129 -0.3203 -0.5281
   44MOL   C27316699   2.567   7.568   5.364  0.3325  0.0810 -0.2068
   44MOL   C27416700   2.539   7.338   5.469  0.4908  0.7475  0.3284
   44MOL   C27516701   2.529   7.198   5.459  0.3524  0.1961  0.4226
   44MOL   C27616702   2.615   6.923   5.252 -0.0353  0.0815 -0.4556
   44MOL   H27716703   2.465   6.952   5.404  0.3931  0.5644  1.0966
   44MOL   H27816704   2.530   7.180   5.118  0.4347  1.5708 -0.6597
   44MOL   H27916705   2.559   7.425   5.134  2.7736 -0.3493  0.4511
   44MOL   H28016706   2.604   7.600   5.461  0.9034 -0.5784 -0.2036
   44MOL   H28116707   2.644   7.606   5.297 -0.4061 -0.1718 -1.2182
   44MOL   H28216708   2.474   7.620   5.343 -0.7176 -2.3598 -1.8725
   44MOL   H28316709   2.545   7.379   5.569 -1.3302 -1.5674  1.4324
   44MOL   H28416710   2.519   7.132   5.544  2.2396 -1.0256 -0.2701
   44MOL   H28516711   2.635   6.967   5.154  0.5933 -1.3677 -0.9968
   44MOL   H28616712   2.606   6.817   5.230  2.2820 -0.1540 -0.3907
   44MOL   C28716713   2.744   6.948   5.336  0.0344 -0.7552 -0.2346
   44MOL   C28816714   2.866   6.889   5.269  0.6809  0.3789 -0.0374
   44MOL   C28916715   2.872   6.753   5.235 -0.3539  0.2226 -0.5458
   44MOL   C29016716   2.977   6.706   5.156  0.2865 -0.1261 -0.8087
   44MOL   C29116717   3.088   6.783   5.127 -0.2021 -0.1993  0.3660
   44MOL   C29216718   3.212   6.731   5.059  0.0125 -0.5058  0.0571
   44MOL   C29316719   3.085   6.917   5.160 -0.0568  0.2223  0.2275
   44MOL   C29416720   2.980   6.964   5.239  0.6061 -1.0155 -0.3642
   44MOL   C29516721   2.727   6.895   5.480 -0.1681  0.7634 -0.1937
   44MOL   H29616722   2.771   7.053   5.346  1.6548 -1.4026  3.3309
   44MOL   H29716723   2.791   6.683   5.248 -0.0493 -0.1294 -0.5507
   44MOL   H29816724   2.993   6.608   5.113 -0.5522 -0.7429  0.2444
   44MOL   H29916725   3.197   6.729   4.952  0.7583 -0.8504 -0.0472
   44MOL   H30016726   3.292   6.798   5.091 -1.7576  1.7088 -0.0356
   44MOL   H30116727   3.234   6.629   5.092 -0.9014 -0.9013 -0.5256
   44MOL   H30216728   3.165   6.981   5.125  0.4626 -0.6760 -0.2599
   44MOL   H30316729   2.983   7.071   5.253  1.1853 -0.9717 -0.8212
   44MOL   H30416730   2.701   6.790   5.471  0.2369  0.6462 -0.0285
   44MOL   H30516731   2.640   6.940   5.528  1.0246  1.7071  1.1172
   44MOL   C30616732   2.846   6.910   5.576  0.1374 -0.5225 -0.5116
   44MOL   C30716733   2.819   6.842   5.715  0.4136  0.2838  0.1663
   44MOL   C30816734   2.717   6.889   5.800  0.2969  0.7303 -0.0470
   44MOL   C30916735   2.691   6.826   5.920  0.2852 -0.1201 -0.2683
   44MOL   C31016736   2.782   6.722   5.964 -0.7705  0.1309  0.0920
   44MOL   C31116737   2.766   6.675   6.110  0.5547 -0.1694  0.1929
   44MOL   C31216738   2.891   6.689   5.884 -0.2902 -0.3178  0.0947
   44MOL   C31316739   2.903   6.742   5.754 -0.0545  0.5240 -0.1830
   44MOL   C31416740   2.882   7.056   5.606 -0.7101  0.4922  0.9162
   44MOL   H31516741   2.928   6.859   5.526  1.2334 -1.3318  2.0346
   44MOL   H31616742   2.658   6.972   5.763 -0.3047  0.3086 -0.0255
   44MOL   H31716743   2.604   6.850   5.980 -0.7117 -2.9395 -0.5078
   44MOL   H31816744   2.662   6.659   6.139  0.8791 -0.9475  0.9590
   44MOL   H31916745   2.810   6.576   6.122 -0.7466 -1.0747 -2.1477
   44MOL   H32016746   2.816   6.744   6.178 -1.3936  1.0165  0.4585
   44MOL   H32116747   2.968   6.620   5.914  1.7520  1.7935 -0.1223
   44MOL   H32216748   2.980   6.716   5.683 -1.4730 -0.4495 -1.3715
   44MOL   H32316749   2.795   7.102   5.653 -0.6099  1.5549  0.0963
   44MOL   H32416750   2.890   7.101   5.506 -1.5133  1.3759  1.2453
   44MOL   C32516751   3.013   7.087   5.687  0.3695  0.0755 -0.1183
   44MOL   C32616752   3.012   7.233   5.734  0.2804  0.3011 -0.1981
   44MOL   C32716753   2.963   7.340   5.649 -0.2574  0.4545 -0.8336
   44MOL   C32816754   2.985   7.477   5.678 -0.3177  0.1850 -0.9889
   44MOL   C32916755   3.048   7.504   5.803  0.4456 -0.6961  0.0889
   44MOL   C33016756   3.074   7.647   5.847 -0.0014  0.3891 -0.4668
   44MOL   C33116757   3.081   7.402   5.894  0.4396 -0.0283  0.2569
   44MOL   C33216758   3.065   7.270   5.860  0.4389  0.7304 -0.8753
   44MOL   C33316759   3.141   7.062   5.614 -0.7472 -0.5389 -0.3052
   44MOL   H33416760   3.007   7.031   5.780  1.6540  1.3771  0.7835
   44MOL   H33516761   2.924   7.320   5.551 -2.4953 -0.6822  0.2604
   44MOL   H33616762   2.954   7.556   5.610 -0.3751 -0.1882 -1.3985
   44MOL   H33716763   3.004   7.719   5.804 -0.0591  0.6144 -0.0027
   44MOL   H33816764   3.071   7.659   5.955  1.0064  0.3488 -0.4270
   44MOL   H33916765   3.175   7.665   5.810 -0.2187  2.1471 -0.2386
   44MOL   H34016766   3.126   7.436   5.986 -2.2273  0.6709  1.3341
   44MOL   H34116767   3.099   7.197   5.931 -0.0524 -0.4719 -1.8589
   44MOL   H34216768   3.159   7.137   5.537 -0.6900 -2.5611 -2.3086
   44MOL   H34316769   3.141   6.967   5.561  2.6398 -0.3851 -0.6931
   44MOL   C34416770   3.275   7.058   5.696 -0.5329 -0.1372 -0.1188
   44MOL   C34516771   3.397   7.085   5.610  0.7675 -0.4965  0.6745
   44MOL   C34616772   3.409   7.003   5.496 -0.2825 -0.0894  0.5784
   44MOL   C34716773   3.528   7.000   5.421  0.5932  0.7107 -0.4173
   44MOL   C34816774   3.629   7.089   5.457  0.3291  0.8108  0.1339
   44MOL   C34916775   3.760   7.093   5.375  0.5029  0.3861 -0.7272
   44MOL   C35016776   3.608   7.193   5.554 -0.2551  0.0417  0.1515
   44MOL   C35116777   3.496   7.181   5.639 -0.6266  0.4640 -0.0302
   44MOL   C35216778   3.295   6.922   5.773  0.4432  0.7527 -0.2995
   44MOL   H35316779   3.266   7.147   5.759 -3.5006  0.0268 -0.6723
   44MOL   H35416780   3.332   6.932   5.469 -1.3095  1.2969 -0.2323
   44MOL   H35516781   3.550   6.929   5.342  1.3126  2.7940 -2.1417
   44MOL   H35616782   3.845   7.133   5.430  0.4172 -1.4879  0.8530
   44MOL   H35716783   3.795   6.991   5.358 -1.7194 -0.6562  0.7293
   44MOL   H35816784   3.751   7.150   5.283  0.5612  2.2033  0.3746
   44MOL   H35916785   3.679   7.271   5.577  1.3539 -1.0250 -1.1079
   44MOL   H36016786   3.472   7.251   5.718  1.9005 -0.8428  1.9786
   44MOL   H36116787   3.340   6.859   5.696  1.4831  0.1103  0.8203
   44MOL   H36216788   3.199   6.872   5.788  0.2858  1.4796  1.2957
   44MOL   C36316789   3.377   6.921   5.901 -0.0157 -0.1840 -0.3494
   44MOL   C36416790   3.449   6.785   5.930  0.4800 -0.1913  1.1931
   44MOL   C36516791   3.376   6.673   5.962  0.3549  0.1948  0.1914
   44MOL   C36616792   3.436   6.550   6.001 -0.2877 -0.1721 -0.4746
   44MOL   C36716793   3.577   6.545   5.998  0.2448 -0.1514  0.3956
   44MOL   C36816794   3.651   6.418   6.026  0.0050 -0.1955  0.2069
   44MOL   C36916795   3.656   6.666   5.978 -0.3016  0.5853 -0.3361
   44MOL   C37016796   3.591   6.782   5.938  0.3434  0.5505 -0.4516
   44MOL   C37116797   3.303   6.977   6.024  0.5542 -0.0931  0.2844
   44MOL   H37216798   3.459   6.988   5.875  1.2412 -1.4991  0.1780
   44MOL   H37316799   3.269   6.671   5.953  0.2268  1.8988  1.0764
   44MOL   H37416800   3.374   6.462   6.005 -1.0514  0.4476  2.5516
   44MOL   H37516801   3.760   6.422   6.028  0.0402 -0.2207 -1.0003
   44MOL   H37616802   3.621   6.381   6.124  1.2897  2.4208  1.6405
   44MOL   H37716803   3.612   6.340   5.960  0.1168 -0.3463  0.3213
   44MOL   H37816804   3.762   6.650   5.967 -0.0711  1.3272  0.7583
   44MOL   H37916805   3.646   6.873   5.920 -0.3895  0.9939 -0.4831
   44MOL   H38016806   3.365   6.960   6.112  1.0109 -0.7091 -0.1414
   44MOL   H38116807   3.213   6.921   6.047  0.8063  0.2990  2.2888
   44MOL   H38216808   3.283   7.083   6.017  0.3723 -0.2420 -2.2418
   45MOL     C116809   0.198   4.635   7.870  0.1314 -0.6265 -0.6312
   45MOL     C216810   0.116   4.574   7.756 -0.0982  0.2682 -0.3140
   45MOL     C316811   0.184   4.557   7.635 -0.0794  0.3129  0.6168
   45MOL     C416812   0.117   4.526   7.517 -0.2869 -0.1161 -0.2257
   45MOL     C516813   8.062   4.496   7.519  0.0920 -0.0261 -0.6583
   45MOL     C616814   7.990   4.440   7.402 -0.4822  0.5526  1.2037
   45MOL     C716815   7.992   4.511   7.637  0.5344 -0.6706  0.0523
   45MOL     C816816   8.054   4.552   7.757  0.2562 -0.2322 -0.7785
   45MOL     C916817   0.254   4.782   7.846  0.4735 -0.0776 -0.4176
   45MOL    H1016818   0.139   4.647   7.961  3.1885 -0.4565  1.4351
   45MOL    H1116819   0.285   4.594   7.631  0.4989 -1.1054  1.5307
   45MOL    H1216820   0.172   4.517   7.424  0.1961  0.4454  0.0033
   45MOL    H1316821   8.056   4.472   7.322  0.6607  1.4186  2.4846
   45MOL    H1416822   7.984   4.331   7.398 -1.7138  0.4904  3.5796
   45MOL    H1516823   7.891   4.483   7.384 -0.2924  0.5295  0.0642
   45MOL    H1616824   7.887   4.493   7.623  0.9925 -1.0526 -3.2810
   45MOL    H1716825   7.995   4.561   7.847  1.1435  0.0545 -0.2162
   45MOL    H1816826   0.177   4.858   7.833  0.8158  0.3439  0.0446
   45MOL    H1916827   0.307   4.761   7.752  0.9796 -0.1473 -0.1207
   45MOL    H2016828   0.276   4.565   7.899  1.9018  1.1877 -0.8262
   45MOL    C2116829   0.348   4.843   7.947 -0.4942 -0.0544 -0.5502
   45MOL    C2216830   0.292   4.825   0.009 -0.2345  0.4527  0.2712
   45MOL    C2316831   0.170   4.887   0.042  0.2837 -0.1251  0.5809
   45MOL    C2416832   0.130   4.909   0.174  0.1674  0.5665  0.2726
   45MOL    C2516833   0.212   4.858   0.275  0.3841  0.4545  0.1456
   45MOL    C2616834   0.185   4.898   0.414  0.2664  0.4089 -0.8600
   45MOL    C2716835   0.333   4.781   0.245 -0.3313  0.1712  0.3994
   45MOL    C2816836   0.368   4.763   0.108  0.5776 -0.4120 -0.2875
   45MOL    C2916837   0.376   4.995   7.901  0.1682  0.4194 -0.3243
   45MOL    H3016838   0.440   4.785   7.952 -1.3023 -1.1440  2.0659
   45MOL    H3116839   0.112   4.926   8.040  2.0017 -0.6882 -0.9330
   45MOL    H3216840   0.041   4.966   0.197  0.0611  0.0177  1.2751
   45MOL    H3316841   0.151   4.812   0.473  0.5920 -1.1700 -2.9255
   45MOL    H3416842   0.273   4.952   0.447 -0.6142  1.1407  0.3341
   45MOL    H3516843   0.095   4.959   0.416  1.6846  2.5001 -0.1028
   45MOL    H3616844   0.408   4.747   0.316  1.1478 -0.2116 -1.3062
   45MOL    H3716845   0.463   4.720   0.081  0.7776  0.5991 -1.2424
   45MOL    H3816846   0.283   5.052   7.907  0.1621  0.3875 -0.0957
   45MOL    H3916847   0.412   5.017   7.801  1.5255  0.4138  0.1537
   45MOL    C4016848   0.450   5.086   8.001 -0.5639 -0.1107  0.2084
   45MOL    C4116849   0.419   5.235   7.973  0.3441  0.1283  0.3701
   45MOL    C4216850   0.351   5.312   8.067  0.5392 -0.0386  0.8633
   45MOL    C4316851   0.312   5.447   8.035 -0.0975  0.0263 -0.1351
   45MOL    C4416852   0.363   5.505   7.915 -0.5415  0.0774  0.4692
   45MOL    C4516853   0.352   5.654   7.885  0.0518 -0.0414 -0.0646
   45MOL    C4616854   0.440   5.429   7.822  0.7594 -0.7063  0.2731
   45MOL    C4716855   0.458   5.291   7.850 -0.3598 -0.0870 -0.0073
   45MOL    C4816856   0.605   5.060   7.989 -0.1903 -1.2377 -0.5133
   45MOL    H4916857   0.428   5.058   0.023 -1.9355 -1.7991 -0.5362
   45MOL    H5016858   0.316   5.268   0.078 -2.2658  2.6151  1.1384
   45MOL    H5116859   0.246   5.487   0.031 -1.7992  1.6740 -2.4218
   45MOL    H5216860   0.319   5.659   7.781 -0.7608 -1.0339  0.1327
   45MOL    H5316861   0.272   5.697   7.945 -1.2229 -0.9994 -1.0417
   45MOL    H5416862   0.442   5.712   7.905 -2.0434  3.1990  0.4227
   45MOL    H5516863   0.479   5.473   7.731  1.8932  1.0504  1.5770
   45MOL    H5616864   0.516   5.219   7.793 -1.4751 -0.6613 -0.4377
   45MOL    H5716865   0.637   5.074   7.886  0.5056 -0.8515 -0.2527
   45MOL    H5816866   0.629   4.954   7.994 -0.2309 -1.2323 -0.1373
   45MOL    C5916867   0.696   5.142   0.006 -0.2681 -0.2041  0.7058
   45MOL    C6016868   0.842   5.118   8.050 -0.1435  0.3852  0.0893
   45MOL    C6116869   0.918   5.005   0.008 -0.7081  0.7822  0.6721
   45MOL    C6216870   1.045   4.975   8.038  0.1347  0.1674  0.2986
   45MOL    C6316871   1.092   5.068   7.936  0.1439  0.0041 -0.5573
   45MOL    C6416872   1.233   5.052   7.893  0.5565 -0.1576 -0.1452
   45MOL    C6516873   1.023   5.185   7.905  0.2357 -0.8948 -0.8612
   45MOL    C6616874   0.895   5.205   7.952  0.7708  0.4224  0.5170
   45MOL    C6716875   0.658   5.127   0.156  0.2917  0.0716  0.2005
   45MOL    H6816876   0.683   5.250   8.071 -1.1884 -0.4677 -0.4796
   45MOL    H6916877   0.879   4.944   0.088 -5.7420  1.5621 -1.0731
   45MOL    H7016878   1.104   4.889   8.065 -0.2507 -0.5758 -1.1492
   45MOL    H7116879   1.298   5.012   7.971  0.7903  1.2352  0.3935
   45MOL    H7216880   1.231   4.981   7.810  0.9010 -0.6295  0.2511
   45MOL    H7316881   1.277   5.148   7.864  2.6385 -1.6023 -1.8374
   45MOL    H7416882   1.074   5.256   7.841 -0.0939 -1.5200 -1.8213
   45MOL    H7516883   0.834   5.288   7.919  0.0037  0.6387  2.3746
   45MOL    H7616884   0.660   5.023   0.189  4.5320  0.2328  0.8025
   45MOL    H7716885   0.553   5.156   0.160  0.2245 -0.1773  0.2941
   45MOL    C7816886   0.732   5.215   0.261 -0.0076 -0.0976  0.3545
   45MOL    C7916887   0.724   5.160   0.404  0.3156  0.8204  0.4954
   45MOL    C8016888   0.839   5.151   0.488 -0.1565 -0.6549  0.2282
   45MOL    C8116889   0.835   5.089   0.611  0.1663  0.5075  0.0661
   45MOL    C8216890   0.710   5.037   0.653 -0.0074 -0.0873  0.2077
   45MOL    C8316891   0.705   4.965   0.787  0.0030 -0.4600 -0.1999
   45MOL    C8416892   0.593   5.052   0.577  0.2946  0.2549  0.1363
   45MOL    C8516893   0.604   5.108   0.447  0.1142  0.2503 -0.2975
   45MOL    C8616894   0.695   5.368   0.258  0.1263 -0.0004  0.1349
   45MOL    H8716895   0.836   5.207   0.229  1.0762 -1.2832  3.9339
   45MOL    H8816896   0.934   5.184   0.448  0.7795 -1.6937  1.5283
   45MOL    H8916897   0.921   5.079   0.676  0.9146  0.2773 -0.9575
   45MOL    H9016898   0.625   5.007   0.848 -0.3923  0.2194 -1.1674
   45MOL    H9116899   0.701   4.859   0.765  0.6084 -0.1557 -1.8177
   45MOL    H9216900   0.792   4.991   0.847 -3.3484  0.2545  4.6367
   45MOL    H9316901   0.503   5.000   0.605  1.6057 -2.3262 -0.3227
   45MOL    H9416902   0.521   5.102   0.378 -1.1685  0.0524  1.2334
   45MOL    H9516903   0.702   5.413   0.357  0.6492  0.0676  0.0675
   45MOL    H9616904   0.594   5.380   0.220  0.5940  0.6131 -0.9142
   45MOL    C9716905   0.783   5.458   0.158  0.8069 -0.5055  0.3597
   45MOL    C9816906   0.925   5.490   0.209  0.1394 -0.1131  0.0741
   45MOL    C9916907   0.966   5.470   0.344  0.0490 -0.5839  0.2402
   45MOL   C10016908   1.104   5.471   0.382  0.5501  0.0142  0.0459
   45MOL   C10116909   1.203   5.495   0.285  0.1356  0.8023 -0.8333
   45MOL   C10216910   1.347   5.469   0.302  0.2055 -0.7183  0.1600
   45MOL   C10316911   1.159   5.525   0.153  0.4778 -0.2588  0.2173
   45MOL   C10416912   1.023   5.520   0.108 -0.0840 -0.0570 -0.1636
   45MOL   C10516913   0.703   5.579   0.101  0.8020  0.4007 -0.6251
   45MOL   H10616914   0.795   5.404   0.064  0.0295 -0.0068 -0.0385
   45MOL   H10716915   0.891   5.452   0.420  0.0779  1.0820  0.6926
   45MOL   H10816916   1.120   5.459   0.488  1.1137  1.4190  0.1323
   45MOL   H10916917   1.417   5.535   0.251  1.4301  0.4218  3.1879
   45MOL   H11016918   1.370   5.473   0.408  1.3610  1.5428 -0.1521
   45MOL   H11116919   1.373   5.368   0.268  0.9570  0.4307 -2.8236
   45MOL   H11216920   1.234   5.547   0.080  1.5625  0.1996  1.4521
   45MOL   H11316921   1.001   5.526   0.003 -0.3809  0.0441 -0.0959
   45MOL   H11416922   0.614   5.549   0.047  0.2217  1.1803 -0.1298
   45MOL   H11516923   0.766   5.628   0.027  1.9119 -0.9015 -0.5402
   45MOL   C11616924   0.658   5.676   0.212  0.3865 -0.7210 -0.4494
   45MOL   C11716925   0.508   5.656   0.245  0.8092  0.1951 -0.2538
   45MOL   C11816926   0.403   5.701   0.153  0.1699  0.0521 -0.2505
   45MOL   C11916927   0.267   5.694   0.185  0.0430 -0.0251  0.0260
   45MOL   C12016928   0.224   5.622   0.298 -0.5740  0.1553 -0.0898
   45MOL   C12116929   0.076   5.596   0.331  0.1886  0.1359  0.3050
   45MOL   C12216930   0.321   5.566   0.388  0.0341 -0.4960 -0.0041
   45MOL   C12316931   0.462   5.596   0.365 -0.5440 -0.0317  0.4563
   45MOL   C12416932   0.680   5.829   0.188 -0.1366 -0.2540 -0.5337
   45MOL   H12516933   0.715   5.667   0.304 -0.0482  0.5215 -0.0353
   45MOL   H12616934   0.439   5.752   0.064  4.0766  2.8140  2.7479
   45MOL   H12716935   0.197   5.725   0.109  0.8148 -1.5082 -1.3295
   45MOL   H12816936   0.028   5.585   0.234 -0.5573  0.4303  0.6401
   45MOL   H12916937   0.057   5.504   0.387  1.7751 -0.8577 -0.7575
   45MOL   H13016938   0.029   5.674   0.390  0.0309  0.2931 -0.0347
   45MOL   H13116939   0.298   5.500   0.471 -1.5710 -3.4083 -2.6534
   45MOL   H13216940   0.541   5.568   0.433 -1.5211  1.3396  2.2113
   45MOL   H13316941   0.623   5.880   0.266 -0.5492 -2.8496  0.9215
   45MOL   H13416942   0.631   5.855   0.094  1.6214 -1.3985 -1.8085
   45MOL   C13516943   0.823   5.876   0.171 -0.1201  0.5043  0.1900
   45MOL   C13616944   0.892   5.885   0.304  0.5858 -0.0378 -0.3176
   45MOL   C13716945   0.846   5.978   0.395  0.6023 -0.0803 -0.2628
   45MOL   C13816946   0.916   6.006   0.515  0.3703  0.4611 -0.4966
   45MOL   C13916947   1.030   5.933   0.556  0.8467  0.0703 -0.0350
   45MOL   C14016948   1.088   5.952   0.691  0.0949  0.5560  0.1535
   45MOL   C14116949   1.074   5.835   0.464 -0.1369 -0.1753 -0.6390
   45MOL   C14216950   1.007   5.804   0.344  1.1767  0.1585 -0.7942
   45MOL   C14316951   0.841   6.005   0.089 -0.0788 -0.0252  0.1686
   45MOL   H14416952   0.873   5.792   0.123  0.5878  0.6451  0.6710
   45MOL   H14516953   0.770   6.051   0.369  0.1340  1.0207  3.8618
   45MOL   H14616954   0.883   6.083   0.584  2.1144  0.1782  0.6893
   45MOL   H14716955   1.018   5.941   0.774 -1.7825 -0.7989 -1.5416
   45MOL   H14816956   1.159   5.870   0.702 -0.1759  0.4167  0.9004
   45MOL   H14916957   1.145   6.044   0.704  0.2120  0.5152 -0.0688
   45MOL   H15016958   1.162   5.778   0.488  1.3032  1.5945 -1.6192
   45MOL   H15116959   1.040   5.723   0.280  4.0409  0.4667  0.2037
   45MOL   H15216960   0.778   6.084   0.129  0.7931  1.3043 -1.0046
   45MOL   H15316961   0.804   5.980   8.070  2.4511 -0.7832 -0.6337
   45MOL   C15416962   0.982   6.064   0.073 -0.0059  0.3405 -0.2740
   45MOL   C15516963   0.982   6.181   8.058  0.1420  0.6476 -0.9371
   45MOL   C15616964   0.997   6.309   0.021  0.2851  0.1954 -0.4892
   45MOL   C15716965   0.983   6.416   8.010  0.0963 -0.1863 -0.4890
   45MOL   C15816966   0.951   6.391   7.875 -0.4538 -0.5467 -0.9367
   45MOL   C15916967   0.938   6.496   7.776  0.2142 -0.2660 -0.5011
   45MOL   C16016968   0.948   6.260   7.830 -0.0509 -0.5668 -0.2198
   45MOL   C16116969   0.968   6.153   7.921 -0.2237 -0.7750  0.0724
   45MOL   C16216970   1.094   5.958   0.038  0.0686 -0.4351  0.2891
   45MOL   H16316971   1.011   6.095   0.174 -3.6976 -1.3328  1.4174
   45MOL   H16416972   1.034   6.318   0.122  2.4427 -3.0123 -0.8969
   45MOL   H16516973   1.015   6.514   8.040 -1.8860 -0.0925  1.4609
   45MOL   H16616974   0.832   6.512   7.760 -0.1613 -0.2820  1.8516
   45MOL   H16716975   0.992   6.580   7.820 -1.3083  1.3159 -1.6049
   45MOL   H16816976   0.989   6.471   7.683 -1.6227 -0.6155 -1.4347
   45MOL   H16916977   0.928   6.238   7.726  0.7890  2.1012 -0.9677
   45MOL   H17016978   0.964   6.049   7.892 -2.7308 -0.1946 -1.9186
   45MOL   H17116979   1.082   5.920   8.017 -0.0372 -0.1466  0.1909
   45MOL   H17216980   1.097   5.866   0.096 -0.4211 -1.3273 -1.0791
   45MOL   C17316981   1.237   6.018   0.054  0.5398  0.5070  0.0284
   45MOL   C17416982   1.337   5.933   8.055 -0.4293 -0.3935  0.1250
   45MOL   C17516983   1.401   5.821   0.030 -0.3721 -0.1927 -0.1147
   45MOL   C17616984   1.495   5.752   8.038  0.4233  0.0133  0.6389
   45MOL   C17716985   1.512   5.790   7.902  0.4601  0.2000  0.1313
   45MOL   C17816986   1.606   5.705   7.814 -0.5595  0.1617  0.2440
   45MOL   C17916987   1.445   5.899   7.839 -0.4049  0.1304  0.2892
   45MOL   C18016988   1.360   5.978   7.921 -0.4824  0.5061  0.5692
   45MOL   C18116989   1.278   6.052   0.198  0.4068  0.6145 -0.2465
   45MOL   H18216990   1.233   6.112   8.079 -0.3528 -1.0587 -2.6581
   45MOL   H18316991   1.385   5.798   0.135 -0.3170 -0.3419 -0.1383
   45MOL   H18416992   1.555   5.677   0.007 -1.5779  0.5823  4.1410
   45MOL   H18516993   1.702   5.757   7.819  0.3485 -1.4576  0.1218
   45MOL   H18616994   1.627   5.602   7.842  2.7439 -0.0007 -2.4600
   45MOL   H18716995   1.582   5.706   7.707  2.2447 -2.9509 -0.5190
   45MOL   H18816996   1.447   5.928   7.735  2.8542 -0.0347  0.2608
   45MOL   H18916997   1.308   6.061   7.876  0.5623  0.7199 -0.2844
   45MOL   H19016998   1.278   5.950   0.238 -0.6015  0.2505 -1.1260
   45MOL   H19116999   1.199   6.107   0.250 -0.2466 -0.8024  0.3112
   45MOL   C19217000   1.426   6.100   0.224 -1.1868 -0.2310 -0.5144
   45MOL   C19317001   1.472   6.072   0.370 -0.4399 -0.5383  0.0529
   45MOL   C19417002   1.385   6.084   0.483 -0.4411 -0.3654 -0.1785
   45MOL   C19517003   1.437   6.065   0.611  0.1157  0.0758 -0.6060
   45MOL   C19617004   1.569   6.050   0.633 -0.3434 -0.9292 -0.4582
   45MOL   C19717005   1.630   6.049   0.767 -0.2186  0.9719 -0.0859
   45MOL   C19817006   1.656   6.031   0.524  0.1277 -0.4286  0.1940
   45MOL   C19917007   1.610   6.049   0.393 -0.2811  0.4230  0.0467
   45MOL   C20017008   1.456   6.247   0.184  0.1287 -0.4889  0.4670
   45MOL   H20117009   1.495   6.040   0.165  0.3271 -0.1493  1.1265
   45MOL   H20217010   1.280   6.102   0.464  0.0788  1.4423 -1.3951
   45MOL   H20317011   1.373   6.074   0.697  1.3094  1.4080  0.1679
   45MOL   H20417012   1.685   5.956   0.780  0.5313  1.0595 -2.3012
   45MOL   H20517013   1.699   6.133   0.768  2.6573 -1.3457  2.1804
   45MOL   H20617014   1.557   6.051   0.847 -0.9254  0.3568 -0.7024
   45MOL   H20717015   1.761   6.008   0.532 -0.0553 -2.1626 -2.0305
   45MOL   H20817016   1.673   6.045   0.306  1.3675  0.4883  1.2238
   45MOL   H20917017   1.510   6.292   0.267 -1.8337  0.6687  1.1624
   45MOL   H21017018   1.363   6.304   0.186  1.2455  1.3680  0.0483
   45MOL   C21117019   1.528   6.271   0.051 -0.5533  0.2418 -0.5230
   45MOL   C21217020   1.667   6.220   0.062  0.0679 -0.1123  0.2184
   45MOL   C21317021   1.755   6.276   0.154 -0.1334  0.1712  0.2421
   45MOL   C21417022   1.885   6.226   0.170  0.2917  0.3218  0.2004
   45MOL   C21517023   1.923   6.111   0.106 -0.6089 -0.4382  0.0653
   45MOL   C21617024   2.055   6.033   0.139 -0.1540 -0.7162  0.2388
   45MOL   C21717025   1.837   6.052   0.016  0.5607  0.3169 -0.1725
   45MOL   C21817026   1.708   6.107   8.068 -0.0995 -0.2194 -0.2547
   45MOL   C21917027   1.524   6.425   0.021 -0.1073  0.6806 -0.7795
   45MOL   H22017028   1.479   6.215   8.052  0.3600 -0.1840 -0.7916
   45MOL   H22117029   1.708   6.358   0.207 -0.7196  0.8536 -1.3236
   45MOL   H22217030   1.951   6.285   0.232 -0.9634  0.1426  1.7537
   45MOL   H22317031   2.079   5.975   0.049 -0.3823 -1.6438  0.7724
   45MOL   H22417032   2.136   6.106   0.145 -0.2275 -0.6984  0.9555
   45MOL   H22517033   2.056   5.977   0.232  1.2035  2.0609  1.9347
   45MOL   H22617034   1.863   5.953   8.060  0.8184  0.7054 -1.0566
   45MOL   H22717035   1.644   6.059   7.995  0.4554  0.2475 -1.0525
   45MOL   H22817036   1.613   6.457   8.048 -1.1508  0.1653 -2.8822
   45MOL   H22917037   1.518   6.472   0.119 -0.9663 -2.8740  0.9669
   45MOL   C23017038   1.401   6.487   8.024  0.8939 -0.3849  0.3102
   45MOL   C23117039   1.392   6.429   7.884 -0.1288 -0.2155 -0.0719
   45MOL   C23217040   1.306   6.321   7.848 -0.4906 -0.7581  0.2297
   45MOL   C23317041   1.290   6.275   7.714 -0.2853 -0.5406  0.0367
   45MOL   C23417042   1.376   6.325   7.619 -0.0595 -0.4019  0.2856
   45MOL   C23517043   1.370   6.277   7.475  0.7103 -0.0621  0.4446
   45MOL   C23617044   1.473   6.422   7.650 -0.1507 -0.7899  0.3480
   45MOL   C23717045   1.484   6.470   7.783  0.5905 -0.5999 -0.0095
   45MOL   C23817046   1.423   6.642   8.028  0.2966 -0.3962  0.3765
   45MOL   H23917047   1.304   6.464   8.066  0.3190  0.2695 -0.6389
   45MOL   H24017048   1.233   6.286   7.919 -0.7019  0.4082  0.5880
   45MOL   H24117049   1.216   6.200   7.692 -0.4451  0.1894 -1.9803
   45MOL   H24217050   1.271   6.234   7.457  1.7314 -1.8178 -1.0407
   45MOL   H24317051   1.388   6.347   7.393  1.1449 -1.3586 -0.5890
   45MOL   H24417052   1.448   6.206   7.449 -0.5704 -1.3640  0.0886
   45MOL   H24517053   1.540   6.464   7.576 -1.5045 -2.1554 -1.7152
   45MOL   H24617054   1.562   6.539   7.810  0.6916 -1.4257  1.8620
   45MOL   H24717055   1.378   6.690   7.941  0.6495  1.7285  1.3414
   45MOL   H24817056   1.527   6.655   7.998  0.3073 -2.3134 -0.5365
   45MOL   C24917057   1.380   6.707   0.088 -0.3794 -0.0862  0.3648
   45MOL   C25017058   1.225   6.728   0.078  0.2657  0.1469  0.3119
   45MOL   C25117059   1.158   6.817   8.074 -0.3164 -0.4174  0.4937
   45MOL   C25217060   1.017   6.818   8.059  0.5959  0.0745 -0.7915
   45MOL   C25317061   0.939   6.734   0.061 -0.2885  0.0656 -1.0248
   45MOL   C25417062   0.792   6.724   0.039 -0.2162 -0.4124 -0.4433
   45MOL   C25517063   1.003   6.652   0.158  0.2921 -0.1733  0.6832
   45MOL   C25617064   1.144   6.641   0.163 -0.3763  0.7006  0.4984
   45MOL   C25717065   1.438   6.847   0.116  0.1638 -0.1964 -0.4456
   45MOL   H25817066   1.394   6.639   0.172  0.4036 -2.5706 -1.7150
   45MOL   H25917067   1.218   6.884   8.014  0.7330 -1.5925  0.2002
   45MOL   H26017068   0.971   6.889   7.992  0.9914 -0.8049 -2.0266
   45MOL   H26117069   0.747   6.783   0.118 -1.2355  0.2159 -1.4655
   45MOL   H26217070   0.758   6.771   8.026  0.4045  1.8517  0.4507
   45MOL   H26317071   0.747   6.628   0.063 -0.7468  0.6719  3.2304
   45MOL   H26417072   0.942   6.583   0.214 -0.0598 -1.0527 -0.7589
   45MOL   H26517073   1.188   6.581   0.242 -0.7960  0.4607  0.5519
   45MOL   H26617074   1.390   6.886   0.206  1.0640 -0.6282  0.2365
   45MOL   H26717075   1.407   6.916   0.038 -1.0800  0.0839  0.2878
   45MOL   C26817076   1.596   6.839   0.126 -0.4829 -0.3788  0.6907
   45MOL   C26917077   1.645   6.769   0.258 -0.6038 -0.1173  0.9551
   45MOL   C27017078   1.728   6.655   0.250  0.1088 -0.0833 -0.1990
   45MOL   C27117079   1.760   6.581   0.363 -0.3124 -0.4827 -0.1149
   45MOL   C27217080   1.704   6.619   0.485  0.4880  0.8214 -0.2718
   45MOL   C27317081   1.729   6.536   0.607 -0.7381  0.1551 -0.7971
   45MOL   C27417082   1.638   6.746   0.499 -1.0002 -0.5928 -0.1402
   45MOL   C27517083   1.608   6.817   0.385  0.3072  0.5824  0.1040
   45MOL   C27617084   1.658   6.981   0.120 -0.1513 -0.0632  0.0609
   45MOL   H27717085   1.643   6.777   0.050 -1.8558 -0.6937  0.0891
   45MOL   H27817086   1.749   6.613   0.153  2.6302  0.3793  0.1166
   45MOL   H27917087   1.813   6.488   0.360 -0.3091 -0.5574  1.9962
   45MOL   H28017088   1.754   6.606   0.687  1.2637 -1.8760  0.4084
   45MOL   H28117089   1.648   6.477   0.650 -0.4323  1.2163  1.2885
   45MOL   H28217090   1.814   6.471   0.589 -1.0162 -0.8205  1.2282
   45MOL   H28317091   1.612   6.789   0.595  1.0456  0.3817  0.0123
   45MOL   H28417092   1.557   6.912   0.396 -1.9963 -0.4161 -1.4763
   45MOL   H28517093   1.760   6.973   0.155  0.9915 -0.3991 -3.1745
   45MOL   H28617094   1.616   7.042   0.200 -1.6010 -0.8360 -0.0898
   45MOL   C28717095   1.642   7.058   8.058 -0.4645  0.5176  0.2628
   45MOL   C28817096   1.680   6.972   7.938  0.0396 -0.1600  0.2721
   45MOL   C28917097   1.798   6.891   7.946  0.5955 -0.5685  0.5505
   45MOL   C29017098   1.838   6.819   7.827 -0.0605  0.8630 -0.2136
   45MOL   C29117099   1.759   6.827   7.710  0.9206 -0.6613 -0.0224
   45MOL   C29217100   1.799   6.747   7.587 -0.9954  0.1954 -0.5124
   45MOL   C29317101   1.639   6.898   7.708  0.5930  1.2063 -0.6008
   45MOL   C29417102   1.606   6.974   7.819 -0.1409 -0.3009 -0.5683
   45MOL   C29517103   1.692   7.202   8.043 -0.1361  0.1337 -0.0115
   45MOL   H29617104   1.535   7.064   8.038 -0.8447 -0.6795  1.8894
   45MOL   H29717105   1.856   6.878   8.036 -0.0984 -1.5692  0.8634
   45MOL   H29817106   1.926   6.756   7.819 -0.5700  0.3388 -1.7860
   45MOL   H29917107   1.764   6.803   7.501  0.4490  2.6127  0.4328
   45MOL   H30017108   1.907   6.739   7.569 -0.7214  1.2168  0.6658
   45MOL   H30117109   1.739   6.657   7.573 -1.2238  0.4073 -0.8884
   45MOL   H30217110   1.581   6.905   7.617 -0.4477  4.2100  0.2170
   45MOL   H30317111   1.519   7.038   7.819 -0.1855 -0.3241  2.2845
   45MOL   H30417112   1.622   7.267   0.016 -0.0195  0.4893 -0.2932
   45MOL   H30517113   1.676   7.221   7.937  0.3793  0.7402  0.0186
   45MOL   C30617114   1.840   7.237   8.065 -0.2486 -0.3182  0.1513
   45MOL   C30717115   1.883   7.240   0.128  0.5264  0.4890 -0.5082
   45MOL   C30817116   1.810   7.321   0.221  0.1350 -0.4007  0.3088
   45MOL   C30917117   1.845   7.336   0.355  0.3443 -0.2120  0.2287
   45MOL   C31017118   1.968   7.272   0.395 -0.7605  0.7181  0.6742
   45MOL   C31117119   2.019   7.318   0.534  0.1003 -0.1934 -0.5441
   45MOL   C31217120   2.040   7.186   0.309  0.7178 -1.1636  0.3480
   45MOL   C31317121   1.998   7.173   0.173  0.3839  0.1743 -0.1072
   45MOL   C31417122   1.888   7.364   7.983 -0.3484 -0.5233 -0.1656
   45MOL   H31517123   1.895   7.157   8.016 -1.1470 -0.2872 -0.9428
   45MOL   H31617124   1.723   7.372   0.181 -1.2313 -2.2298  0.8924
   45MOL   H31717125   1.804   7.409   0.424 -0.1700  0.7904 -1.1193
   45MOL   H31817126   1.938   7.312   0.608 -0.6905  0.6127 -1.3288
   45MOL   H31917127   2.104   7.260   0.570 -0.5025 -1.3310 -0.9001
   45MOL   H32017128   2.061   7.418   0.528  0.0649 -0.1961 -0.8207
   45MOL   H32117129   2.130   7.134   0.338  1.4633  0.0468  0.2214
   45MOL   H32217130   2.058   7.112   0.106  0.4598 -0.4692  0.5436
   45MOL   H32317131   1.988   7.392   8.017 -0.6172 -1.0671  1.0668
   45MOL   H32417132   1.821   7.448   8.005  1.0233  0.4144  0.5232
   45MOL   C32517133   1.895   7.357   7.829  0.2078  0.1050 -0.2405
   45MOL   C32617134   1.999   7.255   7.792 -0.1305  0.8522  0.2153
   45MOL   C32717135   1.951   7.131   7.740 -0.0814 -1.0775 -0.3052
   45MOL   C32817136   2.036   7.031   7.698 -0.1841  0.4350 -0.3079
   45MOL   C32917137   2.174   7.054   7.691 -0.6565 -0.5785 -0.5267
   45MOL   C33017138   2.269   6.954   7.635 -0.1622 -0.6928 -0.0916
   45MOL   C33117139   2.222   7.178   7.739  0.2176  0.3130 -0.5327
   45MOL   C33217140   2.139   7.278   7.797  0.1093 -0.2957 -0.2927
   45MOL   C33317141   1.901   7.497   7.755  0.6158 -0.0117 -0.2542
   45MOL   H33417142   1.801   7.312   7.797  0.1461  0.7402 -0.9593
   45MOL   H33517143   1.844   7.121   7.726 -0.6118  1.3479  1.7930
   45MOL   H33617144   2.003   6.937   7.657 -0.3737  0.7731 -0.9425
   45MOL   H33717145   2.359   7.003   7.597 -1.4939  0.8951 -1.2411
   45MOL   H33817146   2.305   6.892   7.717  1.3392 -0.2070 -0.3704
   45MOL   H33917147   2.223   6.895   7.556  1.2051  2.2555 -3.2101
   45MOL   H34017148   2.325   7.212   7.732 -0.4271  2.3482 -0.3818
   45MOL   H34117149   2.187   7.366   7.837 -0.1131 -0.0096 -0.6382
   45MOL   H34217150   1.993   7.549   7.781  1.6302 -1.8365 -0.0720
   45MOL   H34317151   1.828   7.562   7.803 -0.5538 -0.9325 -0.7468
   45MOL   C34417152   1.889   7.489   7.602 -0.4378  0.1567  0.0809
   45MOL   C34517153   1.937   7.628   7.544 -0.2630  0.2184 -0.5819
   45MOL   C34617154   1.863   7.751   7.569 -0.6103  0.2381 -0.0108
   45MOL   C34717155   1.907   7.867   7.500  0.0603 -0.4483  0.3319
   45MOL   C34817156   2.025   7.873   7.426  0.6304  0.4875  0.3236
   45MOL   C34917157   2.074   8.007   7.364  0.7717  0.0748 -0.4021
   45MOL   C35017158   2.100   7.757   7.412  0.1053  0.1594  0.2450
   45MOL   C35117159   2.058   7.635   7.466  0.2314 -0.5704 -0.1607
   45MOL   C35217160   1.750   7.445   7.564 -0.4630  0.0778  0.1110
   45MOL   H35317161   1.961   7.415   7.566 -0.4439  0.2130 -0.0452
   45MOL   H35417162   1.776   7.750   7.632 -0.8107  1.1831 -0.2592
   45MOL   H35517163   1.842   7.952   7.511 -1.0575 -1.4960  2.0859
   45MOL   H35617164   2.121   7.992   7.267 -0.4518  1.2756 -1.1797
   45MOL   H35717165   2.004   0.007   7.341  1.4282  0.2900 -1.6779
   45MOL   H35817166   2.165   8.033   7.419  2.6008 -0.4550 -3.0849
   45MOL   H35917167   2.195   7.755   7.361 -0.1485  2.7513 -0.4473
   45MOL   H36017168   2.122   7.550   7.450 -0.1840 -1.4751  2.6162
   45MOL   H36117169   1.672   7.509   7.606 -1.7659  0.2113 -2.3988
   45MOL   H36217170   1.729   7.348   7.609  4.2372 -0.8158  0.5832
   45MOL   C36317171   1.702   7.438   7.422  1.1914 -0.3573 -0.5916
   45MOL   C36417172   1.554   7.401   7.406 -0.2728  0.0003 -0.4363
   45MOL   C36517173   1.462   7.508   7.375  0.1086 -0.5093 -0.5653
   45MOL   C36617174   1.332   7.467   7.347 -0.2699 -0.0691  0.6020
   45MOL   C36717175   1.293   7.334   7.344  0.4094 -0.2440  0.6807
   45MOL   C36817176   1.152   7.292   7.315  0.5335  0.0338 -0.3937
   45MOL   C36917177   1.388   7.235   7.375 -0.5274  0.0228  1.0442
   45MOL   C37017178   1.517   7.267   7.410  0.3230 -0.0116 -0.4879
   45MOL   C37117179   1.792   7.347   7.346  0.4889 -0.3213  0.7737
   45MOL   H37217180   1.722   7.537   7.380 -1.2713  0.3023 -0.2641
   45MOL   H37317181   1.481   7.613   7.360 -0.1820 -0.4388 -0.4525
   45MOL   H37417182   1.263   7.547   7.325  2.9455  2.0622 -2.0536
   45MOL   H37517183   1.154   7.212   7.241  2.8507  1.4154 -1.9034
   45MOL   H37617184   1.099   7.260   7.405 -0.3535  1.3894 -0.4397
   45MOL   H37717185   1.097   7.371   7.265 -0.5200  0.8292  1.9363
   45MOL   H37817186   1.360   7.130   7.373 -4.0209  0.9252 -0.5062
   45MOL   H37917187   1.591   7.192   7.433 -1.0900 -1.0167  0.7845
   45MOL   H38017188   1.894   7.385   7.332  1.3674 -2.4724  1.1815
   45MOL   H38117189   1.755   7.337   7.244  0.4841  1.2524  0.6035
   45MOL   H38217190   1.808   7.255   7.401  1.8030 -0.0948  0.7923
   46MOL     C117191   3.219   5.977   4.931 -0.6529  0.4489  0.4549
   46MOL     C217192   3.248   5.986   4.792  0.4837  0.2848 -0.0162
   46MOL     C317193   3.375   5.936   4.739  1.2919 -0.0157 -0.1877
   46MOL     C417194   3.385   5.930   4.599  0.0007  0.1222  0.1018
   46MOL     C517195   3.285   5.974   4.514 -0.6638 -0.0223  0.2288
   46MOL     C617196   3.300   5.977   4.368  0.0727  0.2734  0.5415
   46MOL     C717197   3.155   6.008   4.568 -0.2199 -0.4083 -0.0469
   46MOL     C817198   3.142   6.022   4.703 -0.5823  0.9888  0.3822
   46MOL     C917199   3.225   6.112   5.003 -0.3647 -0.6641 -0.3866
   46MOL    H1017200   3.124   5.925   4.945 -0.6249  0.7303  1.8330
   46MOL    H1117201   3.463   5.896   4.788  0.6861 -0.3702  0.6286
   46MOL    H1217202   3.472   5.885   4.553 -0.7514 -0.5782 -0.6638
   46MOL    H1317203   3.211   5.937   4.318  1.0647 -0.4478 -0.6494
   46MOL    H1417204   3.323   6.078   4.335 -3.2410  1.0895  0.4764
   46MOL    H1517205   3.383   5.910   4.346 -0.2347 -0.3930  1.3613
   46MOL    H1617206   3.070   6.019   4.502  0.1893  0.7776 -0.4029
   46MOL    H1717207   3.051   6.045   4.756 -0.7377 -1.9665  1.4909
   46MOL    H1817208   3.152   6.174   4.951 -2.7352 -2.5431  0.5932
   46MOL    H1917209   3.322   6.157   4.979  0.1193 -0.6777  1.4610
   46MOL    H2017210   3.299   5.912   4.966 -1.1331 -0.4105 -0.0181
   46MOL    C2117211   3.214   6.112   5.158  0.3077 -0.5378  0.0514
   46MOL    C2217212   3.292   5.998   5.234  0.6074  0.8048  0.0252
   46MOL    C2317213   3.235   5.871   5.247  0.1188  0.1407 -0.1065
   46MOL    C2417214   3.299   5.764   5.314 -0.0610 -0.0678 -0.1422
   46MOL    C2517215   3.427   5.790   5.381  0.3612 -0.4071  0.4485
   46MOL    C2617216   3.503   5.680   5.446 -0.5447 -0.2621 -0.2199
   46MOL    C2717217   3.480   5.924   5.370  0.3517 -0.1752  0.7666
   46MOL    C2817218   3.412   6.026   5.299 -0.5859  0.1287  0.2827
   46MOL    C2917219   3.076   6.119   5.215 -0.2077 -0.1335 -0.3631
   46MOL    H3017220   3.266   6.201   5.194 -1.9283  0.7214  0.2419
   46MOL    H3117221   3.154   5.848   5.180 -1.3329  0.4512  1.5039
   46MOL    H3217222   3.258   5.664   5.310 -0.9838  0.2565  0.8465
   46MOL    H3317223   3.557   5.712   5.535 -0.3770  2.1419 -1.1633
   46MOL    H3417224   3.443   5.595   5.480  1.0362 -0.2308  2.8792
   46MOL    H3517225   3.569   5.643   5.368 -1.3041  0.9554 -1.4454
   46MOL    H3617226   3.575   5.956   5.410  0.2976  1.9496 -0.7595
   46MOL    H3717227   3.448   6.128   5.302 -0.4520  0.1532 -1.6542
   46MOL    H3817228   3.078   6.080   5.317  2.3495  0.7043 -0.0663
   46MOL    H3917229   3.013   6.061   5.147  2.3273 -3.8203  0.2444
   46MOL    C4017230   3.022   6.266   5.239 -0.2199 -0.6212  0.2749
   46MOL    C4117231   3.084   6.335   5.362 -0.7324 -0.3128 -0.2678
   46MOL    C4217232   3.150   6.456   5.347 -0.1562  0.0643 -0.4791
   46MOL    C4317233   3.196   6.523   5.463 -0.4924  0.5297  0.0383
   46MOL    C4417234   3.194   6.465   5.590 -0.0897  0.4678  0.1377
   46MOL    C4517235   3.242   6.532   5.711  0.5949 -0.0108 -0.0461
   46MOL    C4617236   3.133   6.336   5.607 -0.6850 -0.5871 -0.1669
   46MOL    C4717237   3.070   6.279   5.493 -0.6492 -0.0146  0.7495
   46MOL    C4817238   2.864   6.275   5.248  0.1219 -0.2585 -0.3200
   46MOL    H4917239   3.060   6.327   5.156 -0.2216  0.6666  1.2056
   46MOL    H5017240   3.158   6.504   5.250  1.5809  2.4924  0.8037
   46MOL    H5117241   3.254   6.614   5.462  1.0904 -0.4509  0.4615
   46MOL    H5217242   3.226   6.638   5.696  0.8696  0.2912  1.6517
   46MOL    H5317243   3.200   6.485   5.801 -2.0449  1.3424 -0.5193
   46MOL    H5417244   3.349   6.519   5.724  0.1303 -2.2633  2.0651
   46MOL    H5517245   3.126   6.275   5.695 -3.4808  0.1278  0.1440
   46MOL    H5617246   3.013   6.187   5.497 -1.8018  0.7781  3.0323
   46MOL    H5717247   2.825   6.364   5.296 -0.9694 -1.0956  0.3561
   46MOL    H5817248   2.847   6.198   5.324  2.4510 -0.5887 -0.1026
   46MOL    C5917249   2.778   6.237   5.124 -0.3596 -0.6065  0.3319
   46MOL    C6017250   2.811   6.319   4.994  0.0482 -0.3824 -0.2181
   46MOL    C6117251   2.775   6.456   4.984  0.0403 -0.1503  0.4908
   46MOL    C6217252   2.799   6.519   4.861  0.0999 -0.0011  0.4490
   46MOL    C6317253   2.860   6.444   4.757 -1.2769  0.4193  0.4344
   46MOL    C6417254   2.894   6.520   4.627 -0.0619  0.3167  0.2831
   46MOL    C6517255   2.878   6.307   4.765  0.3839  0.1880 -0.0039
   46MOL    C6617256   2.858   6.243   4.885 -0.1763 -0.2533 -0.2457
   46MOL    C6717257   2.626   6.247   5.164  0.5312 -0.2989 -0.8055
   46MOL    H6817258   2.809   6.133   5.113  1.5704  0.0387 -0.4940
   46MOL    H6917259   2.711   6.502   5.057 -0.1221 -0.6030  0.6379
   46MOL    H7017260   2.761   6.618   4.843 -0.9257 -0.8964 -2.4577
   46MOL    H7117261   2.803   6.523   4.566 -0.6540 -1.0561  1.0738
   46MOL    H7217262   2.916   6.625   4.649  2.4330 -0.2091  0.3833
   46MOL    H7317263   2.973   6.471   4.571 -1.1716 -1.7095  0.4332
   46MOL    H7417264   2.915   6.263   4.673 -2.4161 -0.2252 -0.9732
   46MOL    H7517265   2.888   6.140   4.899  0.1212  0.0774  1.7998
   46MOL    H7617266   2.613   6.354   5.182  1.3630 -0.6086  1.9149
   46MOL    H7717267   2.615   6.196   5.260  1.1272 -0.1780 -0.6656
   46MOL    C7817268   2.520   6.197   5.064 -0.3938  0.0941 -0.1817
   46MOL    C7917269   2.376   6.239   5.096 -0.5523  0.1026  0.8037
   46MOL    C8017270   2.344   6.303   5.215  0.3886 -0.6957 -0.6115
   46MOL    C8117271   2.205   6.334   5.246 -0.8035 -0.2997 -0.5107
   46MOL    C8217272   2.104   6.293   5.157  0.3822  0.3618  0.5725
   46MOL    C8317273   1.957   6.328   5.192 -0.0672 -0.3442  0.1306
   46MOL    C8417274   2.137   6.241   5.030 -0.2495  0.3256 -0.0197
   46MOL    C8517275   2.268   6.220   5.001  0.4654 -0.3000 -0.2026
   46MOL    C8617276   2.544   6.043   5.061  0.5482  0.0982 -0.4299
   46MOL    H8717277   2.540   6.232   4.963  1.2378 -0.3556 -0.0326
   46MOL    H8817278   2.413   6.331   5.294 -2.0524  1.8709  0.7237
   46MOL    H8917279   2.178   6.383   5.338  1.3925 -0.3573  0.1898
   46MOL    H9017280   1.936   6.298   5.294  0.5533 -1.3694 -0.0296
   46MOL    H9117281   1.948   6.434   5.170 -0.4822 -0.3017  0.4952
   46MOL    H9217282   1.900   6.265   5.123 -0.8782 -0.6305  1.0560
   46MOL    H9317283   2.066   6.224   4.951  0.1155  0.6213 -0.4170
   46MOL    H9417284   2.303   6.184   4.905  1.8472  1.7379 -0.4866
   46MOL    H9517285   2.641   6.003   5.030  0.1316 -1.9227  0.8225
   46MOL    H9617286   2.477   6.010   4.982  0.4121 -1.6115  0.3726
   46MOL    C9717287   2.510   5.951   5.184  0.2365 -0.2119 -0.4352
   46MOL    C9817288   2.635   5.926   5.277 -0.8207 -0.4113  0.3148
   46MOL    C9917289   2.756   5.869   5.228 -0.0258  0.4838 -0.0158
   46MOL   C10017290   2.864   5.847   5.317 -0.7240  0.3412 -0.2839
   46MOL   C10117291   2.858   5.896   5.450  0.3509  0.5538 -0.6252
   46MOL   C10217292   2.975   5.870   5.543  0.2217  0.0560 -0.2201
   46MOL   C10317293   2.741   5.961   5.492 -0.1787 -1.0107  0.2164
   46MOL   C10417294   2.630   5.971   5.410  0.2101 -0.6535 -0.3252
   46MOL   C10517295   2.441   5.822   5.151 -0.3572 -0.5209  0.2880
   46MOL   H10617296   2.442   6.005   5.250 -1.3429  0.3367 -2.4831
   46MOL   H10717297   2.778   5.849   5.124  3.4903  0.6479  0.6475
   46MOL   H10817298   2.949   5.796   5.273  0.1911  0.0160  1.8260
   46MOL   H10917299   2.939   5.821   5.633  2.4807  0.6044  1.0433
   46MOL   H11017300   3.056   5.816   5.494 -0.2912 -2.0163  1.1875
   46MOL   H11117301   3.010   5.966   5.582 -1.9912  0.9796 -0.4705
   46MOL   H11217302   2.728   5.991   5.595  0.8058 -0.4238  0.1732
   46MOL   H11317303   2.532   6.008   5.437 -0.0684  0.2479 -2.4838
   46MOL   H11417304   2.496   5.779   5.068  1.2643  1.2207  0.4154
   46MOL   H11517305   2.343   5.850   5.111  0.5545  2.4319 -0.0216
   46MOL   C11617306   2.413   5.728   5.270 -0.1683  0.4872 -0.0047
   46MOL   C11717307   2.487   5.600   5.258  0.1237  0.7089  0.0075
   46MOL   C11817308   2.451   5.510   5.154 -0.1623  0.6477  0.0866
   46MOL   C11917309   2.537   5.399   5.133  0.2135  0.4380  0.2970
   46MOL   C12017310   2.651   5.385   5.216  0.0032  0.1182  0.1568
   46MOL   C12117311   2.732   5.265   5.185 -0.4517 -0.2066  0.4214
   46MOL   C12217312   2.691   5.477   5.312  0.3559 -0.3132  0.1372
   46MOL   C12317313   2.609   5.584   5.330  0.3186 -0.6513  0.5453
   46MOL   C12417314   2.261   5.704   5.311 -1.0753  0.2648  0.4303
   46MOL   H12517315   2.467   5.776   5.352  0.5900  2.1455 -1.4323
   46MOL   H12617316   2.364   5.527   5.092 -1.6833 -0.0168  2.0154
   46MOL   H12717317   2.510   5.329   5.055 -0.1616 -0.6862  1.4229
   46MOL   H12817318   2.784   5.286   5.091 -2.1833  1.1644 -0.2717
   46MOL   H12917319   2.800   5.242   5.267  0.6022 -1.9953 -0.9303
   46MOL   H13017320   2.677   5.172   5.171  2.6560 -2.2747  1.5403
   46MOL   H13117321   2.785   5.455   5.359  0.4940  1.6620  0.8300
   46MOL   H13217322   2.642   5.663   5.396 -2.3910  1.9627 -1.1441
   46MOL   H13317323   2.241   5.635   5.393 -0.5972 -0.9435 -0.4461
   46MOL   H13417324   2.221   5.661   5.219 -0.3813  1.2418 -0.3391
   46MOL   C13517325   2.180   5.825   5.353 -0.7776 -0.5247  0.2267
   46MOL   C13617326   2.244   5.903   5.471 -0.6575  0.5748 -0.0769
   46MOL   C13717327   2.296   5.830   5.582 -0.2875  0.0272 -0.4377
   46MOL   C13817328   2.324   5.910   5.697 -0.0630 -0.3127  0.0002
   46MOL   C13917329   2.318   6.044   5.703 -0.5544 -0.2863  0.2278
   46MOL   C14017330   2.374   6.112   5.828  0.0070 -0.5893 -0.1834
   46MOL   C14117331   2.278   6.114   5.586 -0.4468 -0.0706 -0.3835
   46MOL   C14217332   2.239   6.042   5.468 -0.8318 -0.1560  0.3562
   46MOL   C14317333   2.042   5.774   5.395  0.5166 -0.0562  0.2152
   46MOL   H14417334   2.183   5.891   5.266  2.7526  0.4375  0.9941
   46MOL   H14517335   2.308   5.723   5.584 -0.3968 -0.0200 -1.5915
   46MOL   H14617336   2.361   5.856   5.783 -2.5361 -0.0394  1.3027
   46MOL   H14717337   2.324   6.081   5.919 -2.0602  2.4991 -0.2211
   46MOL   H14817338   2.482   6.092   5.827  0.6296  2.5133 -0.1284
   46MOL   H14917339   2.375   6.221   5.817  0.6401 -0.7257 -1.7145
   46MOL   H15017340   2.291   6.221   5.576  0.1453 -0.1073 -0.0533
   46MOL   H15117341   2.215   6.094   5.377 -0.7139 -0.3309  0.2253
   46MOL   H15217342   1.984   5.852   5.444 -0.1000 -0.7104  0.5399
   46MOL   H15317343   2.055   5.713   5.484 -1.2522 -1.1002 -0.2102
   46MOL   C15417344   1.952   5.705   5.292  0.2124 -0.2307  0.1196
   46MOL   C15517345   1.917   5.794   5.175  0.6665 -0.3323 -0.3107
   46MOL   C15617346   2.004   5.796   5.064 -0.2374 -0.4659  0.5530
   46MOL   C15717347   1.979   5.891   4.964 -0.5427 -0.3244 -0.2002
   46MOL   C15817348   1.859   5.969   4.967  0.5525 -0.6571  0.2604
   46MOL   C15917349   1.827   6.068   4.851  1.2406  0.0028 -0.0349
   46MOL   C16017350   1.765   5.942   5.067 -0.5083 -0.2463  0.4426
   46MOL   C16117351   1.798   5.864   5.174  0.2268  0.3717  0.3009
   46MOL   C16217352   1.820   5.642   5.349 -0.7189  0.2314 -1.5172
   46MOL   H16317353   2.009   5.621   5.251  0.0730  0.4719 -1.5433
   46MOL   H16417354   2.097   5.741   5.060  0.0685 -0.1324  2.6772
   46MOL   H16517355   2.045   5.911   4.881 -0.9541 -2.2820 -1.0117
   46MOL   H16617356   1.915   6.095   4.794 -0.4601  1.2326 -2.1293
   46MOL   H16717357   1.753   6.024   4.785  0.4456 -2.6327  2.4876
   46MOL   H16817358   1.780   6.164   4.875  0.8653  0.3053 -1.9436
   46MOL   H16917359   1.676   6.003   5.075 -0.5262 -0.0318 -1.2500
   46MOL   H17017360   1.726   5.874   5.253 -0.7014 -1.7553 -0.2635
   46MOL   H17117361   1.778   5.586   5.265 -0.6279 -1.3629 -0.5338
   46MOL   H17217362   1.759   5.721   5.393 -0.1106 -0.3085  0.3449
   46MOL   C17317363   1.846   5.535   5.462  0.2917  0.2987  0.9765
   46MOL   C17417364   1.959   5.441   5.435  0.4875 -0.3101  0.1903
   46MOL   C17517365   2.082   5.452   5.509 -0.0819 -0.2438  0.2345
   46MOL   C17617366   2.201   5.380   5.468 -0.3467 -0.6036  1.1291
   46MOL   C17717367   2.192   5.293   5.356  0.3106 -0.0306  0.4737
   46MOL   C17817368   2.297   5.192   5.322  0.0364  0.3842  0.4321
   46MOL   C17917369   2.070   5.289   5.281  1.1871  0.0586 -0.0174
   46MOL   C18017370   1.955   5.365   5.317  0.2529 -0.2206  0.0910
   46MOL   C18117371   1.722   5.449   5.509  0.4257 -0.2012  0.1905
   46MOL   H18217372   1.879   5.583   5.554  1.8415 -0.1874  0.6777
   46MOL   H18317373   2.082   5.492   5.609 -1.2182 -0.5864  0.3817
   46MOL   H18417374   2.297   5.387   5.519  1.1288  1.2849 -1.7886
   46MOL   H18517375   2.274   5.122   5.241  1.4940  0.6107 -0.1998
   46MOL   H18617376   2.395   5.231   5.294 -0.9852  1.9041 -1.1089
   46MOL   H18717377   2.308   5.129   5.410 -0.8144 -1.3381 -0.6635
   46MOL   H18817378   2.052   5.220   5.199  1.4357 -0.8117  0.6482
   46MOL   H18917379   1.863   5.368   5.260  0.0971  2.1048  0.4350
   46MOL   H19017380   1.772   5.386   5.583  1.1329  0.3090  0.1535
   46MOL   H19117381   1.683   5.396   5.422 -1.6774 -2.4992  2.4428
   46MOL   C19217382   1.600   5.521   5.582  0.0289 -0.7171 -0.0861
   46MOL   C19317383   1.525   5.609   5.480  0.2164  0.8429  0.2554
   46MOL   C19417384   1.523   5.751   5.488  0.5665  0.0380 -0.2715
   46MOL   C19517385   1.448   5.824   5.394 -0.1200  0.3368 -0.0079
   46MOL   C19617386   1.386   5.758   5.282  0.3634 -0.3359 -0.2019
   46MOL   C19717387   1.322   5.836   5.172 -0.5350  0.2674  0.0587
   46MOL   C19817388   1.389   5.621   5.275 -0.6151 -0.0722  0.4903
   46MOL   C19917389   1.455   5.547   5.375 -0.1048  1.1938  0.0371
   46MOL   C20017390   1.636   5.594   5.717 -0.5524  0.9346  0.1043
   46MOL   H20117391   1.535   5.435   5.601  1.2327 -1.5054  0.5515
   46MOL   H20217392   1.584   5.789   5.568  1.6478 -0.7447 -0.7156
   46MOL   H20317393   1.440   5.931   5.398 -0.6010  0.3152 -0.4047
   46MOL   H20417394   1.232   5.885   5.209  1.1701  2.2275  1.7619
   46MOL   H20517395   1.396   5.907   5.134  0.7505 -0.9977  0.1504
   46MOL   H20617396   1.297   5.771   5.089 -1.0168  1.6990 -0.9332
   46MOL   H20717397   1.368   5.577   5.179  0.2010 -1.7648  1.0626
   46MOL   H20817398   1.472   5.445   5.344  2.2690  1.3760  0.6219
   46MOL   H20917399   1.560   5.665   5.749 -2.8147 -1.2098 -0.3335
   46MOL   H21017400   1.714   5.664   5.687 -0.8867  0.5214 -1.7886
   46MOL   C21117401   1.679   5.504   5.834 -0.0223 -0.7520 -0.6484
   46MOL   C21217402   1.578   5.405   5.886 -0.3089  0.8103 -0.4509
   46MOL   C21317403   1.622   5.275   5.917 -0.8836  0.8220  0.1272
   46MOL   C21417404   1.528   5.185   5.955 -0.0345 -0.3026  0.3139
   46MOL   C21517405   1.389   5.214   5.951  0.2605  0.2147 -0.1387
   46MOL   C21617406   1.277   5.123   6.009 -0.1613  0.0474  0.4600
   46MOL   C21717407   1.344   5.341   5.907 -0.5774 -0.1347  0.4571
   46MOL   C21817408   1.441   5.447   5.893 -0.3453  0.1481  0.8522
   46MOL   C21917409   1.736   5.584   5.959  0.0736  0.7710  0.7317
   46MOL   H22017410   1.769   5.455   5.796 -0.9707 -2.4557 -0.7482
   46MOL   H22117411   1.728   5.258   5.912 -0.8867  0.4437  1.1948
   46MOL   H22217412   1.559   5.089   5.993  2.9650 -0.5835 -2.6271
   46MOL   H22317413   1.286   5.020   5.974 -0.6065 -0.0862  0.7392
   46MOL   H22417414   1.293   5.128   6.116  0.0467  1.0410  0.3854
   46MOL   H22517415   1.178   5.160   5.985  0.9397  0.5636 -3.6559
   46MOL   H22617416   1.241   5.368   5.922 -0.5091  0.4625 -0.1183
   46MOL   H22717417   1.398   5.545   5.873 -1.2377 -0.0652  1.6902
   46MOL   H22817418   1.734   5.534   6.055 -1.9523  1.2151  0.9545
   46MOL   H22917419   1.670   5.669   5.976  0.4444  0.5973  3.3157
   46MOL   C23017420   1.877   5.647   5.941  0.1405 -0.0270 -0.1986
   46MOL   C23117421   1.992   5.539   5.923 -0.2952  0.5480  0.2327
   46MOL   C23217422   1.980   5.400   5.951 -0.1785 -0.1312 -0.5762
   46MOL   C23317423   2.084   5.316   5.920 -0.3853 -0.2541 -0.0959
   46MOL   C23417424   2.205   5.357   5.864  0.3142  0.0171  0.1263
   46MOL   C23517425   2.302   5.250   5.818  0.5838 -0.3579  0.1084
   46MOL   C23617426   2.218   5.496   5.837  0.0991 -0.1581 -0.2791
   46MOL   C23717427   2.114   5.586   5.871  0.0532  0.8458  0.3816
   46MOL   C23817428   1.924   5.751   6.058 -0.5063 -0.2174  0.3104
   46MOL   H23917429   1.871   5.692   5.842 -0.4423  2.3565  0.8817
   46MOL   H24017430   1.889   5.364   5.997  0.8937 -1.2186  0.7446
   46MOL   H24117431   2.070   5.209   5.927  1.8617 -0.4829  1.5495
   46MOL   H24217432   2.329   5.189   5.904  0.3461 -2.8232 -1.5161
   46MOL   H24317433   2.261   5.182   5.744 -2.3624 -0.4179  1.7075
   46MOL   H24417434   2.399   5.286   5.784  0.8863  0.3785  1.6836
   46MOL   H24517435   2.309   5.531   5.790  0.2555 -0.5545 -0.2695
   46MOL   H24617436   2.117   5.693   5.858  2.1103  0.6251 -1.2663
   46MOL   H24717437   2.029   5.781   6.051 -0.8069  0.2440 -2.5698
   46MOL   H24817438   1.909   5.704   6.155  0.7975 -0.6499  0.3159
   46MOL   C24917439   1.850   5.890   6.063 -0.2723 -0.0761 -0.2008
   46MOL   C25017440   1.839   5.943   5.918  0.4777 -0.1016 -0.4369
   46MOL   C25117441   1.712   5.958   5.855 -0.6040 -0.1310  0.4553
   46MOL   C25217442   1.701   6.008   5.722  0.2724 -0.3038 -0.6216
   46MOL   C25317443   1.823   6.041   5.654 -0.4433 -0.3852  0.3078
   46MOL   C25417444   1.806   6.088   5.505 -0.2927 -0.0570  0.0041
   46MOL   C25517445   1.946   6.016   5.719 -0.3973 -0.5547 -0.5628
   46MOL   C25617446   1.956   5.968   5.848 -0.1802 -0.1089  0.2408
   46MOL   C25717447   1.938   5.983   6.154  0.3311  0.6670 -0.5775
   46MOL   H25817448   1.757   5.873   6.117 -0.1666  2.7788  0.9727
   46MOL   H25917449   1.622   5.940   5.911 -0.7386 -0.6212  0.0865
   46MOL   H26017450   1.601   6.014   5.681 -0.3999 -1.3186  0.8029
   46MOL   H26117451   1.720   6.033   5.468  0.0130 -0.2402 -0.4362
   46MOL   H26217452   1.772   6.192   5.506 -0.6602 -0.1818  0.4254
   46MOL   H26317453   1.898   6.074   5.448  0.6619 -4.3437  2.3703
   46MOL   H26417454   2.042   6.037   5.674  0.1971  2.0048  1.7019
   46MOL   H26517455   2.056   5.945   5.882 -0.6621 -2.9885 -0.1171
   46MOL   H26617456   2.031   6.018   6.108  0.8543  0.4647  0.3004
   46MOL   H26717457   1.980   5.920   6.233  2.7822 -0.4286 -2.6619
   46MOL   C26817458   1.865   6.099   6.224 -0.0583 -0.4559 -0.2741
   46MOL   C26917459   1.828   6.212   6.125  0.1260 -0.1947 -0.8724
   46MOL   C27017460   1.700   6.273   6.131  0.2572  0.0503  0.4789
   46MOL   C27117461   1.676   6.388   6.051 -0.1111  0.2145  0.1137
   46MOL   C27217462   1.778   6.430   5.966 -0.0976 -0.2551 -0.8379
   46MOL   C27317463   1.759   6.549   5.877  0.7236  0.3167  0.1652
   46MOL   C27417464   1.896   6.362   5.958  0.3763  1.0031  0.8539
   46MOL   C27517465   1.921   6.251   6.034 -0.3713 -0.2349 -0.0908
   46MOL   C27617466   1.946   6.162   6.344 -0.0895 -0.2382  0.1242
   46MOL   H27717467   1.774   6.061   6.270  0.5480 -2.3593 -0.6049
   46MOL   H27817468   1.628   6.239   6.204 -0.4350  0.9140  0.2081
   46MOL   H27917469   1.582   6.440   6.045  0.0398  0.3488 -1.1696
   46MOL   H28017470   1.846   6.572   5.816  0.6799  0.2707  0.0851
   46MOL   H28117471   1.694   6.538   5.790 -0.1924 -2.3854  1.1386
   46MOL   H28217472   1.746   6.643   5.929  0.7985  0.8496 -0.7690
   46MOL   H28317473   1.979   6.386   5.893  0.5595  1.1120  1.1288
   46MOL   H28417474   2.020   6.209   6.024 -0.2926  0.1259 -0.8975
   46MOL   H28517475   2.044   6.187   6.304  0.1413 -1.9868 -0.4461
   46MOL   H28617476   1.970   6.080   6.411 -0.3879 -0.2522  0.2155
   46MOL   C28717477   1.878   6.284   6.418 -0.3133 -0.0735  0.0401
   46MOL   C28817478   1.997   6.345   6.494  1.0685  0.7199 -0.4102
   46MOL   C28917479   2.011   6.333   6.635  0.6788  0.2797  0.4267
   46MOL   C29017480   2.121   6.391   6.708 -0.2078  0.0883  0.0486
   46MOL   C29117481   2.223   6.449   6.633 -0.2642 -0.4641 -0.3482
   46MOL   C29217482   2.347   6.504   6.706  0.0239 -0.1873 -0.5204
   46MOL   C29317483   2.213   6.471   6.495 -0.3678  0.2909 -0.3185
   46MOL   C29417484   2.099   6.415   6.431 -0.1558 -0.1626  0.4288
   46MOL   C29517485   1.753   6.242   6.508  0.0037 -0.1591  0.0379
   46MOL   H29617486   1.847   6.365   6.352  0.2855  1.6346  1.7765
   46MOL   H29717487   1.937   6.283   6.696  0.5393 -0.8387 -0.6314
   46MOL   H29817488   2.125   6.372   6.814  0.1210  1.5336  0.3046
   46MOL   H29917489   2.366   6.605   6.670  0.8445 -0.1253  0.0922
   46MOL   H30017490   2.338   6.510   6.814 -2.5658  1.8591 -0.7858
   46MOL   H30117491   2.434   6.443   6.681  1.2471  1.3106  0.0534
   46MOL   H30217492   2.295   6.511   6.436 -1.0459  1.7069 -0.3090
   46MOL   H30317493   2.101   6.431   6.324 -0.3683  0.5365  0.5291
   46MOL   H30417494   1.793   6.178   6.587 -2.2343 -2.1908 -0.4349
   46MOL   H30517495   1.683   6.176   6.458  0.5141 -0.0199 -0.8681
   46MOL   C30617496   1.660   6.358   6.559  0.0217  0.0243 -0.4183
   46MOL   C30717497   1.587   6.297   6.680 -0.5327  0.2907  0.4386
   46MOL   C30817498   1.610   6.336   6.815 -0.4880  0.1853  0.6480
   46MOL   C30917499   1.533   6.275   6.916  0.4240 -0.1022 -0.7660
   46MOL   C31017500   1.440   6.172   6.890 -0.1368  0.2235  0.1788
   46MOL   C31117501   1.355   6.119   6.996 -0.5971  0.2391  0.3241
   46MOL   C31217502   1.419   6.136   6.757 -0.5405 -0.4684 -0.1851
   46MOL   C31317503   1.489   6.198   6.654 -0.7955  0.7666  0.0584
   46MOL   C31417504   1.580   6.423   6.443 -0.3646  0.2508 -0.0208
   46MOL   H31517505   1.728   6.431   6.605 -0.2525  0.4273 -0.6532
   46MOL   H31617506   1.675   6.418   6.838 -0.9197  0.5711  0.5009
   46MOL   H31717507   1.549   6.307   7.018 -1.9335 -1.6148  0.1249
   46MOL   H31817508   1.256   6.141   6.955  0.7114  1.8220 -2.1085
   46MOL   H31917509   1.372   6.012   7.006  0.9661  0.6342  2.1258
   46MOL   H32017510   1.382   6.169   7.089 -2.3941 -1.2559  1.6775
   46MOL   H32117511   1.351   6.054   6.737 -0.1111 -0.6366 -0.9559
   46MOL   H32217512   1.468   6.162   6.555  0.3119  1.3469 -0.3915
   46MOL   H32317513   1.558   6.342   6.374 -0.8615  0.1381  0.2663
   46MOL   H32417514   1.638   6.500   6.392  4.3136 -2.7361  0.5404
   46MOL   C32517515   1.433   6.466   6.481  0.4325  0.7965 -0.0003
   46MOL   C32617516   1.345   6.472   6.356  0.0784 -0.1797 -0.6088
   46MOL   C32717517   1.382   6.556   6.244  1.0618  0.2288 -0.1285
   46MOL   C32817518   1.294   6.557   6.132 -0.7089  0.2737  0.0965
   46MOL   C32917519   1.178   6.479   6.125  0.0317 -0.1716  0.0282
   46MOL   C33017520   1.083   6.485   6.000  0.2642 -0.4214  0.9541
   46MOL   C33117521   1.143   6.402   6.237 -0.2298  0.3682  0.2129
   46MOL   C33217522   1.225   6.398   6.348  0.4262  0.2405 -0.0385
   46MOL   C33317523   1.422   6.590   6.573  0.0042 -0.3546  0.1947
   46MOL   H33417524   1.385   6.385   6.536 -0.9914  1.9151  0.4304
   46MOL   H33517525   1.477   6.607   6.239  1.1206  0.3085  1.5947
   46MOL   H33617526   1.330   6.612   6.046 -0.9453  2.5478  1.4230
   46MOL   H33717527   1.128   6.533   5.914 -0.0530 -0.3869  0.8065
   46MOL   H33817528   1.054   6.387   5.964 -1.2557  0.6071 -0.7290
   46MOL   H33917529   0.991   6.544   6.010  1.0433  1.1294 -0.7523
   46MOL   H34017530   1.052   6.347   6.249  1.5476 -2.7852 -0.1930
   46MOL   H34117531   1.196   6.337   6.432 -3.1095  0.3874 -1.0943
   46MOL   H34217532   1.457   6.682   6.525 -0.2965  0.1553  0.9406
   46MOL   H34317533   1.491   6.591   6.657 -0.7871  2.2028  0.8649
   46MOL   C34417534   1.280   6.607   6.628 -0.2178  0.0708  0.3338
   46MOL   C34517535   1.238   6.751   6.634  0.1056 -0.5259  0.2466
   46MOL   C34617536   1.305   6.839   6.723  0.9668 -1.0716 -0.8961
   46MOL   C34717537   1.253   6.962   6.749  0.4541 -0.5125  0.0595
   46MOL   C34817538   1.147   7.010   6.671  0.1404 -0.3971  0.2183
   46MOL   C34917539   1.105   7.159   6.688  0.0030  0.7614  0.2910
   46MOL   C35017540   1.093   6.932   6.566 -0.4283 -0.1750 -0.6156
   46MOL   C35117541   1.130   6.797   6.556  0.1164  0.3031 -0.2282
   46MOL   C35217542   1.271   6.533   6.765 -0.1301 -0.7423 -1.1579
   46MOL   H35317543   1.211   6.544   6.571 -1.3450 -0.1802  1.9337
   46MOL   H35417544   1.391   6.813   6.783  1.0252  1.3590  0.1716
   46MOL   H35517545   1.298   7.024   6.825 -1.5455  2.3406 -1.0217
   46MOL   H35617546   1.080   7.198   6.589 -2.3352 -1.0746  0.1033
   46MOL   H35717547   1.010   7.169   6.739  1.4644 -0.7042  3.4441
   46MOL   H35817548   1.178   7.217   6.745  1.6145 -0.4795 -0.4722
   46MOL   H35917549   1.011   6.977   6.512 -0.2433  0.6724 -0.1968
   46MOL   H36017550   1.091   6.738   6.474  1.5808  2.6176 -2.6703
   46MOL   H36117551   1.329   6.587   6.839  0.3136 -1.1814 -1.1795
   46MOL   H36217552   1.326   6.439   6.760  1.1589 -0.0382 -0.3993
   46MOL   C36317553   1.126   6.500   6.814 -1.2182 -0.2609  0.5852
   46MOL   C36417554   1.046   6.408   6.717 -0.3005  0.9264 -0.4605
   46MOL   C36517555   1.073   6.270   6.721  0.0812  0.5414 -0.5016
   46MOL   C36617556   1.008   6.184   6.635 -0.3791  0.2889 -0.0401
   46MOL   C36717557   0.919   6.225   6.544  0.2554  0.3279 -0.3233
   46MOL   C36817558   0.855   6.134   6.436 -0.7615 -0.1292 -1.0335
   46MOL   C36917559   0.894   6.363   6.548  0.6327 -0.8340 -0.2387
   46MOL   C37017560   0.947   6.456   6.633  1.1008  0.6346 -0.3859
   46MOL   C37117561   1.054   6.632   6.854  0.2308 -0.0611 -0.5168
   46MOL   H37217562   1.149   6.442   6.903  0.3392 -1.8175 -0.7954
   46MOL   H37317563   1.133   6.215   6.792 -0.4845 -0.3830 -0.7243
   46MOL   H37417564   1.036   6.080   6.642  0.2547  0.4701  0.1299
   46MOL   H37517565   0.894   6.033   6.422 -0.1780 -0.0661  0.0919
   46MOL   H37617566   0.752   6.118   6.469 -0.6805 -0.5983 -0.9995
   46MOL   H37717567   0.844   6.183   6.339  0.3314  1.3755 -0.4066
   46MOL   H37817568   0.831   6.415   6.477 -1.0947 -0.1204  1.7460
   46MOL   H37917569   0.914   6.559   6.632 -0.6776  0.1026  0.8221
   46MOL   H38017570   1.039   6.713   6.783 -2.0940 -0.7166 -0.8183
   46MOL   H38117571   1.107   6.680   6.936 -0.8658  0.8822 -0.3539
   46MOL   H38217572   0.953   6.609   6.889 -0.1826 -0.5541 -2.0027
   47MOL     C117573   7.513   0.934   3.154 -0.1504  0.8144 -0.0370
   47MOL     C217574   7.417   0.953   3.266  0.5552  0.1012 -0.2161
   47MOL     C317575   7.380   0.843   3.348 -0.1513 -0.6133 -0.4942
   47MOL     C417576   7.280   0.864   3.444 -0.5327  0.0255 -0.7970
   47MOL     C517577   7.237   0.994   3.467 -0.1145  0.4883 -0.0171
   47MOL     C617578   7.146   1.015   3.581  0.3288 -0.4356 -0.0958
   47MOL     C717579   7.262   1.101   3.378  0.2806  0.0743  1.3205
   47MOL     C817580   7.352   1.078   3.278 -0.1865 -0.6272  0.3291
   47MOL     C917581   7.631   1.030   3.144 -0.0493 -0.2810  0.6143
   47MOL    H1017582   7.551   0.832   3.154 -0.3815  0.7297 -0.3762
   47MOL    H1117583   7.431   0.749   3.338  0.6527 -0.0002 -2.4156
   47MOL    H1217584   7.256   0.782   3.510 -2.4486  1.3247  0.1699
   47MOL    H1317585   7.191   1.049   3.674  0.1871  1.4455 -0.6994
   47MOL    H1417586   7.068   1.087   3.559  0.6473 -0.0110  0.1585
   47MOL    H1517587   7.109   0.917   3.610  2.6934 -0.9534  1.2876
   47MOL    H1617588   7.229   1.202   3.398  1.8158  0.5662  1.4487
   47MOL    H1717589   7.386   1.161   3.218 -0.2910  0.9873  2.4447
   47MOL    H1817590   7.663   1.060   3.243 -0.0231 -0.8429  0.7789
   47MOL    H1917591   7.601   1.123   3.096  0.1262  0.7888  2.5354
   47MOL    H2017592   7.462   0.930   3.059 -1.9872 -0.7328  0.9762
   47MOL    C2117593   7.759   0.970   3.078 -0.0218  0.3863  0.9805
   47MOL    C2217594   7.824   0.850   3.147  0.1068 -0.5482  1.0288
   47MOL    C2317595   7.858   0.857   3.280  0.4034 -0.1041  0.0785
   47MOL    C2417596   7.920   0.749   3.343 -0.2255 -0.1957  0.7204
   47MOL    C2517597   7.958   0.636   3.265 -0.3306 -0.7328  0.4836
   47MOL    C2617598   8.008   0.508   3.334  0.0806 -0.5576 -1.2334
   47MOL    C2717599   7.938   0.633   3.124  0.2563  0.5840 -0.1142
   47MOL    C2817600   7.866   0.741   3.069 -0.7382 -0.6983  0.9252
   47MOL    C2917601   7.873   1.065   3.034 -0.1406  0.5511  0.0097
   47MOL    H3017602   7.725   0.925   2.985  1.7811 -2.4520  1.6379
   47MOL    H3117603   7.830   0.942   3.340 -0.2272 -0.5729  0.4476
   47MOL    H3217604   7.933   0.756   3.450 -1.3744 -0.3740  0.8730
   47MOL    H3317605   7.943   0.430   3.294 -2.4743  0.6102  0.4851
   47MOL    H3417606   0.035   0.495   3.322 -0.0064 -1.6532 -0.8611
   47MOL    H3517607   7.983   0.519   3.440  0.5652  1.3134 -1.2939
   47MOL    H3617608   7.982   0.551   3.069 -1.2450  0.4337 -1.1145
   47MOL    H3717609   7.845   0.748   2.963  0.4743 -1.3079  0.6250
   47MOL    H3817610   7.958   1.010   2.993  0.6312  1.5665  0.2067
   47MOL    H3917611   7.903   1.106   3.131 -0.3328  0.6491  0.0276
   47MOL    C4017612   7.835   1.172   2.937 -0.2490  0.5396 -0.5079
   47MOL    C4117613   7.734   1.124   2.834  0.1415 -0.9474 -0.0277
   47MOL    C4217614   7.777   1.032   2.738  0.3427  0.8742 -0.1306
   47MOL    C4317615   7.686   0.975   2.648  0.2289 -0.4340  0.2822
   47MOL    C4417616   7.548   1.011   2.655  0.1566  0.1725 -0.2253
   47MOL    C4517617   7.447   0.958   2.555  0.0342  0.4420  0.4984
   47MOL    C4617618   7.506   1.110   2.743 -0.2037 -0.1831  0.0161
   47MOL    C4717619   7.600   1.172   2.829  0.4106 -0.1616 -0.1407
   47MOL    C4817620   7.946   1.255   2.874 -0.2737  0.3918  0.0426
   47MOL    H4917621   7.767   1.242   2.985  0.0877  0.2335  0.4204
   47MOL    H5017622   7.883   1.011   2.742  0.2799  0.9223  2.5920
   47MOL    H5117623   7.730   0.916   2.568  0.5390 -0.4138  0.4376
   47MOL    H5217624   7.451   1.020   2.466 -0.1545  1.6622  1.3338
   47MOL    H5317625   7.474   0.855   2.530  1.6632  0.5898  1.5317
   47MOL    H5417626   7.345   0.954   2.595 -0.4919 -1.6838 -0.9668
   47MOL    H5517627   7.404   1.142   2.752  0.6704  3.5898 -2.1815
   47MOL    H5617628   7.564   1.240   2.905  0.4530 -0.8651  0.5129
   47MOL    H5717629   7.900   1.334   2.815  0.3664 -0.1892 -1.2455
   47MOL    H5817630   7.991   1.184   2.805  1.0579  0.3952  0.8828
   47MOL    C5917631   8.064   1.316   2.964 -0.1473 -0.2653  1.0581
   47MOL    C6017632   8.017   1.408   3.076 -0.0191 -0.6473 -0.0701
   47MOL    C6117633   7.958   1.534   3.044 -0.0830 -0.0305  0.0773
   47MOL    C6217634   7.910   1.615   3.150  0.0561  0.3155  0.0676
   47MOL    C6317635   7.915   1.574   3.287  0.8071  0.2209 -0.3012
   47MOL    C6417636   7.844   1.657   3.395  0.4672 -0.4549  0.1831
   47MOL    C6517637   7.962   1.444   3.314 -0.2495  0.2833  0.2576
   47MOL    C6617638   8.005   1.363   3.208 -0.4121 -0.8774 -0.2977
   47MOL    C6717639   0.095   1.377   2.881  0.6611 -0.1230 -0.5681
   47MOL    H6817640   0.032   1.233   3.016 -0.9641 -0.8842  0.8165
   47MOL    H6917641   7.958   1.559   2.939 -0.2146 -1.5419 -0.2957
   47MOL    H7017642   7.857   1.706   3.129  1.7630  0.7142 -2.6796
   47MOL    H7117643   7.742   1.628   3.420  0.3462 -1.2065 -1.1533
   47MOL    H7217644   7.912   1.661   3.480  0.6925  0.8464 -0.0433
   47MOL    H7317645   7.843   1.763   3.369 -1.7093 -0.4162  0.3352
   47MOL    H7417646   7.967   1.410   3.416  3.2593  1.8528  0.6522
   47MOL    H7517647   8.027   1.258   3.221  1.7537 -0.3426  0.6408
   47MOL    H7617648   0.129   1.478   2.903  2.4463 -1.0303  0.9077
   47MOL    H7717649   0.056   1.385   2.779  0.7373  1.7151 -0.4751
   47MOL    C7817650   0.233   1.304   2.870 -0.3494 -0.2042 -0.0794
   47MOL    C7917651   0.336   1.355   2.969  0.0092 -0.0851 -0.2149
   47MOL    C8017652   0.383   1.488   2.963 -0.6173 -0.3084 -0.4959
   47MOL    C8117653   0.476   1.539   3.058  0.6497  0.3924 -0.2944
   47MOL    C8217654   0.522   1.454   3.159 -0.2378 -0.3926  0.2024
   47MOL    C8317655   0.620   1.510   3.259 -0.4982 -0.2279  0.3338
   47MOL    C8417656   0.474   1.323   3.176  0.6025  0.0727  0.4864
   47MOL    C8517657   0.374   1.275   3.088  0.8241  0.2314  0.3364
   47MOL    C8617658   0.294   1.286   2.731  0.0434 -0.0603  0.7548
   47MOL    H8717659   0.205   1.202   2.898  1.2747 -0.5714  0.2668
   47MOL    H8817660   0.356   1.550   2.879 -1.1655  1.0395  0.6409
   47MOL    H8917661   0.517   1.638   3.044 -1.2569  1.4197  1.1345
   47MOL    H9017662   0.633   1.615   3.235  1.4383 -1.0037 -2.2088
   47MOL    H9117663   0.594   1.502   3.365  0.3324 -2.4070  0.3879
   47MOL    H9217664   0.720   1.469   3.247  0.1953  1.5777 -0.2928
   47MOL    H9317665   0.507   1.253   3.252  2.1424 -2.1297 -2.1188
   47MOL    H9417666   0.321   1.183   3.105 -1.8517  1.6205 -0.1680
   47MOL    H9517667   0.363   1.365   2.701 -1.1475  0.9415  0.5577
   47MOL    H9617668   0.220   1.303   2.652  0.1208  0.7351  0.8431
   47MOL    C9717669   0.354   1.152   2.704  0.5304  0.6281 -0.0031
   47MOL    C9817670   0.252   1.044   2.684  1.0866 -0.6473 -0.0714
   47MOL    C9917671   0.212   0.942   2.777 -0.1243  0.2434 -0.2888
   47MOL   C10017672   0.119   0.841   2.740 -0.2234  0.0358 -0.0154
   47MOL   C10117673   0.063   0.834   2.611 -0.3766  0.4688  0.3574
   47MOL   C10217674   8.050   0.726   2.570  0.5474  0.4708 -0.3747
   47MOL   C10317675   0.096   0.941   2.519 -0.2077 -0.5644 -0.3334
   47MOL   C10417676   0.189   1.043   2.554 -0.4160 -0.6390  0.4317
   47MOL   C10517677   0.465   1.108   2.811  0.3030 -0.5742 -0.3274
   47MOL   H10617678   0.403   1.154   2.606 -0.4567  0.6168 -0.5027
   47MOL   H10717679   0.253   0.937   2.876 -1.4571  0.1459  0.2651
   47MOL   H10817680   0.097   0.761   2.809  0.9439 -0.3685 -0.0925
   47MOL   H10917681   0.029   0.634   2.562  2.0337  1.3651  0.0168
   47MOL   H11017682   7.970   0.715   2.643  2.1959 -2.1997  1.1377
   47MOL   H11117683   7.994   0.759   2.483 -1.2108 -0.5946  0.3247
   47MOL   H11217684   0.075   0.937   2.413  1.7043  1.4038 -0.8293
   47MOL   H11317685   0.218   1.125   2.489  2.5655 -1.9308  0.0529
   47MOL   H11417686   0.503   1.009   2.784  1.1227  0.1800 -1.9964
   47MOL   H11517687   0.422   1.093   2.910 -2.8588 -0.3170 -1.6073
   47MOL   C11617688   0.597   1.198   2.815 -0.1066 -0.6469 -0.2847
   47MOL   C11717689   0.664   1.214   2.676  0.3298 -0.1230  0.3334
   47MOL   C11817690   0.677   1.341   2.615  0.1999  0.0607 -0.1586
   47MOL   C11917691   0.749   1.357   2.494 -0.8358  0.0177 -0.5876
   47MOL   C12017692   0.791   1.246   2.416  0.6643  0.7095 -0.1806
   47MOL   C12117693   0.843   1.264   2.271  0.5119 -0.3547 -0.7696
   47MOL   C12217694   0.771   1.120   2.472 -0.0957 -0.3532 -0.5867
   47MOL   C12317695   0.723   1.103   2.604 -0.0480 -0.0109 -0.8096
   47MOL   C12417696   0.693   1.143   2.914 -0.2232  0.2785  0.3040
   47MOL   H12517697   0.564   1.298   2.843 -1.2477 -1.3202  0.8395
   47MOL   H12617698   0.630   1.430   2.655 -2.6545 -0.5531 -1.9856
   47MOL   H12717699   0.746   1.455   2.451 -0.8869 -0.1701 -1.0127
   47MOL   H12817700   0.754   1.260   2.207 -0.1213  1.9975 -0.1243
   47MOL   H12917701   0.908   1.352   2.267 -0.1972  0.2383  0.3225
   47MOL   H13017702   0.912   1.183   2.250  0.5765  0.0272 -2.0889
   47MOL   H13117703   0.799   1.033   2.415 -1.0631 -0.2854 -1.1888
   47MOL   H13217704   0.720   1.003   2.644  1.2866 -0.0428 -0.7932
   47MOL   H13317705   0.708   1.040   2.882 -0.3878 -0.2778  1.9381
   47MOL   H13417706   0.646   1.150   3.012 -0.9014  1.0608 -0.0752
   47MOL   C13517707   0.836   1.215   2.916 -0.8102 -0.6695  0.0246
   47MOL   C13617708   0.944   1.138   2.989  0.2567 -0.1044  0.7318
   47MOL   C13717709   0.951   1.134   3.131 -0.3391 -0.2917  0.7268
   47MOL   C13817710   1.034   1.052   3.203 -0.0538 -0.1959 -0.1430
   47MOL   C13917711   1.114   0.960   3.131  0.0989 -0.4879  0.0078
   47MOL   C14017712   1.180   0.841   3.209  0.4104  0.0061  0.2503
   47MOL   C14117713   1.125   0.971   2.991 -0.2618 -0.4480 -0.2776
   47MOL   C14217714   1.046   1.058   2.924  0.3599 -0.0037  0.3233
   47MOL   C14317715   0.822   1.366   2.949  0.3510  0.3186  0.1181
   47MOL   H14417716   0.868   1.215   2.812 -1.9352  0.7108 -0.3441
   47MOL   H14517717   0.893   1.205   3.189  0.8718  1.1069  0.2479
   47MOL   H14617718   1.038   1.053   3.311 -0.2820  0.9295 -0.1474
   47MOL   H14717719   1.205   0.764   3.136  0.4354  0.6704 -0.4517
   47MOL   H14817720   1.276   0.869   3.252  0.1236 -0.5199  1.2357
   47MOL   H14917721   1.118   0.803   3.290 -0.5200  1.5190  0.2513
   47MOL   H15017722   1.179   0.900   2.931  0.7266 -0.6359  0.8233
   47MOL   H15117723   1.059   1.061   2.817  2.7142  0.2616  0.5942
   47MOL   H15217724   0.770   1.377   3.044 -1.1272 -0.1003 -0.6247
   47MOL   H15317725   0.745   1.402   2.881  0.3165 -0.9103 -0.5042
   47MOL   C15417726   0.952   1.444   2.948  0.4414  0.0670  0.2085
   47MOL   C15517727   0.934   1.584   3.007  0.2832 -0.4645  0.7321
   47MOL   C15617728   0.980   1.612   3.139 -0.9136  1.0040  0.2932
   47MOL   C15717729   0.946   1.725   3.211 -0.2814  0.8929 -0.5752
   47MOL   C15817730   0.859   1.817   3.155 -0.0022 -0.3081  0.3632
   47MOL   C15917731   0.818   1.941   3.229 -0.4671  0.4649 -0.2816
   47MOL   C16017732   0.810   1.790   3.025 -0.2158 -0.2726  0.3312
   47MOL   C16117733   0.844   1.674   2.950  0.2996 -0.2471 -0.3451
   47MOL   C16217734   1.014   1.432   2.811 -0.0109 -0.4309  0.1618
   47MOL   H16317735   1.024   1.389   3.007 -0.1519 -1.1455 -0.1789
   47MOL   H16417736   1.050   1.546   3.187 -1.4222  0.9132  0.9136
   47MOL   H16517737   0.990   1.746   3.308  2.7313 -2.2451 -1.1451
   47MOL   H16617738   0.845   2.038   3.187 -2.1885  0.1588 -2.1792
   47MOL   H16717739   0.710   1.953   3.229 -0.5084  0.5142  3.5520
   47MOL   H16817740   0.842   1.950   3.335 -3.0528  0.4746  0.3424
   47MOL   H16917741   0.741   1.861   2.980 -0.0334  0.4691  1.1985
   47MOL   H17017742   0.803   1.663   2.851  0.7058  0.3246 -0.5769
   47MOL   H17117743   0.940   1.441   2.731  0.0836  1.9266  0.2904
   47MOL   H17217744   1.049   1.332   2.786  0.0187 -0.9636  2.2855
   47MOL   C17317745   1.129   1.542   2.772  0.0271  0.0251 -0.2335
   47MOL   C17417746   1.170   1.531   2.623  0.0164 -0.3777  0.4087
   47MOL   C17517747   1.231   1.418   2.572 -0.1915  0.5162  0.1024
   47MOL   C17617748   1.255   1.401   2.439 -0.0695  0.2348 -0.5334
   47MOL   C17717749   1.205   1.495   2.345  0.1369 -0.1119 -0.3821
   47MOL   C17817750   1.215   1.457   2.197 -0.2686 -0.5133  0.7680
   47MOL   C17917751   1.145   1.609   2.392  0.1727 -0.3712  0.0180
   47MOL   C18017752   1.137   1.631   2.533  0.0774  0.2245  0.4204
   47MOL   C18117753   1.249   1.530   2.872 -0.2542  0.2486  0.1309
   47MOL   H18217754   1.090   1.642   2.795  1.9251  0.5814  0.6133
   47MOL   H18317755   1.274   1.337   2.629 -1.0697 -1.1923 -1.5988
   47MOL   H18417756   1.297   1.309   2.400 -1.3453 -1.1771  1.3541
   47MOL   H18517757   1.274   1.367   2.179  0.1938  0.0752 -0.7828
   47MOL   H18617758   1.115   1.431   2.162  0.7611 -0.5187 -2.3475
   47MOL   H18717759   1.261   1.541   2.144  0.0074 -0.3746  1.2306
   47MOL   H18817760   1.090   1.675   2.326 -0.8961  0.5860  1.8175
   47MOL   H18917761   1.101   1.722   2.577 -0.4041 -0.1822  0.8745
   47MOL   H19017762   1.311   1.450   2.831  0.1759  0.2768  0.7215
   47MOL   H19117763   1.218   1.509   2.974 -2.6275  2.4244 -0.1108
   47MOL   C19217764   1.340   1.648   2.891 -0.4094  0.4174 -0.4455
   47MOL   C19317765   1.465   1.603   2.959  0.5969 -0.1883 -0.4514
   47MOL   C19417766   1.453   1.538   3.082  0.2840  0.0688 -0.0294
   47MOL   C19517767   1.568   1.484   3.139  0.2190 -0.7907 -0.4963
   47MOL   C19617768   1.696   1.491   3.080  0.2823 -0.1961  0.2772
   47MOL   C19717769   1.821   1.436   3.151  0.8026  0.2489  0.5473
   47MOL   C19817770   1.710   1.560   2.959  0.0092 -0.2076  0.0606
   47MOL   C19917771   1.593   1.619   2.896  0.7362  0.2675 -0.1744
   47MOL   C20017772   1.281   1.763   2.978 -0.3901  0.0599 -0.1945
   47MOL   H20117773   1.366   1.677   2.789 -0.0815 -0.2138 -0.5425
   47MOL   H20217774   1.358   1.524   3.132 -1.1388  1.3306 -2.3117
   47MOL   H20317775   1.556   1.434   3.234  1.6058  2.6447  1.5961
   47MOL   H20417776   1.813   1.328   3.157 -0.1275  0.2292 -0.8227
   47MOL   H20517777   1.905   1.472   3.092  0.1716  0.2311 -0.3934
   47MOL   H20617778   1.822   1.476   3.252 -0.3320 -0.2828  0.7838
   47MOL   H20717779   1.796   1.564   2.895 -0.6043  0.1223 -0.7454
   47MOL   H20817780   1.602   1.674   2.803  0.2628  0.3887 -0.1458
   47MOL   H20917781   1.269   1.726   3.080  0.8237 -1.7958 -0.7117
   47MOL   H21017782   1.179   1.785   2.947 -0.6304  2.3372  2.0404
   47MOL   C21117783   1.363   1.893   2.989  0.0818 -0.4368  0.7561
   47MOL   C21217784   1.320   1.990   3.100 -0.5755  0.6478 -0.4430
   47MOL   C21317785   1.417   2.069   3.170 -0.2569  0.5803  0.1290
   47MOL   C21417786   1.379   2.165   3.269  0.1004 -0.4898 -0.2061
   47MOL   C21517787   1.250   2.155   3.324 -0.2402  0.8583 -0.5455
   47MOL   C21617788   1.207   2.242   3.444 -0.1762 -0.5650  0.2562
   47MOL   C21717789   1.156   2.068   3.262 -0.6488  0.4298 -0.3801
   47MOL   C21817790   1.191   1.985   3.158 -0.0863  0.5659  0.4260
   47MOL   C21917791   1.398   1.961   2.853  0.4901  0.5943  1.0577
   47MOL   H22017792   1.463   1.869   3.025  0.4786  0.3411  0.1802
   47MOL   H22117793   1.523   2.057   3.151 -0.0308  0.9598  1.1367
   47MOL   H22217794   1.457   2.227   3.310  0.8755 -2.1442  0.8602
   47MOL   H22317795   1.273   2.243   3.531  0.8956  1.9962 -0.5490
   47MOL   H22417796   1.202   2.346   3.413 -1.9015 -0.8380 -0.3987
   47MOL   H22517797   1.110   2.209   3.479 -0.8892 -0.3291 -1.4441
   47MOL   H22617798   1.059   2.057   3.309  0.6075  1.2297  2.5703
   47MOL   H22717799   1.112   1.921   3.122  0.1249 -1.4906  3.3413
   47MOL   H22817800   1.391   1.886   2.774 -0.0109  2.2157 -0.4591
   47MOL   H22917801   1.501   1.995   2.858  0.8043  0.1093 -1.3551
   47MOL   C23017802   1.308   2.085   2.817  0.2349 -0.0977  0.5829
   47MOL   C23117803   1.174   2.054   2.746 -0.2433  0.6686  0.5633
   47MOL   C23217804   1.047   2.044   2.816 -0.5908  0.5859 -0.0050
   47MOL   C23317805   0.935   2.002   2.742 -0.2673 -0.7485 -0.4267
   47MOL   C23417806   0.945   1.976   2.604 -0.7936 -0.0707 -0.4197
   47MOL   C23517807   0.829   1.925   2.526  0.8376  0.1339  0.0970
   47MOL   C23617808   1.067   1.985   2.536 -0.3472 -0.1064  0.4480
   47MOL   C23717809   1.181   2.027   2.608 -0.1021 -0.4271 -0.0398
   47MOL   C23817810   1.388   2.198   2.746 -0.0060  0.2910 -0.0632
   47MOL   H23917811   1.276   2.139   2.906 -0.6082  0.6655 -0.1793
   47MOL   H24017812   1.042   2.067   2.922  1.3416 -1.1885  0.5106
   47MOL   H24117813   0.839   1.971   2.780 -0.0594  0.7397  1.3757
   47MOL   H24217814   0.825   1.817   2.540 -0.4116  0.1011 -0.4575
   47MOL   H24317815   0.736   1.968   2.565  0.4154  0.8880 -1.7037
   47MOL   H24417816   0.851   1.946   2.422 -2.6302  1.5841 -0.4295
   47MOL   H24517817   1.064   1.953   2.433 -1.2206  1.2140  0.0433
   47MOL   H24617818   1.277   2.016   2.559  0.3046 -2.5707  1.1936
   47MOL   H24717819   1.419   2.162   2.648 -1.3933  0.3510 -0.5368
   47MOL   H24817820   1.472   2.220   2.811 -1.2744  0.6990  1.4689
   47MOL   C24917821   1.313   2.335   2.724 -0.4297 -0.3394  0.3417
   47MOL   C25017822   1.399   2.431   2.643  0.0488 -0.1219  0.5750
   47MOL   C25117823   1.526   2.473   2.694 -0.5928  0.5089 -0.2670
   47MOL   C25217824   1.603   2.576   2.632  0.3364 -0.0727  0.4234
   47MOL   C25317825   1.553   2.639   2.514  0.1070  0.1400 -0.3142
   47MOL   C25417826   1.637   2.746   2.442  0.2006  0.4061 -0.5572
   47MOL   C25517827   1.432   2.583   2.454 -0.3876  0.5362 -0.4167
   47MOL   C25617828   1.352   2.483   2.522 -0.7976  0.0559  0.0805
   47MOL   C25717829   1.264   2.410   2.851 -0.0928 -0.5539  0.1025
   47MOL   H25817830   1.224   2.304   2.669  0.3963  1.4042 -2.0584
   47MOL   H25917831   1.561   2.430   2.787  1.0251  2.4615  0.0674
   47MOL   H26017832   1.693   2.609   2.682 -1.2339  2.7473  1.4969
   47MOL   H26117833   1.709   2.795   2.508 -1.5227  2.4800 -0.1793
   47MOL   H26217834   1.684   2.692   2.360  2.5171  0.9605  0.3667
   47MOL   H26317835   1.575   2.828   2.406 -1.6894 -1.5000 -1.7172
   47MOL   H26417836   1.401   2.617   2.356 -2.3111  1.1226  0.3850
   47MOL   H26517837   1.259   2.451   2.478 -0.5998 -0.8006  0.2568
   47MOL   H26617838   1.264   2.517   2.830  1.0058 -0.5187  0.2619
   47MOL   H26717839   1.323   2.394   2.941  0.4856 -0.0250 -0.1799
   47MOL   C26817840   1.118   2.393   2.882  0.7552 -0.0081 -0.2221
   47MOL   C26917841   1.035   2.468   2.776  0.3185  0.5420  0.2002
   47MOL   C27017842   0.964   2.390   2.681 -0.4536 -0.0401 -0.0539
   47MOL   C27117843   0.868   2.450   2.593 -0.1676 -0.6986 -0.1130
   47MOL   C27217844   0.842   2.586   2.588 -0.9756 -0.0830 -0.3879
   47MOL   C27317845   0.733   2.644   2.501  0.4615  0.1006 -0.5741
   47MOL   C27417846   0.907   2.660   2.692 -1.0474 -0.5630 -0.0849
   47MOL   C27517847   0.999   2.605   2.785  0.3311  0.2777  0.4528
   47MOL   C27617848   1.078   2.423   3.034 -0.2969  0.0381 -0.1438
   47MOL   H27717849   1.085   2.289   2.880  0.6642  0.0445 -1.7600
   47MOL   H27817850   0.985   2.284   2.680  3.9335  0.7351 -1.2886
   47MOL   H27917851   0.808   2.386   2.530 -2.6999  0.9881  0.5086
   47MOL   H28017852   0.764   2.622   2.399 -0.8552 -0.7327 -0.8134
   47MOL   H28117853   0.636   2.594   2.496  0.2390  0.6710 -2.1461
   47MOL   H28217854   0.734   2.750   2.523  1.8528 -0.5589  2.9120
   47MOL   H28317855   0.883   2.763   2.715 -0.1636  0.3528 -2.9553
   47MOL   H28417856   1.040   2.665   2.865  0.1229  2.4296 -1.0059
   47MOL   H28517857   1.127   2.515   3.067 -2.6121  1.1732  0.2375
   47MOL   H28617858   1.131   2.352   3.097  1.9259  1.7760  0.0385
   47MOL   C28717859   0.933   2.424   3.079  0.4894  0.3315  0.0073
   47MOL   C28817860   0.907   2.462   3.220  0.1543  0.3006  0.4704
   47MOL   C28917861   0.928   2.592   3.257 -0.2453 -0.0898  0.2931
   47MOL   C29017862   0.906   2.634   3.390 -0.2661  0.0783 -0.9504
   47MOL   C29117863   0.883   2.537   3.487  0.1725  0.1791  0.0230
   47MOL   C29217864   0.883   2.585   3.633 -0.0844  0.0933  0.2891
   47MOL   C29317865   0.864   2.401   3.453 -0.1675  0.3046 -0.1632
   47MOL   C29417866   0.882   2.363   3.321  0.0330 -0.0956 -0.0406
   47MOL   C29517867   0.851   2.308   3.025 -0.3516  0.2935  0.1148
   47MOL   H29617868   0.896   2.510   3.024 -1.4365 -1.1662 -1.1337
   47MOL   H29717869   0.945   2.655   3.171 -1.3505  0.0270  0.1438
   47MOL   H29817870   0.909   2.739   3.414  2.8612 -0.2446  0.3115
   47MOL   H29917871   0.848   2.506   3.700  0.0960 -0.9404 -0.8117
   47MOL   H30017872   0.985   2.616   3.658  0.3065 -0.6784 -0.3220
   47MOL   H30117873   0.821   2.674   3.641 -1.0346 -0.3237 -2.1305
   47MOL   H30217874   0.851   2.321   3.526  0.6579  0.3380  0.0152
   47MOL   H30317875   0.881   2.257   3.302  0.8234 -0.1198  0.0505
   47MOL   H30417876   0.881   2.224   3.088  1.4061  1.5712  1.0020
   47MOL   H30517877   0.869   2.283   2.921 -2.3117  0.1615 -0.2180
   47MOL   C30617878   0.697   2.325   3.043 -0.4237  0.5898 -0.1191
   47MOL   C30717879   0.627   2.198   2.998  0.3738  0.3180 -0.5214
   47MOL   C30817880   0.552   2.117   3.087  0.3878 -0.6825  0.6261
   47MOL   C30917881   0.476   2.005   3.036 -0.8877  0.0747  0.5527
   47MOL   C31017882   0.479   1.971   2.901  0.3135 -0.1547 -0.1867
   47MOL   C31117883   0.411   1.846   2.848  0.0902  0.1001 -0.3786
   47MOL   C31217884   0.555   2.053   2.816  0.6199  0.1753 -0.2391
   47MOL   C31317885   0.629   2.168   2.862  0.2322  0.5196  0.4738
   47MOL   C31417886   0.638   2.449   2.958  0.0184  0.0555  0.7865
   47MOL   H31517887   0.674   2.334   3.149  1.3235 -1.3483  0.4676
   47MOL   H31617888   0.537   2.164   3.183 -1.0741 -0.3212  0.2455
   47MOL   H31717889   0.422   1.947   3.109 -1.6653 -1.6974 -1.3653
   47MOL   H31817890   0.340   1.889   2.778 -1.5028  2.9779  2.7943
   47MOL   H31917891   0.493   1.794   2.800  1.8014  1.9410  0.4659
   47MOL   H32017892   0.361   1.788   2.925 -0.2694 -0.2800 -0.8970
   47MOL   H32117893   0.567   2.019   2.714  2.5081  1.4924 -0.4777
   47MOL   H32217894   0.698   2.217   2.795  1.5721 -1.6383  0.2216
   47MOL   H32317895   0.671   2.445   2.854 -2.7895 -1.2700 -0.0995
   47MOL   H32417896   0.676   2.545   2.994 -0.8956  0.6737  0.1330
   47MOL   C32517897   0.484   2.461   2.950  0.5683  0.0076 -0.1770
   47MOL   C32617898   0.450   2.550   2.834 -0.5026  0.1949 -0.0460
   47MOL   C32717899   0.503   2.682   2.820  0.1595 -0.2546 -0.7088
   47MOL   C32817900   0.459   2.768   2.719 -0.1271 -0.4941  0.6111
   47MOL   C32917901   0.367   2.721   2.619  0.1537 -0.0704  0.0584
   47MOL   C33017902   0.310   2.806   2.507  0.1924  0.2505 -0.6316
   47MOL   C33117903   0.317   2.592   2.635  0.0288 -0.1929 -0.5207
   47MOL   C33217904   0.356   2.510   2.739 -0.3376  0.0626 -0.4368
   47MOL   C33317905   0.427   2.503   3.093  0.1048 -0.3221  0.1289
   47MOL   H33417906   0.442   2.362   2.928  0.7591 -0.3652  1.1031
   47MOL   H33517907   0.565   2.717   2.901 -0.9711  2.0265 -0.7781
   47MOL   H33617908   0.477   2.874   2.712 -1.5105 -0.2480  0.7475
   47MOL   H33717909   0.358   2.903   2.500  1.9960 -0.7010 -1.8167
   47MOL   H33817910   0.321   2.763   2.407 -0.1004 -0.8502 -0.2004
   47MOL   H33917911   0.206   2.834   2.524 -0.6710 -3.0766 -0.0156
   47MOL   H34017912   0.247   2.556   2.561 -2.2064 -1.4072  2.1099
   47MOL   H34117913   0.322   2.408   2.748  1.5379 -0.5406  0.0810
   47MOL   H34217914   0.432   2.612   3.104  1.2179 -0.5302  1.7539
   47MOL   H34317915   0.491   2.465   3.172 -0.5157 -1.1695  0.2272
   47MOL   C34417916   0.282   2.459   3.109 -0.8324  0.4647  0.0476
   47MOL   C34517917   0.213   2.522   3.226  0.7935  0.5919 -0.1599
   47MOL   C34617918   0.106   2.608   3.201 -0.1467 -0.4010  0.0154
   47MOL   C34717919   0.051   2.679   3.308  0.2687 -0.3036 -0.3090
   47MOL   C34817920   0.102   2.671   3.438  0.4799 -0.4498  0.0629
   47MOL   C34917921   0.037   2.763   3.548 -0.0852 -0.3192  0.4726
   47MOL   C35017922   0.206   2.581   3.465  0.4626  0.1203  0.1355
   47MOL   C35117923   0.261   2.510   3.358  0.6234  0.1567  0.4893
   47MOL   C35217924   0.273   2.304   3.134 -0.1256 -0.5694  0.3420
   47MOL   H35317925   0.234   2.481   3.014 -2.9117  0.0374  0.9810
   47MOL   H35417926   0.050   2.618   3.109  0.1253 -1.6016 -0.2826
   47MOL   H35517927   8.048   2.744   3.282 -2.0179 -2.7942  0.5147
   47MOL   H35617928   0.080   2.862   3.536  1.7069 -0.6218  3.7388
   47MOL   H35717929   8.008   2.769   3.545 -0.2652 -2.6459  1.3237
   47MOL   H35817930   0.070   2.726   3.645 -2.2529 -0.1336  1.2964
   47MOL   H35917931   0.255   2.579   3.561  0.7596  1.1173  0.0081
   47MOL   H36017932   0.344   2.444   3.380  0.0939 -1.6635 -2.7531
   47MOL   H36117933   0.314   2.281   3.232 -0.3883  0.8662  0.8068
   47MOL   H36217934   0.322   2.246   3.056  2.2072  0.6954  0.8375
   47MOL   C36317935   0.124   2.251   3.139 -0.0533  0.0321 -0.1484
   47MOL   C36417936   0.130   2.102   3.163  0.4033  0.4269 -0.0108
   47MOL   C36517937   0.124   2.006   3.054  0.3039 -0.4104  0.1943
   47MOL   C36617938   0.129   1.869   3.079 -0.1192  0.8573  0.4812
   47MOL   C36717939   0.159   1.817   3.207  0.4350 -0.4080 -0.1419
   47MOL   C36817940   0.161   1.670   3.231  0.2281 -0.5782  0.2643
   47MOL   C36917941   0.164   1.906   3.312  0.2306  1.3672  0.7748
   47MOL   C37017942   0.156   2.048   3.292 -0.6304  0.2847  0.2278
   47MOL   C37117943   0.047   2.286   3.013  0.6562 -0.2759 -0.5181
   47MOL   H37217944   0.076   2.304   3.221  0.7959 -0.3063  0.5792
   47MOL   H37317945   0.103   2.040   2.954  0.3810 -1.4185 -0.1640
   47MOL   H37417946   0.124   1.805   2.992  3.1404 -1.4285  1.8749
   47MOL   H37517947   0.084   1.637   3.302 -0.6188 -0.9177 -0.7927
   47MOL   H37617948   0.142   1.614   3.139 -0.5339  0.2366 -0.0865
   47MOL   H37717949   0.261   1.647   3.268  0.0874 -0.3626  0.7883
   47MOL   H37817950   0.178   1.867   3.412 -3.0524 -0.0265  0.7394
   47MOL   H37917951   0.152   2.103   3.385 -2.4334 -0.6604  0.7444
   47MOL   H38017952   0.009   2.388   3.014 -0.2983 -0.6191 -0.3189
   47MOL   H38117953   8.033   2.230   3.010 -0.3869  1.3760  0.6909
   47MOL   H38217954   0.097   2.276   2.917  1.8704  2.2751 -0.1798
   48MOL     C117955   4.141   6.589   5.768 -0.2925  0.7715  0.1293
   48MOL     C217956   4.075   6.694   5.860 -0.1372 -0.1468 -0.1363
   48MOL     C317957   4.091   6.678   5.999  0.2816  0.6565  0.8100
   48MOL     C417958   4.039   6.775   6.087  0.1032  0.0812 -0.1491
   48MOL     C517959   3.952   6.869   6.034  0.1231  0.3238  0.5561
   48MOL     C617960   3.887   6.974   6.126  0.2214 -0.2074 -0.2816
   48MOL     C717961   3.926   6.885   5.894 -0.1238  0.4471 -0.5308
   48MOL     C817962   3.982   6.784   5.808  0.7236  0.4121  1.1362
   48MOL     C917963   4.285   6.614   5.740  0.5903 -1.1158 -0.2997
   48MOL    H1017964   4.124   6.492   5.817  2.5163  0.2556  0.1712
   48MOL    H1117965   4.162   6.607   6.038 -0.3085  1.1833  2.9056
   48MOL    H1217966   4.055   6.780   6.194 -2.2888 -1.3625  0.3289
   48MOL    H1317967   3.942   6.976   6.220 -0.1015 -1.7388 -0.0447
   48MOL    H1417968   3.895   7.073   6.083  0.8453 -1.2568 -2.6572
   48MOL    H1517969   3.781   6.954   6.146  0.6300 -0.9228  1.3139
   48MOL    H1617970   3.854   6.957   5.858  0.7867  1.9258  0.5618
   48MOL    H1717971   3.950   6.786   5.705 -1.9797  1.9160  1.9594
   48MOL    H1817972   4.346   6.589   5.827  0.0539 -3.2868 -0.5419
   48MOL    H1917973   4.298   6.721   5.720 -1.1333 -0.7114  0.6877
   48MOL    H2017974   4.087   6.588   5.674  0.7063  1.3390 -0.4557
   48MOL    C2117975   4.325   6.539   5.613  0.3828 -0.1934  0.3493
   48MOL    C2217976   4.297   6.385   5.628  0.2290 -0.2245  1.0605
   48MOL    C2317977   4.368   6.304   5.717  0.3544 -0.3999 -0.1580
   48MOL    C2417978   4.339   6.168   5.737 -0.2119 -0.3994 -0.6712
   48MOL    C2517979   4.228   6.111   5.669 -0.4858 -0.2465  0.2577
   48MOL    C2617980   4.179   5.967   5.701  0.3176 -0.3710  0.4038
   48MOL    C2717981   4.148   6.192   5.587  0.2163 -0.1546  0.0406
   48MOL    C2817982   4.186   6.327   5.558 -0.4391  0.0126 -0.0484
   48MOL    C2917983   4.464   6.566   5.553  0.1389  0.2716 -0.6960
   48MOL    H3017984   4.251   6.563   5.537  0.0964 -1.3564  0.2454
   48MOL    H3117985   4.444   6.355   5.775 -0.6613  0.9178  0.0175
   48MOL    H3217986   4.396   6.107   5.806  1.2007 -1.8944 -3.0804
   48MOL    H3317987   4.198   5.944   5.806  2.9223 -0.0390  0.0445
   48MOL    H3417988   4.073   5.956   5.680 -0.0685  1.0235  1.5741
   48MOL    H3517989   4.226   5.883   5.650  0.1410 -0.0738 -0.2471
   48MOL    H3617990   4.066   6.144   5.536 -1.7363  0.4671  2.4990
   48MOL    H3717991   4.139   6.379   5.475  3.3302 -0.4028 -2.6079
   48MOL    H3817992   4.474   6.519   5.455  1.3789 -1.0606  0.0549
   48MOL    H3917993   4.538   6.522   5.620  0.9077  0.5262 -1.3539
   48MOL    C4017994   4.492   6.720   5.518  0.2012  0.0766 -0.3890
   48MOL    C4117995   4.378   6.784   5.436 -0.3119 -0.0643 -0.6583
   48MOL    C4217996   4.309   6.900   5.483  0.1492 -0.1047 -0.0159
   48MOL    C4317997   4.215   6.965   5.398  0.2095  0.0499  0.0486
   48MOL    C4417998   4.181   6.911   5.274 -0.1129  0.1441  0.1004
   48MOL    C4517999   4.081   6.975   5.190  0.1858  0.2510 -0.4348
   48MOL    C4618000   4.257   6.803   5.220 -0.3557 -0.1834 -0.0618
   48MOL    C4718001   4.351   6.737   5.302 -0.2319  0.8221 -0.2691
   48MOL    C4818002   4.637   6.760   5.464  0.5269  0.3413 -0.0743
   48MOL    H4918003   4.489   6.764   5.618 -1.0927 -0.1990 -0.3070
   48MOL    H5018004   4.337   6.946   5.577  1.2335  1.4487 -1.0671
   48MOL    H5118005   4.163   7.051   5.436 -0.5048 -0.7399  0.8897
   48MOL    H5218006   4.135   7.044   5.126  2.2556  1.1059  2.1438
   48MOL    H5318007   4.018   6.914   5.125  0.3075  0.9152 -1.1730
   48MOL    H5418008   4.018   7.040   5.251  2.1111  0.6341  1.1842
   48MOL    H5518009   4.256   6.775   5.116 -1.5692  0.1510 -0.1506
   48MOL    H5618010   4.415   6.659   5.265  0.5090  0.6994  1.2149
   48MOL    H5718011   4.657   6.734   5.360  2.6793  1.1526  0.1108
   48MOL    H5818012   4.714   6.693   5.503  0.4866  0.1562 -0.3142
   48MOL    C5918013   4.693   6.898   5.520  0.7585 -0.2934  0.0154
   48MOL    C6018014   4.753   6.974   5.407  0.4529  0.1802  0.0501
   48MOL    C6118015   4.717   7.111   5.388  0.5802 -0.3387 -0.0218
   48MOL    C6218016   4.783   7.194   5.302  0.7841  0.1614  0.3561
   48MOL    C6318017   4.878   7.137   5.218 -0.9127  0.1667  0.2481
   48MOL    C6418018   4.934   7.219   5.108  0.0197 -0.5319  0.1082
   48MOL    C6518019   4.920   6.997   5.234 -0.5713 -0.5384 -0.7996
   48MOL    C6618020   4.860   6.911   5.333 -0.8033  0.1688  0.6576
   48MOL    C6718021   4.800   6.891   5.633  0.3009  0.0391  0.1944
   48MOL    H6818022   4.618   6.958   5.571 -1.5154 -1.1359 -2.1873
   48MOL    H6918023   4.637   7.160   5.440 -0.5234 -0.4990 -1.5361
   48MOL    H7018024   4.742   7.293   5.288  1.2242  0.3174  0.1712
   48MOL    H7118025   4.975   7.156   5.029 -0.4053 -0.1242 -0.4389
   48MOL    H7218026   4.861   7.277   5.052  0.9841 -0.9386 -1.6072
   48MOL    H7318027   5.009   7.287   5.148 -2.8839  2.6366  0.3304
   48MOL    H7418028   4.991   6.950   5.167 -0.6322 -0.4804 -0.9059
   48MOL    H7518029   4.884   6.806   5.341 -1.9777 -0.1821 -0.3469
   48MOL    H7618030   4.845   6.989   5.652 -1.3564  0.9359 -0.4457
   48MOL    H7718031   4.893   6.844   5.598  0.3224 -0.5982  1.0977
   48MOL    C7818032   4.755   6.823   5.769 -0.1792  0.1495 -0.2976
   48MOL    C7918033   4.634   6.894   5.831  0.0190  0.1175 -0.6850
   48MOL    C8018034   4.553   6.804   5.909 -0.5099 -0.3471 -0.2410
   48MOL    C8118035   4.442   6.852   5.977 -0.4419  0.5568  0.6976
   48MOL    C8218036   4.408   6.987   5.964  0.4966 -0.6847 -0.4563
   48MOL    C8318037   4.282   7.036   6.029 -0.6502 -0.1157  0.0137
   48MOL    C8418038   4.490   7.083   5.896  0.7080  0.5168  0.5080
   48MOL    C8518039   4.604   7.032   5.823  1.2445 -0.0913 -0.1301
   48MOL    C8618040   4.878   6.809   5.859  0.0083 -0.0408  0.1934
   48MOL    H8718041   4.729   6.720   5.746  0.2502 -0.0911  0.2872
   48MOL    H8818042   4.576   6.699   5.906  0.5726 -0.1756  1.5603
   48MOL    H8918043   4.376   6.779   6.020  1.9940 -2.3242 -0.3185
   48MOL    H9018044   4.296   7.130   6.084 -1.8096  1.2294 -1.9357
   48MOL    H9118045   4.214   7.055   5.946 -1.7059 -0.1699  0.8702
   48MOL    H9218046   4.238   6.956   6.087 -0.4318  0.6188  1.2103
   48MOL    H9318047   4.460   7.187   5.896 -0.7889  0.1018 -1.0854
   48MOL    H9418048   4.683   7.091   5.778  0.4456  0.3122 -1.0435
   48MOL    H9518049   4.861   6.771   5.960 -2.8412 -2.0441 -0.9786
   48MOL    H9618050   4.934   6.902   5.857  0.4382 -0.3041 -0.5147
   48MOL    C9718051   4.969   6.691   5.818 -1.1187  0.0344 -0.2333
   48MOL    C9818052   4.901   6.560   5.845 -0.1658  0.5579  0.4355
   48MOL    C9918053   4.869   6.515   5.980 -0.4360 -1.2254  0.4652
   48MOL   C10018054   4.812   6.391   6.005  0.1828 -0.8600  0.3935
   48MOL   C10118055   4.779   6.307   5.896 -0.5029  0.0008  0.5461
   48MOL   C10218056   4.716   6.174   5.926  0.0839  1.7758  0.2700
   48MOL   C10318057   4.805   6.349   5.762  0.4331 -0.4878 -0.8323
   48MOL   C10418058   4.865   6.473   5.737 -0.5787  0.5020  0.0792
   48MOL   C10518059   5.108   6.690   5.874 -0.5077 -0.8556 -0.8862
   48MOL   H10618060   5.004   6.695   5.715 -0.6061  0.1422 -0.0616
   48MOL   H10718061   4.889   6.578   6.065 -1.9059  0.7386 -0.5958
   48MOL   H10818062   4.796   6.357   6.106  1.0337  0.6837  1.0727
   48MOL   H10918063   4.784   6.090   5.920 -0.7347  1.2480 -2.6914
   48MOL   H11018064   4.674   6.162   6.026  0.0133  1.9908  0.2670
   48MOL   H11118065   4.634   6.155   5.855  0.1344 -1.6266  1.0475
   48MOL   H11218066   4.766   6.301   5.674 -0.1817 -1.2412 -0.1657
   48MOL   H11318067   4.875   6.508   5.636  1.5101  0.9445  0.4238
   48MOL   H11418068   5.161   6.595   5.867 -0.9598 -1.1440 -0.5055
   48MOL   H11518069   5.103   6.692   5.983  0.6944  1.6409 -0.8306
   48MOL   C11618070   5.209   6.793   5.817 -0.7034  0.6567  0.3497
   48MOL   C11718071   5.255   6.772   5.671  0.2737  0.0182  0.1832
   48MOL   C11818072   5.187   6.847   5.574  0.0386 -0.0231 -0.3797
   48MOL   C11918073   5.208   6.820   5.438 -0.3145  0.2968  0.2080
   48MOL   C12018074   5.302   6.724   5.392  0.3924 -0.4068 -0.2249
   48MOL   C12118075   5.326   6.697   5.241 -0.2457  0.2233  0.9798
   48MOL   C12218076   5.383   6.660   5.494  0.2112 -0.6240 -0.6600
   48MOL   C12318077   5.351   6.681   5.631  0.2499  0.6561 -0.4172
   48MOL   C12418078   5.325   6.807   5.917  0.1911  0.3726  0.4912
   48MOL   H12518079   5.169   6.893   5.829  0.4150  1.2279 -0.6618
   48MOL   H12618080   5.106   6.915   5.595 -0.3126 -0.7714  0.7339
   48MOL   H12718081   5.154   6.869   5.359 -1.5147 -1.7122 -0.2515
   48MOL   H12818082   5.244   6.736   5.180  0.5179 -1.4914 -1.1894
   48MOL   H12918083   5.416   6.757   5.232  0.6170 -1.2012 -0.2534
   48MOL   H13018084   5.341   6.591   5.220  0.6327  0.8249 -1.5964
   48MOL   H13118085   5.459   6.587   5.470 -1.0044 -2.0891 -0.1441
   48MOL   H13218086   5.404   6.630   5.710 -1.8469  1.2201  1.3997
   48MOL   H13318087   5.370   6.708   5.929 -0.9821  0.0175  2.3616
   48MOL   H13418088   5.294   6.831   6.019  0.4981  2.4103  0.1061
   48MOL   C13518089   5.426   6.908   5.865 -0.4285  0.5928 -0.0655
   48MOL   C13618090   5.569   6.851   5.844  0.3228 -0.1193 -0.6413
   48MOL   C13718091   5.631   6.879   5.719 -0.1907 -0.0617  0.1747
   48MOL   C13818092   5.755   6.818   5.684  0.8089 -0.0875 -0.1061
   48MOL   C13918093   5.818   6.735   5.777 -0.0512  0.5284  0.4423
   48MOL   C14018094   5.938   6.666   5.737  0.0228  0.0248  0.4086
   48MOL   C14118095   5.759   6.718   5.902 -0.1264  0.1453  0.2287
   48MOL   C14218096   5.638   6.772   5.938  0.3089  0.4433  0.0087
   48MOL   C14318097   5.446   7.030   5.964  0.4567  0.5519 -0.6465
   48MOL   H14418098   5.382   6.958   5.779 -0.4107 -0.8897 -0.9646
   48MOL   H14518099   5.593   6.953   5.650  0.8532  0.9367  0.6361
   48MOL   H14618100   5.796   6.826   5.585  0.9674  1.5451  0.0818
   48MOL   H14718101   6.003   6.738   5.686 -0.0512  0.4472  0.8996
   48MOL   H14818102   5.980   6.634   5.833 -0.6635  0.2700  0.7916
   48MOL   H14918103   5.916   6.579   5.676  2.5023 -0.5399  0.2656
   48MOL   H15018104   5.809   6.652   5.970 -1.0190 -0.6521  0.1219
   48MOL   H15118105   5.601   6.771   6.039  1.1236  0.2089  0.3130
   48MOL   H15218106   5.521   7.099   5.926  0.4150  0.3462 -1.0997
   48MOL   H15318107   5.484   6.995   6.060 -0.3818  2.1967  0.3225
   48MOL   C15418108   5.316   7.111   5.994  0.0233  0.0711 -0.4609
   48MOL   C15518109   5.256   7.169   5.867 -0.2766  0.1820  0.3324
   48MOL   C15618110   5.337   7.231   5.769 -0.0575  0.1145  0.1830
   48MOL   C15718111   5.287   7.267   5.641 -0.1452 -0.7175  0.0117
   48MOL   C15818112   5.152   7.246   5.614  0.4553 -0.4996  0.1775
   48MOL   C15918113   5.086   7.296   5.483 -0.1734 -0.2865 -0.2191
   48MOL   C16018114   5.071   7.188   5.714  0.0480  1.1480 -0.0284
   48MOL   C16118115   5.118   7.138   5.837  0.1444  0.0842 -0.5955
   48MOL   C16218116   5.344   7.224   6.098 -0.6290 -0.3172  0.1125
   48MOL   H16318117   5.238   7.043   6.029 -0.8549  0.8118 -0.9643
   48MOL   H16418118   5.442   7.244   5.788  0.4400  0.7823 -2.8707
   48MOL   H16518119   5.348   7.320   5.569  0.4655 -1.3108  0.0927
   48MOL   H16618120   5.054   7.233   5.401 -0.1994  0.1974 -0.5860
   48MOL   H16718121   5.006   7.365   5.510 -2.6095 -3.2338  0.2080
   48MOL   H16818122   5.160   7.363   5.438 -1.4993 -0.1069 -2.1650
   48MOL   H16918123   4.969   7.175   5.682  0.5749 -0.7634 -0.9760
   48MOL   H17018124   5.056   7.088   5.909  1.1618 -1.4642 -0.7586
   48MOL   H17118125   5.410   7.300   6.058 -0.5386  0.1458  1.1323
   48MOL   H17218126   5.410   7.181   6.174  1.3666  0.2109 -1.2786
   48MOL   C17318127   5.228   7.300   6.157  0.1441  0.7131 -0.5767
   48MOL   C17418128   5.278   7.378   6.272  0.1180 -0.0172  0.3070
   48MOL   C17518129   5.308   7.514   6.258  0.9155 -0.4940  0.9915
   48MOL   C17618130   5.369   7.590   6.360  0.0768 -0.5814 -0.1377
   48MOL   C17718131   5.395   7.524   6.484  0.0852 -0.1067  0.2897
   48MOL   C17818132   5.459   7.612   6.590  0.1181  0.3932 -0.0268
   48MOL   C17918133   5.366   7.387   6.505 -0.2938  0.2563 -0.1756
   48MOL   C18018134   5.312   7.312   6.397  1.5066 -1.0074 -0.3811
   48MOL   C18118135   5.097   7.220   6.202 -0.4893 -0.2828  0.0410
   48MOL   H18218136   5.199   7.363   6.072  0.4339  0.1793 -1.0693
   48MOL   H18318137   5.294   7.576   6.171 -0.4400  1.6712  2.7121
   48MOL   H18418138   5.389   7.695   6.346 -1.0600 -0.4443 -0.7988
   48MOL   H18518139   5.520   7.684   6.535 -0.5141  1.1266  0.2333
   48MOL   H18618140   5.371   7.644   6.646  0.4999  2.1366 -0.3860
   48MOL   H18718141   5.514   7.549   6.661  0.2906  0.3448 -0.2023
   48MOL   H18818142   5.376   7.336   6.600 -0.6066  0.4620 -0.0333
   48MOL   H18918143   5.285   7.208   6.405 -0.1186 -0.8196 -2.8720
   48MOL   H19018144   5.125   7.153   6.283 -0.8414  1.4495  1.6364
   48MOL   H19118145   5.076   7.147   6.123  1.5526 -0.6797 -0.1453
   48MOL   C19218146   4.970   7.311   6.223  0.0362 -0.2599 -0.2368
   48MOL   C19318147   4.912   7.261   6.358 -0.4120  0.1376  0.1699
   48MOL   C19418148   4.937   7.332   6.477  0.2782  0.2182  0.0392
   48MOL   C19518149   4.878   7.300   6.598  0.4318  0.0209  0.0544
   48MOL   C19618150   4.807   7.177   6.607  0.1112  0.1091  0.0115
   48MOL   C19718151   4.749   7.135   6.739 -0.1301  0.0496  0.3857
   48MOL   C19818152   4.780   7.102   6.491  0.3383  0.2486  0.5002
   48MOL   C19918153   4.825   7.152   6.362 -0.4340  0.2568  0.2350
   48MOL   C20018154   4.876   7.306   6.097  0.5522  0.4179 -0.6241
   48MOL   H20118155   5.012   7.409   6.246 -1.3483  0.1816  0.5169
   48MOL   H20218156   5.002   7.419   6.482 -2.1885  2.2133 -1.3164
   48MOL   H20318157   4.898   7.363   6.683 -0.9792 -0.1884  0.5602
   48MOL   H20418158   4.812   7.165   6.823 -0.7083  1.3082  0.3726
   48MOL   H20518159   4.655   7.181   6.767  0.5066  1.8699 -0.3851
   48MOL   H20618160   4.731   7.027   6.738  1.7724 -0.2963  1.0177
   48MOL   H20718161   4.709   7.021   6.491 -0.9810  1.3934  1.2115
   48MOL   H20818162   4.797   7.111   6.266  1.8143 -2.6838  0.7736
   48MOL   H20918163   4.819   7.213   6.097 -0.3039  0.9194  0.9565
   48MOL   H21018164   4.940   7.285   6.012  1.6185 -0.8820  0.4780
   48MOL   C21118165   4.782   7.428   6.080  0.4808 -0.8548  0.1804
   48MOL   C21218166   4.684   7.455   6.204  0.0160 -0.5473 -0.3369
   48MOL   C21318167   4.688   7.582   6.260 -0.0742  0.3362 -0.3918
   48MOL   C21418168   4.623   7.614   6.381  0.0275 -0.3684  0.0129
   48MOL   C21518169   4.537   7.520   6.440 -0.5068 -0.3685 -0.0212
   48MOL   C21618170   4.456   7.548   6.569 -0.3230  0.3779  0.6930
   48MOL   C21718171   4.535   7.394   6.385  0.3732 -0.2212 -0.4017
   48MOL   C21818172   4.602   7.360   6.268 -0.4243  0.3199  0.2932
   48MOL   C21918173   4.707   7.419   5.943  0.1961 -0.0727  0.3245
   48MOL   H22018174   4.854   7.510   6.073  0.9638 -1.1302  1.8506
   48MOL   H22118175   4.752   7.658   6.215  1.1561 -1.3768 -1.5888
   48MOL   H22218176   4.627   7.707   6.436 -1.2421 -1.7946  2.6331
   48MOL   H22318177   4.388   7.467   6.595  0.3779 -1.0952 -1.9165
   48MOL   H22418178   4.536   7.568   6.640  0.7126 -1.1316 -0.0194
   48MOL   H22518179   4.395   7.638   6.561  0.9380  1.5230  3.3881
   48MOL   H22618180   4.481   7.310   6.425  0.6756 -0.0082  0.4549
   48MOL   H22718181   4.599   7.257   6.235 -1.3686  0.7812 -1.0929
   48MOL   H22818182   4.640   7.334   5.956  0.6649 -0.1315  2.5146
   48MOL   H22918183   4.758   7.380   5.855 -1.0671 -2.9518  0.8287
   48MOL   C23018184   4.608   7.529   5.911  0.5669 -0.0515  0.4863
   48MOL   C23118185   4.500   7.483   5.811 -0.3321 -0.0613  0.6196
   48MOL   C23218186   4.365   7.476   5.851 -0.1942  0.2528 -0.4055
   48MOL   C23318187   4.262   7.439   5.759 -0.2182  0.3781  0.2010
   48MOL   C23418188   4.300   7.397   5.627 -0.5090  0.6142 -0.6625
   48MOL   C23518189   4.201   7.361   5.522  0.1134 -0.3757  0.2750
   48MOL   C23618190   4.437   7.390   5.598 -0.0415 -0.4931  0.2435
   48MOL   C23718191   4.536   7.434   5.683 -0.8612  0.4195 -0.4094
   48MOL   C23818192   4.685   7.654   5.856  0.2316 -0.4982  0.1070
   48MOL   H23918193   4.557   7.568   6.000 -0.1430 -0.0833  0.0996
   48MOL   H24018194   4.338   7.515   5.948  1.2551 -0.2538  0.2156
   48MOL   H24118195   4.160   7.441   5.794 -1.1554  0.2143 -2.4492
   48MOL   H24218196   4.104   7.358   5.572 -0.0664  0.0112 -0.0459
   48MOL   H24318197   4.194   7.448   5.456  2.0135 -0.3128  0.1355
   48MOL   H24418198   4.214   7.274   5.458 -0.9583  0.2337 -0.7927
   48MOL   H24518199   4.467   7.366   5.497  0.4084  0.0472  0.2467
   48MOL   H24618200   4.642   7.431   5.660 -0.4334  1.9277  1.2002
   48MOL   H24718201   4.721   7.636   5.755 -0.9495  1.2603 -0.6518
   48MOL   H24818202   4.776   7.676   5.913  0.4779 -2.6172  0.5738
   48MOL   C24918203   4.612   7.797   5.862 -0.0343 -0.9102  0.0581
   48MOL   C25018204   4.578   7.849   6.001  0.3504 -0.1402  0.2577
   48MOL   C25118205   4.451   7.825   6.052  0.2305 -0.0113 -0.4007
   48MOL   C25218206   4.401   7.885   6.168 -0.3904 -0.1020 -0.4196
   48MOL   C25318207   4.482   7.987   6.230  0.1790 -0.7786 -0.3627
   48MOL   C25418208   4.437   8.045   6.363  0.2639  0.0405  0.2410
   48MOL   C25518209   4.607   8.020   6.174  0.0504  0.7540 -0.6620
   48MOL   C25618210   4.652   7.952   6.064 -0.7194 -0.7237  0.4591
   48MOL   C25718211   4.495   7.818   5.762 -0.0753 -0.4139 -0.4154
   48MOL   H25818212   4.693   7.862   5.828 -1.6791  1.0236 -0.2587
   48MOL   H25918213   4.385   7.755   6.005 -2.4603  1.2347  1.3655
   48MOL   H26018214   4.299   7.855   6.190  0.4569 -1.0520  2.4396
   48MOL   H26118215   4.456   7.984   6.451  0.3352  0.5191  0.5598
   48MOL   H26218216   4.495   0.057   6.377  2.0123 -0.7707 -1.5067
   48MOL   H26318217   4.328   8.049   6.362  0.1735 -2.1302 -0.0594
   48MOL   H26418218   4.673   0.014   6.217  1.0844  0.5944 -1.9457
   48MOL   H26518219   4.739   7.991   6.013 -0.7548 -0.2432  0.7677
   48MOL   H26618220   4.460   7.922   5.766 -1.4704 -0.8925  0.1085
   48MOL   H26718221   4.410   7.764   5.801 -1.2766  1.8926  0.2810
   48MOL   C26818222   4.523   7.794   5.613 -0.1451 -0.5230 -0.0550
   48MOL   C26918223   4.637   7.866   5.554 -0.7642  0.2032 -0.2876
   48MOL   C27018224   4.759   7.800   5.508  0.2033 -0.0686  0.6542
   48MOL   C27118225   4.863   7.879   5.469 -0.3704 -0.4668 -0.1535
   48MOL   C27218226   4.859   8.017   5.465 -0.2958  0.3000  0.0367
   48MOL   C27318227   4.989   0.007   5.427  0.3013  0.0516  0.1200
   48MOL   C27418228   4.741   0.002   5.505  0.1397 -0.1687  0.6358
   48MOL   C27518229   4.631   8.007   5.547 -0.0260  0.2849  0.2933
   48MOL   C27618230   4.393   7.823   5.538 -0.5102  0.0834  0.3136
   48MOL   H27718231   4.539   7.688   5.593  2.2511 -0.1673 -0.1590
   48MOL   H27818232   4.772   7.693   5.507  1.2845  0.0395  2.2557
   48MOL   H27918233   4.951   7.830   5.429 -0.1653 -0.7665  0.6681
   48MOL   H28018234   4.964   0.108   5.397 -2.9619 -0.5937  0.4844
   48MOL   H28118235   5.042   0.013   5.522 -0.4082  2.3222  0.3866
   48MOL   H28218236   5.046   8.034   5.351 -0.3943  0.8337 -0.9608
   48MOL   H28318237   4.744   0.109   5.514  1.0635 -0.0668 -0.7098
   48MOL   H28418238   4.531   8.044   5.568 -0.8507 -0.0042 -2.7326
   48MOL   H28518239   4.363   7.926   5.558 -0.4102  0.1708  0.0235
   48MOL   H28618240   4.324   7.755   5.588 -0.7861 -0.2732 -0.5398
   48MOL   C28718241   4.390   7.820   5.384 -0.0206 -0.6909  0.4344
   48MOL   C28818242   4.244   7.841   5.326 -0.5727  0.4437  0.4156
   48MOL   C28918243   4.146   7.742   5.355 -0.7560  0.1029 -0.0911
   48MOL   C29018244   4.016   7.761   5.309  0.6531 -0.9091 -0.4737
   48MOL   C29118245   3.987   7.875   5.229  0.1810  0.0542 -0.1654
   48MOL   C29218246   3.854   7.881   5.160 -0.1955 -0.2355 -0.5266
   48MOL   C29318247   4.084   7.971   5.197  0.2559 -0.2911  0.1043
   48MOL   C29418248   4.214   7.956   5.248  0.3548  0.1971 -0.2321
   48MOL   C29518249   4.452   7.684   5.335 -0.4544  0.6331 -0.5179
   48MOL   H29618250   4.456   7.901   5.355  0.5355 -1.5031 -0.6164
   48MOL   H29718251   4.169   7.654   5.413 -1.2576 -1.0796 -1.6639
   48MOL   H29818252   3.938   7.687   5.326  0.1136  0.0835  1.5377
   48MOL   H29918253   3.864   7.872   5.052  1.7232 -0.4328 -0.3437
   48MOL   H30018254   3.778   7.809   5.191 -2.7133  2.0812 -1.0620
   48MOL   H30118255   3.809   7.979   5.173  0.1821 -0.2723  1.1578
   48MOL   H30218256   4.049   8.049   5.131  0.6121  2.2394  2.8187
   48MOL   H30318257   4.298   8.021   5.228  0.4959  0.0537 -0.0999
   48MOL   H30418258   4.383   7.601   5.350  1.6720 -1.4379 -1.8308
   48MOL   H30518259   4.542   7.662   5.391 -0.4534  2.5040  0.2607
   48MOL   C30618260   4.503   7.681   5.192  0.1291  0.4129  0.3626
   48MOL   C30718261   4.481   7.544   5.121  0.3383 -0.3415  0.1143
   48MOL   C30818262   4.403   7.544   5.002 -0.5566  0.1185  0.6068
   48MOL   C30918263   4.391   7.431   4.923 -0.0767 -0.2644 -0.0169
   48MOL   C31018264   4.440   7.309   4.972 -0.3149  0.0739 -1.0633
   48MOL   C31118265   4.409   7.184   4.895 -0.2908 -0.3057 -0.2098
   48MOL   C31218266   4.528   7.303   5.085  0.2444  0.3572 -0.3161
   48MOL   C31318267   4.539   7.424   5.161  0.5634  0.4233 -0.0008
   48MOL   C31418268   4.635   7.756   5.170 -0.9964  0.1580  0.4571
   48MOL   H31518269   4.433   7.740   5.132 -0.4950  0.4105  1.0790
   48MOL   H31618270   4.347   7.627   4.961 -0.4655 -0.0046  0.2360
   48MOL   H31718271   4.341   7.438   4.828  2.7861 -0.6143 -1.6066
   48MOL   H31818272   4.412   7.099   4.962 -0.1869 -0.5873 -0.5721
   48MOL   H31918273   4.311   7.201   4.851 -0.5957  0.7103  0.8373
   48MOL   H32018274   4.487   7.172   4.819 -0.6245 -2.9045 -0.1626
   48MOL   H32118275   4.576   7.213   5.121 -1.4798  0.0963  1.4348
   48MOL   H32218276   4.587   7.424   5.258 -1.7101 -0.1258  1.1491
   48MOL   H32318277   4.703   7.701   5.235 -2.4688 -2.4505 -0.1517
   48MOL   H32418278   4.616   7.860   5.198 -0.3102  0.2575  0.5580
   48MOL   C32518279   4.699   7.752   5.032  0.2564  0.7310  0.2649
   48MOL   C32618280   4.849   7.792   5.025  0.5162  0.5410  0.4925
   48MOL   C32718281   4.954   7.698   5.003 -0.0890 -1.0113  0.6694
   48MOL   C32818282   5.093   7.736   5.010 -0.7897 -0.4998  0.0645
   48MOL   C32918283   5.122   7.876   5.037 -0.4142  0.3793  0.3653
   48MOL   C33018284   5.259   7.925   5.036  0.5516  0.3539  0.2457
   48MOL   C33118285   5.022   7.965   5.066  0.4865  0.3002 -0.3471
   48MOL   C33218286   4.885   7.924   5.062 -0.0566  0.0223  0.2680
   48MOL   C33318287   4.612   7.818   4.920  0.1433 -0.2895  0.2616
   48MOL   H33418288   4.711   7.644   5.021  1.1688  0.6752  1.6340
   48MOL   H33518289   4.929   7.596   4.980 -0.0674 -1.3792  2.1986
   48MOL   H33618290   5.170   7.663   4.991 -2.0396 -2.1918  1.3062
   48MOL   H33718291   5.268   8.028   5.000 -2.2239  1.3407  2.2056
   48MOL   H33818292   5.304   7.927   5.135  1.3871 -0.4713 -0.1143
   48MOL   H33918293   5.321   7.869   4.966 -1.3609 -2.1871  0.5260
   48MOL   H34018294   5.029   8.067   5.101  1.9069  0.2506 -0.4587
   48MOL   H34118295   4.800   7.985   5.091  0.2389  0.6129 -0.0886
   48MOL   H34218296   4.604   7.925   4.939 -0.6551 -0.1643 -0.6832
   48MOL   H34318297   4.506   7.792   4.927  0.3676 -0.7086  2.0502
   48MOL   C34418298   4.655   7.803   4.767  0.5554  0.9026 -0.6262
   48MOL   C34518299   4.563   7.875   4.677 -0.0870 -1.0638 -0.1474
   48MOL   C34618300   4.434   7.829   4.658  0.0126 -0.3880  0.3280
   48MOL   C34718301   4.350   7.890   4.563  0.7595  0.7037 -0.4791
   48MOL   C34818302   4.387   7.995   4.480  0.3967 -0.1248 -0.6098
   48MOL   C34918303   4.293   8.052   4.370 -0.1624  0.1308  0.2076
   48MOL   C35018304   4.514   8.055   4.508 -0.1714  0.4482  0.5992
   48MOL   C35118305   4.600   7.993   4.602  0.1293  0.2199  0.0232
   48MOL   C35218306   4.672   7.651   4.730 -0.3574 -0.1562  0.1234
   48MOL   H35318307   4.760   7.832   4.758  1.3992 -1.9212 -0.4753
   48MOL   H35418308   4.398   7.748   4.720 -1.4554  2.2648  3.0438
   48MOL   H35518309   4.251   7.850   4.549  0.1649  1.9332  0.1836
   48MOL   H35618310   4.338   8.015   4.278 -1.0321 -2.0369  0.6170
   48MOL   H35718311   4.207   7.989   4.391  1.4917 -1.9250  1.0233
   48MOL   H35818312   4.275   0.078   4.385 -4.0766 -0.4459  0.1172
   48MOL   H35918313   4.550   0.067   4.465 -2.1849  0.1029 -1.9395
   48MOL   H36018314   4.697   8.039   4.618 -0.2692  0.6680  1.2090
   48MOL   H36118315   4.584   7.600   4.768 -0.6606  1.1999  1.3015
   48MOL   H36218316   4.758   7.610   4.783 -0.2163  1.2310  1.0195
   48MOL   C36318317   4.691   7.620   4.579 -0.3399  0.2952 -0.2420
   48MOL   C36418318   4.656   7.471   4.548  0.0809  0.7273  0.1992
   48MOL   C36518319   4.755   7.375   4.531 -0.0115  0.0459  0.3549
   48MOL   C36618320   4.720   7.240   4.520 -0.8231 -0.2893  0.5350
   48MOL   C36718321   4.585   7.198   4.523 -0.0193  0.0986 -0.6065
   48MOL   C36818322   4.554   7.053   4.486  0.4510 -0.1249 -0.6239
   48MOL   C36918323   4.485   7.298   4.539 -0.3856 -0.3879 -0.0104
   48MOL   C37018324   4.519   7.433   4.549  0.2646 -0.2006 -0.1710
   48MOL   C37118325   4.835   7.657   4.529 -0.4279  0.2511 -0.5607
   48MOL   H37218326   4.614   7.683   4.536 -1.5020 -2.2398 -2.0274
   48MOL   H37318327   4.859   7.402   4.530  0.1497 -0.5712 -0.5641
   48MOL   H37418328   4.796   7.169   4.494  0.4094  1.4436 -0.6970
   48MOL   H37518329   4.471   7.026   4.551  1.6060 -0.6059  0.6683
   48MOL   H37618330   4.517   7.055   4.383 -0.2618  2.1942 -0.3489
   48MOL   H37718331   4.648   6.999   4.497  0.7493  0.6051  0.3784
   48MOL   H37818332   4.379   7.279   4.543 -0.2087 -1.4534 -0.3045
   48MOL   H37918333   4.449   7.515   4.550  1.3460  0.7307 -0.0335
   48MOL   H38018334   4.920   7.598   4.565 -1.2199 -0.8694 -0.4777
   48MOL   H38118335   4.859   7.762   4.544 -1.5302  0.5012 -0.4598
   48MOL   H38218336   4.839   7.635   4.422 -0.0261 -0.8800 -0.3234
   49MOL     C118337   4.211   4.378   2.733  0.7673 -0.2782 -0.0894
   49MOL     C218338   4.176   4.269   2.824 -0.0545  0.0093  0.0961
   49MOL     C318339   4.276   4.185   2.879 -0.5873 -0.3360  0.3690
   49MOL     C418340   4.232   4.085   2.970 -0.0142 -0.0798  0.1063
   49MOL     C518341   4.099   4.069   3.015 -0.1104  0.1064 -0.1391
   49MOL     C618342   4.058   3.976   3.129  0.1976  0.7660  0.1304
   49MOL     C718343   4.007   4.157   2.964  0.1294  0.6550  0.1377
   49MOL     C818344   4.043   4.256   2.868 -0.3929  0.0121  0.1833
   49MOL     C918345   4.203   4.516   2.803 -0.3607 -0.2836 -0.2953
   49MOL    H1018346   4.302   4.353   2.678 -0.2468  0.4640 -2.1669
   49MOL    H1118347   4.378   4.202   2.851 -1.2272  1.2728 -1.0932
   49MOL    H1218348   4.308   4.022   3.013 -0.0202  0.8663  1.5552
   49MOL    H1318349   3.978   3.907   3.103 -1.2713  1.8496  1.6657
   49MOL    H1418350   4.144   3.920   3.166 -0.2558 -0.8756 -1.2217
   49MOL    H1518351   4.016   4.043   3.205  2.3249  0.8157  1.3025
   49MOL    H1618352   3.904   4.140   2.990 -0.4772  0.9381 -1.9656
   49MOL    H1718353   3.976   4.329   2.826  0.3310 -0.3702 -1.6618
   49MOL    H1818354   4.292   4.521   2.865  0.6441  3.0734 -1.9115
   49MOL    H1918355   4.117   4.515   2.872  0.8858  1.1334  1.3285
   49MOL    H2018356   4.140   4.366   2.650  0.4403 -1.1274  0.3015
   49MOL    C2118357   4.178   4.627   2.698  0.6692 -0.2204  0.7479
   49MOL    C2218358   4.295   4.642   2.600 -0.1767 -0.6682 -0.2272
   49MOL    C2318359   4.271   4.650   2.464 -0.1972  0.8772 -0.4875
   49MOL    C2418360   4.382   4.652   2.378  0.1403 -0.5453  0.0375
   49MOL    C2518361   4.514   4.673   2.431  0.5254 -0.4349  0.1309
   49MOL    C2618362   4.638   4.662   2.337  0.8635  0.1617 -0.1344
   49MOL    C2718363   4.540   4.678   2.568 -0.1664 -0.4894 -0.5800
   49MOL    C2818364   4.425   4.661   2.649  0.0214  0.3918 -0.3569
   49MOL    C2918365   4.114   4.757   2.761 -0.0810 -0.6876  0.0397
   49MOL    H3018366   4.099   4.598   2.629  1.3691  1.7143 -0.8903
   49MOL    H3118367   4.177   4.666   2.414 -1.8517 -2.3884  1.4282
   49MOL    H3218368   4.372   4.627   2.274 -1.5768  1.2293 -0.2631
   49MOL    H3318369   4.704   4.749   2.346 -0.4490  1.1474  0.1099
   49MOL    H3418370   4.705   4.583   2.369 -1.3055 -1.3967  0.6911
   49MOL    H3518371   4.623   4.637   2.232  1.0082 -0.5293  0.0091
   49MOL    H3618372   4.642   4.679   2.604 -0.4983 -2.7624  0.5528
   49MOL    H3718373   4.448   4.645   2.753  1.7632  1.7388 -0.5054
   49MOL    H3818374   4.190   4.769   2.839 -1.4978 -1.4284  1.5444
   49MOL    H3918375   4.013   4.740   2.798 -0.6685  0.6401 -0.8814
   49MOL    C4018376   4.112   4.886   2.666  0.3586  0.3943 -0.1447
   49MOL    C4118377   4.243   4.966   2.676 -0.6622 -0.5180 -0.3967
   49MOL    C4218378   4.330   4.980   2.566 -0.6717  0.8429 -0.2768
   49MOL    C4318379   4.453   5.045   2.578  0.6178 -0.4609 -0.2864
   49MOL    C4418380   4.493   5.108   2.700 -0.1519  0.2512  0.1417
   49MOL    C4518381   4.617   5.191   2.710  0.3970  0.3343 -0.5036
   49MOL    C4618382   4.410   5.090   2.817 -0.5414 -0.1230  0.0581
   49MOL    C4718383   4.286   5.026   2.802  0.4528  0.3008 -0.1027
   49MOL    C4818384   3.987   4.971   2.703  0.0525  0.2486  0.1337
   49MOL    H4918385   4.093   4.865   2.561  0.8107  1.1844 -0.3899
   49MOL    H5018386   4.283   4.937   2.479  0.1330 -1.7668  0.5511
   49MOL    H5118387   4.519   5.042   2.492  1.5658 -1.0924  0.4548
   49MOL    H5218388   4.690   5.148   2.641  0.2591  0.6459 -0.8359
   49MOL    H5318389   4.610   5.298   2.692  0.2240 -0.0105 -2.5216
   49MOL    H5418390   4.651   5.169   2.812 -0.0710  1.4167 -0.1163
   49MOL    H5518391   4.444   5.136   2.908 -0.6201  0.8332 -0.3907
   49MOL    H5618392   4.227   5.011   2.891 -1.1547  1.3515 -0.9766
   49MOL    H5718393   4.008   5.075   2.676  2.6514 -0.7002 -1.5602
   49MOL    H5818394   3.988   4.989   2.811 -0.8894 -0.3662  0.2472
   49MOL    C5918395   3.844   4.927   2.655 -0.8871 -1.6989 -0.6385
   49MOL    C6018396   3.805   4.969   2.513 -0.4474  0.2509  0.9699
   49MOL    C6118397   3.699   4.896   2.455 -0.1643 -0.7156 -0.7179
   49MOL    C6218398   3.655   4.920   2.324 -0.1078  0.4254  0.3539
   49MOL    C6318399   3.708   5.033   2.257 -0.9602  0.0710 -0.0328
   49MOL    C6418400   3.647   5.076   2.121 -0.1099  0.8571  0.3524
   49MOL    C6518401   3.820   5.105   2.314  0.8834 -0.1820  0.5356
   49MOL    C6618402   3.871   5.064   2.436  0.3468  0.6958 -0.0289
   49MOL    C6718403   3.745   4.993   2.759 -0.2815  0.4571 -0.5657
   49MOL    H6818404   3.844   4.818   2.652  0.2087 -1.6977 -1.0612
   49MOL    H6918405   3.661   4.809   2.506 -1.2546 -0.3390 -0.8842
   49MOL    H7018406   3.587   4.854   2.273  1.3332 -0.0618 -0.9777
   49MOL    H7118407   3.663   4.990   2.055 -2.1109  0.0334  0.9046
   49MOL    H7218408   3.540   5.091   2.131  0.0239  1.5688  0.7022
   49MOL    H7318409   3.710   5.159   2.088  0.2450 -0.7273 -3.1975
   49MOL    H7418410   3.859   5.191   2.262  0.5870  0.3119  1.1242
   49MOL    H7518411   3.952   5.124   2.474  0.0263  1.4271 -0.4823
   49MOL    H7618412   3.662   5.034   2.701  0.3965 -0.2816 -2.0854
   49MOL    H7718413   3.794   5.083   2.796  0.4418 -0.0192 -0.3708
   49MOL    C7818414   3.710   4.903   2.883 -0.2384  0.0502 -0.6107
   49MOL    C7918415   3.640   4.783   2.837  0.1439 -0.4977  0.3496
   49MOL    C8018416   3.711   4.665   2.838  0.6387  0.5060  0.2647
   49MOL    C8118417   3.656   4.538   2.792  0.1941 -0.0029 -0.3342
   49MOL    C8218418   3.523   4.536   2.750 -0.2606  0.3602 -0.0569
   49MOL    C8318419   3.460   4.407   2.705  0.3528  0.4733 -0.1412
   49MOL    C8418420   3.454   4.659   2.745  0.7311 -0.0443  0.0950
   49MOL    C8518421   3.511   4.780   2.790  0.0161  0.3804 -0.4113
   49MOL    C8618422   3.617   4.967   2.988  0.6902 -0.0727 -0.9058
   49MOL    H8718423   3.802   4.872   2.933 -1.1881  0.5944  1.5554
   49MOL    H8818424   3.809   4.665   2.883  1.2089 -1.3449 -0.9039
   49MOL    H8918425   3.727   4.457   2.795  1.8576  1.4375  3.4300
   49MOL    H9018426   3.351   4.407   2.704  0.3546 -0.2435 -0.9622
   49MOL    H9118427   3.501   4.383   2.607  1.2685  0.7704  0.1648
   49MOL    H9218428   3.496   4.328   2.770  1.9509  1.8219  0.6538
   49MOL    H9318429   3.355   4.652   2.702  0.3723 -0.0139  0.8966
   49MOL    H9418430   3.446   4.867   2.789 -0.4845  0.0475  1.1065
   49MOL    H9518431   3.567   4.896   3.055  1.3481  0.3516  0.0478
   49MOL    H9618432   3.539   5.020   2.935 -1.0324 -1.0608  0.6005
   49MOL    C9718433   3.684   5.079   3.081 -0.5610 -0.0254  0.1381
   49MOL    C9818434   3.816   5.036   3.146  0.0162 -0.1297 -0.9420
   49MOL    C9918435   3.828   4.937   3.239 -0.0609 -0.0613  0.1596
   49MOL   C10018436   3.957   4.897   3.290 -0.8742  0.2116  0.1545
   49MOL   C10118437   4.074   4.955   3.238 -0.3592  0.5936  0.6960
   49MOL   C10218438   4.210   4.904   3.271  0.3801 -0.2275  0.0300
   49MOL   C10318439   4.061   5.059   3.144 -0.3145 -0.0223  0.2790
   49MOL   C10418440   3.932   5.101   3.104 -0.1167 -0.0675 -0.8835
   49MOL   C10518441   3.576   5.125   3.189 -0.2212 -0.0357 -0.2647
   49MOL   H10618442   3.703   5.158   3.009  1.7141  0.8911  1.6888
   49MOL   H10718443   3.734   4.892   3.270  0.2528 -1.0244 -0.2579
   49MOL   H10818444   3.970   4.816   3.360 -1.9929 -0.8047 -0.7722
   49MOL   H10918445   4.281   4.986   3.275  1.3333 -1.1069  1.6546
   49MOL   H11018446   4.207   4.863   3.372  1.9443 -2.3320 -0.7373
   49MOL   H11118447   4.246   4.827   3.203  2.0127  1.2016 -0.7543
   49MOL   H11218448   4.152   5.107   3.109  0.4801 -0.4788  1.6810
   49MOL   H11318449   3.914   5.184   3.037 -0.5125  1.1825  0.7255
   49MOL   H11418450   3.567   5.047   3.264  3.0121 -0.3840 -0.1879
   49MOL   H11518451   3.475   5.139   3.149  0.2361 -0.4139 -1.5587
   49MOL   C11618452   3.624   5.256   3.260 -0.0749  0.2917 -0.3500
   49MOL   C11718453   3.531   5.285   3.382 -0.0869 -0.3620  0.3294
   49MOL   C11818454   3.591   5.318   3.506  0.3009  0.1770 -0.2343
   49MOL   C11918455   3.510   5.369   3.609 -0.2283 -0.4280 -0.8486
   49MOL   C12018456   3.368   5.384   3.592 -0.3378  0.3135 -0.4316
   49MOL   C12118457   3.283   5.441   3.704  0.4243 -0.2981 -0.0667
   49MOL   C12218458   3.310   5.353   3.466 -0.4538  0.5476  0.3110
   49MOL   C12318459   3.394   5.301   3.365 -0.6753  0.2794 -0.2290
   49MOL   C12418460   3.638   5.378   3.162  0.9520  0.2543  0.2907
   49MOL   H12518461   3.720   5.249   3.311 -1.9952  0.3667  3.4497
   49MOL   H12618462   3.698   5.308   3.521  0.5812  1.1348 -1.4765
   49MOL   H12718463   3.559   5.398   3.701 -2.1564  1.0458 -0.2390
   49MOL   H12818464   3.215   5.516   3.664  0.1680 -0.3993  0.1816
   49MOL   H12918465   3.223   5.368   3.758 -1.8206  1.6021  0.0872
   49MOL   H13018466   3.356   5.485   3.773  1.0983 -2.4047  0.5982
   49MOL   H13118467   3.202   5.359   3.459 -0.4227  0.6845 -0.0509
   49MOL   H13218468   3.346   5.274   3.271 -0.4412  2.5558 -1.0429
   49MOL   H13318469   3.551   5.374   3.097  2.2088  0.8765 -1.4848
   49MOL   H13418470   3.721   5.358   3.094  2.6515 -0.2941  2.4416
   49MOL   C13518471   3.667   5.519   3.214  0.3511  0.6510  0.4968
   49MOL   C13618472   3.674   5.627   3.112  0.4888  0.3510  0.3561
   49MOL   C13718473   3.781   5.635   3.020 -0.5329 -0.0794 -0.1599
   49MOL   C13818474   3.799   5.752   2.945  0.4705 -0.5163 -0.3824
   49MOL   C13918475   3.693   5.842   2.931 -0.4663  0.2056 -0.0902
   49MOL   C14018476   3.704   5.951   2.828  0.2451  0.0927 -0.1304
   49MOL   C14118477   3.578   5.831   3.015 -0.6535 -0.0039 -0.0561
   49MOL   C14218478   3.573   5.722   3.106 -0.1492  0.6060  0.1440
   49MOL   C14318479   3.786   5.531   3.309  0.2690 -0.5297  0.2245
   49MOL   H14418480   3.583   5.546   3.277  0.0146  1.4530 -0.2963
   49MOL   H14518481   3.863   5.565   3.026 -0.9292 -0.3909  2.4159
   49MOL   H14618482   3.891   5.773   2.893 -0.2190  0.7000 -1.1350
   49MOL   H14718483   3.738   6.041   2.880  0.2098 -0.1541  0.3239
   49MOL   H14818484   3.767   5.930   2.742  1.2995  0.1617  0.6211
   49MOL   H14918485   3.601   5.968   2.796  1.0765  0.5716 -2.6718
   49MOL   H15018486   3.493   5.899   3.010 -1.9409 -1.6705 -1.3317
   49MOL   H15118487   3.492   5.729   3.177  0.4724  0.5407  0.8711
   49MOL   H15218488   3.879   5.540   3.253  1.0601  0.5624  1.6790
   49MOL   H15318489   3.791   5.441   3.372  1.5735 -0.6503 -0.0290
   49MOL   C15418490   3.787   5.666   3.393 -0.3846 -0.0832 -0.1561
   49MOL   C15518491   3.913   5.677   3.476  0.4103  0.1634  0.4135
   49MOL   C15618492   3.959   5.563   3.543 -0.0701  0.6627 -0.8126
   49MOL   C15718493   4.090   5.565   3.600  0.5055  0.0728  0.1730
   49MOL   C15818494   4.165   5.689   3.605 -0.6543 -0.7267  0.5189
   49MOL   C15918495   4.298   5.690   3.675 -0.2750 -0.2982  0.1584
   49MOL   C16018496   4.105   5.804   3.549 -0.0032 -0.4039  0.5437
   49MOL   C16118497   3.986   5.795   3.480  1.4499  0.3003  0.6094
   49MOL   C16218498   3.663   5.703   3.485 -0.0255 -0.5612  0.6947
   49MOL   H16318499   3.788   5.750   3.324  2.7232  2.4218  2.7805
   49MOL   H16418500   3.907   5.468   3.537 -1.4572  1.5380 -3.2940
   49MOL   H16518501   4.131   5.471   3.635 -1.3222 -1.3341 -1.3395
   49MOL   H16618502   4.344   5.593   3.655  1.6120  0.4542  0.7494
   49MOL   H16718503   4.361   5.763   3.624 -0.5272  0.7801  1.3561
   49MOL   H16818504   4.287   5.722   3.779 -1.1016  1.0903 -0.3411
   49MOL   H16918505   4.158   5.898   3.555  1.3634 -1.0388 -1.2465
   49MOL   H17018506   3.945   5.890   3.448 -0.5093  0.0482  2.2366
   49MOL   H17118507   3.672   5.640   3.574  1.3651  0.0741  1.0175
   49MOL   H17218508   3.566   5.681   3.441  0.9834 -1.0237 -1.3477
   49MOL   C17318509   3.644   5.848   3.533  0.5881 -0.3252 -0.8075
   49MOL   C17418510   3.542   5.861   3.652 -0.2870  0.6815 -0.3644
   49MOL   C17518511   3.429   5.781   3.668 -0.0683 -0.6262  0.2528
   49MOL   C17618512   3.356   5.781   3.788 -0.0216 -0.0787  0.1956
   49MOL   C17718513   3.396   5.868   3.893 -0.6960  0.3083 -0.3163
   49MOL   C17818514   3.316   5.865   4.019 -0.1468 -0.8764 -0.7537
   49MOL   C17918515   3.506   5.953   3.870  0.4721 -0.2581 -0.1179
   49MOL   C18018516   3.583   5.944   3.759  0.5155  0.1387  0.4933
   49MOL   C18118517   3.599   5.943   3.418 -0.2255  0.2049  0.0695
   49MOL   H18218518   3.740   5.891   3.564 -0.2291  0.5371  0.6271
   49MOL   H18318519   3.409   5.704   3.595  0.7926 -0.6362  0.0106
   49MOL   H18418520   3.270   5.717   3.800  0.3193 -0.3172  1.4465
   49MOL   H18518521   3.381   5.815   4.091  1.0574  1.3358 -0.2597
   49MOL   H18618522   3.287   5.967   4.045 -1.0780 -0.9081 -1.6524
   49MOL   H18718523   3.226   5.809   3.994  0.3167 -1.6179 -0.7595
   49MOL   H18818524   3.544   6.023   3.942  0.4932 -0.8578  0.4542
   49MOL   H18918525   3.676   5.999   3.751 -0.3897  1.4629 -1.2396
   49MOL   H19018526   3.501   5.915   3.378 -0.0118  1.1434 -1.1274
   49MOL   H19118527   3.669   5.916   3.339  0.0111 -3.2331  1.3439
   49MOL   C19218528   3.599   6.100   3.443 -0.4829  0.0441  0.0985
   49MOL   C19318529   3.530   6.165   3.319  0.6353  0.6713  0.2810
   49MOL   C19418530   3.585   6.138   3.192 -0.7393 -0.1697  0.2097
   49MOL   C19518531   3.530   6.197   3.073 -0.1497 -0.2400  0.0507
   49MOL   C19618532   3.433   6.298   3.086 -0.3838 -0.2828 -1.0500
   49MOL   C19718533   3.395   6.376   2.964  0.1580  0.1167 -0.5553
   49MOL   C19818534   3.371   6.321   3.217 -0.2596  0.0442  0.5752
   49MOL   C19918535   3.420   6.255   3.331 -0.0983  0.2037 -0.6056
   49MOL   C20018536   3.743   6.157   3.467 -0.6806 -0.4308  0.8036
   49MOL   H20118537   3.540   6.120   3.532 -2.9289 -4.0838 -0.4355
   49MOL   H20218538   3.681   6.091   3.178 -0.6151  0.3882 -0.8391
   49MOL   H20318539   3.582   6.182   2.979  0.5544 -0.7726  0.5132
   49MOL   H20418540   3.366   6.310   2.882 -1.2286  0.3838 -0.2842
   49MOL   H20518541   3.314   6.449   2.972 -0.1373 -0.3173  0.4253
   49MOL   H20618542   3.477   6.441   2.933  0.3777 -0.4021 -1.0593
   49MOL   H20718543   3.286   6.386   3.228 -1.5129 -1.8123  2.1120
   49MOL   H20818544   3.389   6.262   3.434  0.9073  1.5882 -0.3828
   49MOL   H20918545   3.812   6.136   3.385 -0.8626  0.3026  0.4588
   49MOL   H21018546   3.782   6.097   3.549 -0.9912 -1.6962  0.0280
   49MOL   C21118547   3.748   6.309   3.488  0.3381  0.2726  0.1943
   49MOL   C21218548   3.810   6.372   3.363 -0.7446  0.2073  0.8249
   49MOL   C21318549   3.740   6.459   3.279 -0.8848 -0.0608  0.5307
   49MOL   C21418550   3.799   6.529   3.170 -0.4413  0.6407 -0.6963
   49MOL   C21518551   3.941   6.516   3.150 -0.4330  0.9161  1.0748
   49MOL   C21618552   4.001   6.586   3.030 -0.1033  0.5975  0.6699
   49MOL   C21718553   4.012   6.438   3.243 -0.3084  0.2755  0.6394
   49MOL   C21818554   3.951   6.365   3.345  0.0945 -0.3326  0.0249
   49MOL   C21918555   3.810   6.357   3.628  0.0158  0.3886  0.5830
   49MOL   H22018556   3.647   6.349   3.491  0.7975  1.3508  3.4389
   49MOL   H22118557   3.633   6.462   3.292 -1.2385  0.5630 -2.1745
   49MOL   H22218558   3.736   6.591   3.109  0.5429  0.1515 -2.2378
   49MOL   H22318559   3.918   6.623   2.970 -0.8477  0.2164  1.4588
   49MOL   H22418560   4.053   6.672   3.073  0.7776 -0.7531  2.3462
   49MOL   H22518561   4.070   6.522   2.975  1.6526  3.3969 -0.4884
   49MOL   H22618562   4.120   6.433   3.239 -0.3522 -2.4016  1.9742
   49MOL   H22718563   4.008   6.311   3.419  0.1617  0.6254  0.6777
   49MOL   H22818564   3.913   6.321   3.623 -1.0277 -2.6147 -0.7714
   49MOL   H22918565   3.769   6.302   3.713 -1.1242 -1.5948 -1.2102
   49MOL   C23018566   3.808   6.508   3.653  0.2146 -0.6776  0.0448
   49MOL   C23118567   3.926   6.549   3.739 -0.6330 -0.9412  0.0900
   49MOL   C23218568   4.037   6.599   3.667  0.0112  0.3274  0.0424
   49MOL   C23318569   4.156   6.636   3.730 -0.1461  0.5011  0.1986
   49MOL   C23418570   4.163   6.631   3.869  0.6001  0.2494 -0.1453
   49MOL   C23518571   4.293   6.672   3.935  0.9833 -0.4394  0.3932
   49MOL   C23618572   4.055   6.585   3.945 -0.0687 -0.0944 -0.1274
   49MOL   C23718573   3.940   6.544   3.882  1.5454  0.3111  0.2958
   49MOL   C23818574   3.669   6.567   3.681 -0.5924 -0.1866 -0.3720
   49MOL   H23918575   3.831   6.555   3.558 -0.8661  1.8979  1.0288
   49MOL   H24018576   4.029   6.624   3.562 -1.3612 -2.3639 -0.5297
   49MOL   H24118577   4.240   6.667   3.670 -1.2538  3.1007 -0.0782
   49MOL   H24218578   4.294   6.626   4.034 -0.1959 -1.2898  0.0241
   49MOL   H24318579   4.384   6.657   3.877  1.3286 -0.7347  0.9997
   49MOL   H24418580   4.301   6.780   3.943  0.5703 -0.1741 -2.4041
   49MOL   H24518581   4.054   6.596   4.053 -1.5032  0.4952 -0.1918
   49MOL   H24618582   3.854   6.504   3.933  1.1021  2.4994  1.3470
   49MOL   H24718583   3.609   6.544   3.593  1.0400 -1.6851 -1.1361
   49MOL   H24818584   3.669   6.675   3.675  1.9075 -0.0649  0.9571
   49MOL   C24918585   3.593   6.520   3.808 -1.1555 -0.0561  0.3415
   49MOL   C25018586   3.464   6.451   3.780 -0.1621 -0.7039  0.0762
   49MOL   C25118587   3.466   6.310   3.760  0.1809 -0.2302 -0.4557
   49MOL   C25218588   3.352   6.246   3.717  0.0049 -0.6640  0.3080
   49MOL   C25318589   3.241   6.326   3.670 -0.4223 -0.1590  0.1168
   49MOL   C25418590   3.129   6.257   3.597  0.4303  0.2213  0.1229
   49MOL   C25518591   3.240   6.462   3.693  0.6692  0.2682  0.8158
   49MOL   C25618592   3.351   6.527   3.749 -0.4933 -0.5545 -0.3727
   49MOL   C25718593   3.588   6.645   3.895 -0.0431 -0.7088 -0.2622
   49MOL   H25818594   3.658   6.456   3.868 -0.4554  1.7194  1.4843
   49MOL   H25918595   3.559   6.258   3.779  0.6986  0.2345 -1.6676
   49MOL   H26018596   3.357   6.139   3.703  2.4959 -0.4095 -1.0792
   49MOL   H26118597   3.160   6.249   3.492  0.7865  0.4116  0.2102
   49MOL   H26218598   3.105   6.155   3.625 -0.6811  0.4241 -0.0973
   49MOL   H26318599   3.032   6.306   3.594 -0.5649 -1.7457 -0.1702
   49MOL   H26418600   3.153   6.522   3.670  1.7483  1.7511  0.5389
   49MOL   H26518601   3.348   6.633   3.770  2.3889 -0.3119 -1.0528
   49MOL   H26618602   3.525   6.724   3.855 -0.7633 -1.3262 -0.3812
   49MOL   H26718603   3.689   6.681   3.912 -0.9361  1.4640  0.5339
   49MOL   C26818604   3.532   6.614   4.033  0.2046 -0.2873 -0.5555
   49MOL   C26918605   3.496   6.750   4.098  0.8653  0.1322  0.3460
   49MOL   C27018606   3.592   6.825   4.157 -0.4662  0.0330 -0.3823
   49MOL   C27118607   3.561   6.950   4.213  0.4079  0.2838 -0.1002
   49MOL   C27218608   3.433   7.002   4.211  0.9242  0.1213  1.0079
   49MOL   C27318609   3.398   7.141   4.275  0.0411  0.1360 -0.6396
   49MOL   C27418610   3.331   6.924   4.150 -0.5668 -0.4668 -0.0578
   49MOL   C27518611   3.364   6.800   4.089  0.5395  0.3218  0.1714
   49MOL   C27618612   3.625   6.523   4.119 -0.1585 -0.2260  0.0131
   49MOL   H27718613   3.434   6.568   4.021 -0.3899  0.5729  0.7837
   49MOL   H27818614   3.695   6.791   4.161  0.3499  2.4037 -0.0410
   49MOL   H27918615   3.647   6.999   4.257  0.5606  1.0251 -1.2024
   49MOL   H28018616   3.463   7.152   4.361  0.8121 -0.6662 -1.1101
   49MOL   H28118617   3.426   7.225   4.211 -1.8794  1.6948  0.5068
   49MOL   H28218618   3.299   7.139   4.322  0.2447  1.8042 -0.1109
   49MOL   H28318619   3.228   6.956   4.142 -0.3929 -0.5101 -2.9981
   49MOL   H28418620   3.280   6.746   4.048  0.4031  1.6875 -1.4039
   49MOL   H28518621   3.618   6.566   4.220  0.9875  1.3946 -0.5613
   49MOL   H28618622   3.730   6.538   4.093 -0.1818 -0.2840 -0.1082
   49MOL   C28718623   3.603   6.372   4.141 -0.5473  0.1337 -0.7155
   49MOL   C28818624   3.454   6.352   4.183 -1.0040 -0.5303 -0.9609
   49MOL   C28918625   3.364   6.295   4.097  0.2606  0.5057  0.2472
   49MOL   C29018626   3.225   6.272   4.132 -0.0844  0.3289 -0.3063
   49MOL   C29118627   3.173   6.315   4.255 -0.1694 -0.4477 -0.2031
   49MOL   C29218628   3.032   6.300   4.303 -0.5009 -0.1902  0.6763
   49MOL   C29318629   3.264   6.374   4.349  0.5861  0.1720  0.7897
   49MOL   C29418630   3.400   6.394   4.314  0.1740 -0.7252  0.5464
   49MOL   C29518631   3.693   6.318   4.253 -0.5507 -0.2261 -0.1330
   49MOL   H29618632   3.626   6.312   4.052  3.6818 -1.0379  1.0596
   49MOL   H29718633   3.387   6.271   3.994  0.4758  1.6975  0.0121
   49MOL   H29818634   3.161   6.235   4.054 -0.5735  0.2397  0.1388
   49MOL   H29918635   2.974   6.391   4.317  2.5868  1.8468  0.8668
   49MOL   H30018636   2.975   6.239   4.232 -2.3151  3.9227 -1.5545
   49MOL   H30118637   3.037   6.248   4.399  0.5743 -1.4457 -0.0323
   49MOL   H30218638   3.235   6.392   4.452 -3.1195 -0.1189 -0.1377
   49MOL   H30318639   3.473   6.430   4.385 -0.0465  0.8372  0.0089
   49MOL   H30418640   3.646   6.228   4.292  0.0050  0.7507  2.8997
   49MOL   H30518641   3.687   6.386   4.338 -2.6607 -0.3089 -0.1970
   49MOL   C30618642   3.843   6.290   4.218  0.1843  0.3858 -0.8375
   49MOL   C30718643   3.855   6.173   4.126  0.3410  0.5713  0.2283
   49MOL   C30818644   3.774   6.062   4.144 -0.5634  0.4058 -0.0313
   49MOL   C30918645   3.779   5.950   4.061 -0.4075 -0.3244 -0.3232
   49MOL   C31018646   3.877   5.947   3.954 -0.2842  0.0254 -0.3250
   49MOL   C31118647   3.889   5.827   3.864  0.3107 -0.0157  0.8481
   49MOL   C31218648   3.965   6.056   3.939 -0.0663  0.4458 -1.0253
   49MOL   C31318649   3.954   6.166   4.024 -0.4457 -0.2232 -0.7193
   49MOL   C31418650   3.925   6.267   4.350 -0.0009 -0.3123  0.6884
   49MOL   H31518651   3.885   6.382   4.178 -0.9690  0.5379 -1.7147
   49MOL   H31618652   3.704   6.052   4.225 -0.0703  0.8674  0.4480
   49MOL   H31718653   3.721   5.866   4.096 -0.8983 -0.6738 -1.9326
   49MOL   H31818654   3.979   5.766   3.873  1.7533  1.8954 -0.2082
   49MOL   H31918655   3.802   5.764   3.882  0.5514 -0.0023  2.1049
   49MOL   H32018656   3.895   5.847   3.757  0.1850 -0.5419  0.7415
   49MOL   H32118657   4.040   6.041   3.862 -1.4879  0.7304 -2.4780
   49MOL   H32218658   4.013   6.255   4.010  1.2067 -1.0366  0.8459
   49MOL   H32318659   4.026   6.238   4.322  0.3248  0.0867  1.4456
   49MOL   H32418660   3.894   6.173   4.394  0.3166  0.1531  1.9181
   49MOL   C32518661   3.930   6.375   4.462 -0.1352 -0.7231 -0.0071
   49MOL   C32618662   4.023   6.495   4.424 -0.2309  0.4285 -0.2050
   49MOL   C32718663   4.166   6.491   4.424  0.0673 -0.0745  0.1228
   49MOL   C32818664   4.243   6.601   4.367 -0.0087  1.0121  0.1269
   49MOL   C32918665   4.170   6.717   4.313 -0.4536  0.6370  0.5431
   49MOL   C33018666   4.254   6.833   4.269 -0.8485  0.5307  0.2404
   49MOL   C33118667   4.033   6.708   4.306 -0.0114  0.2533  0.0252
   49MOL   C33218668   3.955   6.604   4.365 -0.5410 -0.7805 -0.2432
   49MOL   C33318669   3.979   6.308   4.596  0.3030 -0.5853 -0.7384
   49MOL   H33418670   3.831   6.422   4.471  1.3490  3.0500 -2.0034
   49MOL   H33518671   4.215   6.401   4.457  1.7476 -0.1107 -2.3670
   49MOL   H33618672   4.351   6.593   4.370  0.1697  3.6041  1.5695
   49MOL   H33718673   4.222   6.897   4.187  0.4811  0.9887  0.0572
   49MOL   H33818674   4.282   6.897   4.352  0.0856 -1.0161  1.1411
   49MOL   H33918675   4.344   6.794   4.222 -1.5187 -2.4825  1.3703
   49MOL   H34018676   3.990   6.794   4.255 -2.4043 -1.1454 -0.4140
   49MOL   H34118677   3.848   6.613   4.351 -0.1993 -0.0194 -2.6120
   49MOL   H34218678   4.003   6.384   4.671 -1.0545 -2.6623  1.8890
   49MOL   H34318679   4.063   6.241   4.578  2.8326  2.2555  0.0170
   49MOL   C34418680   3.874   6.216   4.667 -0.5393  0.4969 -0.3620
   49MOL   C34518681   3.738   6.281   4.692 -0.2334 -0.2097 -0.1805
   49MOL   C34618682   3.618   6.216   4.661  0.2966 -0.0761  0.0289
   49MOL   C34718683   3.491   6.276   4.691  0.0774  0.3169 -0.3908
   49MOL   C34818684   3.486   6.401   4.764 -0.3759 -0.0665  0.3475
   49MOL   C34918685   3.357   6.462   4.809  0.7002 -0.5415  0.3846
   49MOL   C35018686   3.608   6.461   4.796  0.9479  0.3630 -0.1296
   49MOL   C35118687   3.729   6.404   4.765  0.0605 -0.4130 -0.1663
   49MOL   C35218688   3.934   6.157   4.788 -0.1067  0.4505 -0.3778
   49MOL   H35318689   3.856   6.123   4.612 -0.9070  1.6011 -2.1445
   49MOL   H35418690   3.610   6.118   4.616  1.0197 -0.3733  0.5374
   49MOL   H35518691   3.406   6.211   4.678  0.2724 -0.3012  1.4076
   49MOL   H35618692   3.283   6.385   4.832 -0.4763  0.0867 -1.1961
   49MOL   H35718693   3.376   6.509   4.905 -0.0121 -2.2406  1.3850
   49MOL   H35818694   3.321   6.531   4.733  0.0921 -1.0438  0.2223
   49MOL   H35918695   3.626   6.551   4.853  1.8063  0.0814  0.0636
   49MOL   H36018696   3.822   6.448   4.799  1.7493 -0.7018 -4.0385
   49MOL   H36118697   3.973   6.242   4.844  3.0815 -0.2533 -1.3782
   49MOL   H36218698   4.019   6.097   4.754 -2.1281 -2.1717 -0.9875
   49MOL   C36318699   3.840   6.069   4.881 -0.0059  0.3620  0.2239
   49MOL   C36418700   3.839   6.131   5.022 -0.4069  0.2076 -0.8944
   49MOL   C36518701   3.924   6.083   5.123  0.1031  0.2558  0.1123
   49MOL   C36618702   3.911   6.138   5.254 -0.1411 -0.1137  0.0704
   49MOL   C36718703   3.821   6.238   5.287  0.2687 -0.1486 -0.0812
   49MOL   C36818704   3.810   6.302   5.424  0.4487  0.2509  0.3734
   49MOL   C36918705   3.740   6.287   5.183  0.2577  0.5017  0.2296
   49MOL   C37018706   3.753   6.235   5.053  0.3631  0.2401  0.1377
   49MOL   C37118707   3.894   5.922   4.867  0.1038  0.1283 -0.1066
   49MOL   H37218708   3.743   6.069   4.832  0.2944  1.3239 -0.3857
   49MOL   H37318709   4.005   6.015   5.099 -0.3067  0.4045 -1.7457
   49MOL   H37418710   3.966   6.093   5.335  1.6884 -1.5933 -1.9396
   49MOL   H37518711   3.707   6.328   5.447 -0.3632 -0.5439 -2.1903
   49MOL   H37618712   3.852   6.230   5.494 -0.9871  0.1494  1.1393
   49MOL   H37718713   3.882   6.384   5.430 -0.4974  1.0030  1.7104
   49MOL   H37818714   3.673   6.368   5.209 -0.1830  0.3233 -0.3296
   49MOL   H37918715   3.686   6.279   4.980 -1.0314 -1.0450  0.6098
   49MOL   H38018716   3.839   5.852   4.931  0.2279 -1.0429 -1.2464
   49MOL   H38118717   3.996   5.913   4.903 -0.3831 -0.0767  1.2582
   49MOL   H38218718   3.881   5.888   4.764  0.7865 -0.6183  0.0412
   50MOL     C118719   3.003   6.752   2.240 -0.7230 -0.3342  0.5188
   50MOL     C218720   3.120   6.730   2.152  0.0407 -0.7247 -0.1683
   50MOL     C318721   3.116   6.717   2.015  0.0264  0.2544  0.3180
   50MOL     C418722   3.229   6.685   1.937 -0.5279  0.4193  0.4211
   50MOL     C518723   3.358   6.663   2.001  0.7442 -0.2438 -0.5695
   50MOL     C618724   3.482   6.654   1.917 -0.2353  0.3254  0.0242
   50MOL     C718725   3.366   6.693   2.144  0.1321  0.1644  0.2334
   50MOL     C818726   3.245   6.713   2.217 -0.6596 -0.0699  0.0571
   50MOL     C918727   2.996   6.894   2.302  0.2614 -0.5741  0.4919
   50MOL    H1018728   2.918   6.729   2.176  0.3689  1.9674 -1.8124
   50MOL    H1118729   3.021   6.713   1.964 -0.6713  1.4699  1.4844
   50MOL    H1218730   3.230   6.689   1.829  0.4401  0.9441  0.4495
   50MOL    H1318731   3.537   6.748   1.926 -2.9637  1.9790 -0.1257
   50MOL    H1418732   3.533   6.566   1.957 -0.2903 -1.2114 -3.0874
   50MOL    H1518733   3.465   6.632   1.811 -0.2817  0.1631  0.0637
   50MOL    H1618734   3.462   6.693   2.194 -0.6990  0.9428  1.8526
   50MOL    H1718735   3.259   6.735   2.321  0.3289  1.1415 -0.3141
   50MOL    H1818736   2.988   6.950   2.209  0.4772  0.8432  1.3187
   50MOL    H1918737   3.090   6.931   2.342 -0.6889 -0.5682  2.8331
   50MOL    H2018738   3.002   6.684   2.326  4.7015  0.4108  1.3164
   50MOL    C2118739   2.860   6.929   2.369 -0.4754 -0.0866 -0.0613
   50MOL    C2218740   2.737   6.869   2.309 -0.1056  0.8139 -0.8411
   50MOL    C2318741   2.671   6.926   2.197 -0.0706 -0.5198 -0.3509
   50MOL    C2418742   2.551   6.868   2.142 -0.7557 -0.0379 -0.2089
   50MOL    C2518743   2.498   6.755   2.207 -0.4918  0.6271  0.1029
   50MOL    C2618744   2.369   6.697   2.162 -0.4351  0.2805 -0.5226
   50MOL    C2718745   2.569   6.692   2.309  0.2552  0.1780 -0.6867
   50MOL    C2818746   2.684   6.751   2.363 -0.1346 -0.0196 -0.7682
   50MOL    C2918747   2.850   7.085   2.395 -0.6481  0.0020  0.4920
   50MOL    H3018748   2.865   6.888   2.470 -2.1731  1.5019  0.6919
   50MOL    H3118749   2.703   7.022   2.162 -0.8810 -1.1975 -3.0685
   50MOL    H3218750   2.494   6.918   2.064  0.1179  0.3780 -0.5898
   50MOL    H3318751   2.339   6.747   2.069  0.0530 -0.0512 -0.8588
   50MOL    H3418752   2.377   6.589   2.154 -2.0774  0.0405  0.7511
   50MOL    H3518753   2.305   6.714   2.248  2.1413  1.7150  1.1593
   50MOL    H3618754   2.530   6.603   2.356 -1.6852  1.1164 -0.4700
   50MOL    H3718755   2.738   6.704   2.443  1.1083  0.4923 -1.2938
   50MOL    H3818756   2.754   7.093   2.445 -0.3138 -2.2868  1.6046
   50MOL    H3918757   2.846   7.130   2.296 -0.2549 -1.0601 -0.0170
   50MOL    C4018758   2.958   7.156   2.476  0.3079  0.5188 -0.1863
   50MOL    C4118759   3.011   7.072   2.593 -0.4033  0.2573 -0.1007
   50MOL    C4218760   3.144   7.029   2.605 -0.0395 -0.0956  0.3068
   50MOL    C4318761   3.188   6.957   2.719 -0.1870 -0.0434  1.0628
   50MOL    C4418762   3.093   6.917   2.812  0.5029  0.1902 -0.8831
   50MOL    C4518763   3.146   6.838   2.939  0.0742  0.2404  0.0081
   50MOL    C4618764   2.961   6.957   2.806 -0.5529 -0.6030  0.1476
   50MOL    C4718765   2.917   7.035   2.696 -0.0123  1.0179  0.2165
   50MOL    C4818766   2.912   7.303   2.511  0.1750  0.2190  0.5451
   50MOL    H4918767   3.037   7.161   2.400  0.2050 -1.2537 -0.4302
   50MOL    H5018768   3.218   7.044   2.528 -0.8861 -2.3584 -0.9828
   50MOL    H5118769   3.290   6.919   2.722 -0.6375 -1.3337  0.3999
   50MOL    H5218770   3.211   6.908   2.991  1.3812 -2.4322  2.1187
   50MOL    H5318771   3.068   6.805   3.007  0.3773  1.6653  1.0468
   50MOL    H5418772   3.205   6.755   2.900  1.0509  0.5514  0.8071
   50MOL    H5518773   2.896   6.944   2.892  1.7522 -2.0132  1.7590
   50MOL    H5618774   2.820   7.082   2.689 -0.0243  0.6396 -2.9705
   50MOL    H5718775   2.821   7.292   2.570  0.1955  1.5221  0.8260
   50MOL    H5818776   2.881   7.361   2.424  0.8233  1.3702  1.0678
   50MOL    C5918777   3.015   7.385   2.586  0.1987  0.0019 -0.9294
   50MOL    C6018778   2.950   7.485   2.691 -0.0100 -0.7174  0.4394
   50MOL    C6118779   2.872   7.599   2.647 -0.2090 -0.3173 -0.0848
   50MOL    C6218780   2.812   7.681   2.741 -0.0337 -0.5420 -0.3186
   50MOL    C6318781   2.830   7.666   2.879 -0.2323  0.2160 -0.0307
   50MOL    C6418782   2.762   7.753   2.979 -0.2146 -0.3098 -0.1061
   50MOL    C6518783   2.898   7.547   2.916  0.7083  0.1365  0.3597
   50MOL    C6618784   2.960   7.462   2.830 -0.4684 -0.0616  0.7174
   50MOL    C6718785   3.105   7.451   2.478  0.4660  0.8466  0.4606
   50MOL    H6818786   3.091   7.324   2.636  1.6685  1.7632 -0.9664
   50MOL    H6918787   2.854   7.607   2.541  0.1377  0.0436 -0.1187
   50MOL    H7018788   2.753   7.763   2.703  1.8198  0.9575  0.0063
   50MOL    H7118789   2.756   7.858   2.952 -1.5093 -0.3459  0.0238
   50MOL    H7218790   2.667   7.706   3.003  0.0897  0.5029  3.0174
   50MOL    H7318791   2.826   7.749   3.068  1.9429 -1.2416 -1.6520
   50MOL    H7418792   2.910   7.515   3.019  0.0634 -1.8903 -0.1671
   50MOL    H7518793   3.014   7.382   2.879 -0.5189  1.5498  3.4665
   50MOL    H7618794   3.045   7.536   2.446  1.5893  0.9317 -1.5567
   50MOL    H7718795   3.127   7.390   2.390 -1.7904  0.6921 -0.0129
   50MOL    C7818796   3.244   7.496   2.527 -0.1775 -0.2040  1.0636
   50MOL    C7918797   3.281   7.637   2.473  0.0143 -0.2692  0.0439
   50MOL    C8018798   3.304   7.651   2.332 -0.5869  0.4365 -0.6784
   50MOL    C8118799   3.334   7.776   2.275 -0.1566 -0.3845  0.0113
   50MOL    C8218800   3.327   7.891   2.357 -0.0562 -0.9188 -0.5797
   50MOL    C8318801   3.341   8.033   2.310  0.0450  0.3639 -0.6028
   50MOL    C8418802   3.303   7.875   2.498 -0.3737  0.8610 -0.6579
   50MOL    C8518803   3.281   7.750   2.553  0.5682 -0.4258  0.4052
   50MOL    C8618804   3.356   7.388   2.505 -0.0142 -0.7916 -0.5922
   50MOL    H8718805   3.218   7.515   2.631  0.5908 -1.1703  1.4447
   50MOL    H8818806   3.282   7.566   2.269  1.1007 -0.1151 -0.5411
   50MOL    H8918807   3.357   7.786   2.170  0.5459 -2.1192 -0.0242
   50MOL    H9018808   3.298   0.028   2.377 -0.3853  0.5818 -1.1147
   50MOL    H9118809   3.445   8.057   2.286  0.5699 -0.3807  0.9001
   50MOL    H9218810   3.284   8.039   2.217  0.2298 -4.3771 -1.1237
   50MOL    H9318811   3.303   7.961   2.563 -0.0873  1.4036 -1.3679
   50MOL    H9418812   3.265   7.730   2.658 -0.1459 -1.0570  0.1857
   50MOL    H9518813   3.401   7.402   2.407 -1.1307  3.1629 -0.5945
   50MOL    H9618814   3.328   7.282   2.506 -2.5026 -0.1392 -0.0059
   50MOL    C9718815   3.470   7.401   2.611 -0.0717  0.3584  0.1655
   50MOL    C9818816   3.605   7.335   2.573 -0.0267  0.0236 -0.0691
   50MOL    C9918817   3.717   7.413   2.554 -0.1685  0.2317  0.1627
   50MOL   C10018818   3.839   7.355   2.534 -0.2665 -0.4486  0.8861
   50MOL   C10118819   3.848   7.220   2.515  0.2234 -0.1758 -0.0870
   50MOL   C10218820   3.983   7.156   2.485 -0.0788  0.1397 -0.5053
   50MOL   C10318821   3.741   7.136   2.538 -0.2327  0.2142  0.3050
   50MOL   C10418822   3.618   7.195   2.562  0.3363  0.2664  0.0865
   50MOL   C10518823   3.435   7.344   2.752  0.9471  0.1115  0.0033
   50MOL   H10618824   3.485   7.508   2.620  3.5254  0.0426 -1.1787
   50MOL   H10718825   3.704   7.517   2.581  1.0894 -0.1410  2.3370
   50MOL   H10818826   3.929   7.414   2.533  0.6547 -1.8045 -2.5206
   50MOL   H10918827   4.029   7.198   2.395  2.6875 -2.0575 -0.1803
   50MOL   H11018828   4.048   7.177   2.570 -1.8141  3.3022  0.1095
   50MOL   H11118829   3.972   7.049   2.471  1.2295 -0.0882  0.1622
   50MOL   H11218830   3.742   7.028   2.535 -1.3637  0.1220  2.4854
   50MOL   H11318831   3.535   7.130   2.582  0.5065  0.8628  2.8278
   50MOL   H11418832   3.421   7.236   2.757  0.3306  0.1884 -0.0157
   50MOL   H11518833   3.331   7.373   2.769  0.7475  0.1162 -1.2371
   50MOL   C11618834   3.515   7.398   2.869 -0.8564  0.4049  0.4993
   50MOL   C11718835   3.530   7.303   2.984 -0.5635  0.1045  0.6666
   50MOL   C11818836   3.417   7.235   3.037 -0.4916  0.8193 -0.5352
   50MOL   C11918837   3.425   7.138   3.133 -0.0321 -0.1491 -0.1671
   50MOL   C12018838   3.548   7.114   3.187 -0.6862 -0.3189 -0.6547
   50MOL   C12118839   3.565   7.016   3.302 -0.6450  0.1246  0.3949
   50MOL   C12218840   3.668   7.177   3.138 -0.2227 -1.0737 -0.5106
   50MOL   C12318841   3.661   7.276   3.032  0.1363  0.4948  0.0338
   50MOL   C12418842   3.470   7.529   2.926 -0.1361  0.8327  0.0677
   50MOL   H12518843   3.612   7.409   2.822 -0.8571 -1.7156 -0.0386
   50MOL   H12618844   3.321   7.269   2.999 -0.2064  0.7092 -1.3645
   50MOL   H12718845   3.339   7.091   3.178  1.2597  0.4238  3.0838
   50MOL   H12818846   3.555   6.916   3.259 -0.4780  0.0824  0.4534
   50MOL   H12918847   3.661   7.028   3.350 -1.6069  1.4574  2.0381
   50MOL   H13018848   3.483   7.023   3.374 -0.0751 -1.2667  1.1998
   50MOL   H13118849   3.754   7.132   3.185 -2.1541 -2.7469  1.5344
   50MOL   H13218850   3.755   7.319   3.001  0.2744  0.1977  0.0349
   50MOL   H13318851   3.480   7.529   3.034  2.3729  1.1056 -0.1438
   50MOL   H13418852   3.366   7.543   2.897 -0.0460  3.0980  0.7862
   50MOL   C13518853   3.543   7.663   2.888  0.1877  0.5230  0.7634
   50MOL   C13618854   3.703   7.664   2.896  0.3727 -0.8419 -0.1545
   50MOL   C13718855   3.772   7.715   2.784  0.7470  0.4282  0.2424
   50MOL   C13818856   3.911   7.702   2.774  0.4112 -0.5255 -0.1374
   50MOL   C13918857   3.985   7.649   2.878 -0.9121  0.5233 -0.1568
   50MOL   C14018858   4.137   7.646   2.869  0.1164  0.0770 -0.0600
   50MOL   C14118859   3.917   7.609   2.997 -0.3597 -0.9154  0.2441
   50MOL   C14218860   3.781   7.622   3.003  0.1820  0.1553  0.7257
   50MOL   C14318861   3.476   7.770   2.979 -0.5934 -0.5107 -0.2092
   50MOL   H14418862   3.506   7.686   2.788 -2.6937 -0.9226  1.4304
   50MOL   H14518863   3.719   7.748   2.696  0.3780 -3.1406 -0.9568
   50MOL   H14618864   3.948   7.726   2.676 -0.1476 -1.5484 -0.6087
   50MOL   H14718865   4.172   7.618   2.769 -0.6239 -1.0810 -0.0038
   50MOL   H14818866   4.185   7.741   2.891  0.3506  0.1272 -0.7771
   50MOL   H14918867   4.182   7.562   2.921  1.6635  0.7915 -0.2108
   50MOL   H15018868   3.975   7.574   3.081 -0.0165 -0.5751  0.1527
   50MOL   H15118869   3.730   7.597   3.095  1.6302 -0.4794  1.3873
   50MOL   H15218870   3.502   7.757   3.084 -1.8487  2.1807  0.4749
   50MOL   H15318871   3.367   7.771   2.983 -0.6033 -0.9002 -0.3719
   50MOL   C15418872   3.518   7.916   2.956 -0.0248  1.0880 -0.4635
   50MOL   C15518873   3.532   8.002   3.083 -0.3953 -0.0548  0.5202
   50MOL   C15618874   3.663   8.025   3.137  0.2952  0.1219 -0.2886
   50MOL   C15718875   3.683   0.020   3.254 -0.0666  0.0247 -0.8721
   50MOL   C15818876   3.574   0.075   3.321  0.2646 -0.5424  0.3884
   50MOL   C15918877   3.595   0.142   3.456 -0.0283  1.0916 -0.4579
   50MOL   C16018878   3.444   0.060   3.269 -0.1689 -0.1025 -0.4449
   50MOL   C16118879   3.424   8.058   3.151  0.0279 -0.4669  0.2023
   50MOL   C16218880   3.440   7.989   2.850 -0.4750 -0.4319  0.5953
   50MOL   H16318881   3.620   7.908   2.918  0.0078  2.5834 -0.7043
   50MOL   H16418882   3.751   7.975   3.098 -0.4903 -1.3804 -0.1933
   50MOL   H16518883   3.778   0.025   3.305 -0.3187  0.4071 -0.4351
   50MOL   H16618884   3.607   0.071   3.538  0.9589  0.8014 -0.8572
   50MOL   H16718885   3.689   0.195   3.449  0.3603  0.6818  1.3136
   50MOL   H16818886   3.519   0.213   3.489 -0.5014 -0.7406  2.6364
   50MOL   H16918887   3.361   0.106   3.320  0.2408  2.5441 -2.0645
   50MOL   H17018888   3.326   8.042   3.110 -0.1815 -1.1458  0.9452
   50MOL   H17118889   3.344   8.012   2.898 -0.2677  2.1023 -0.1176
   50MOL   H17218890   3.408   7.922   2.770  1.8744 -0.2864 -0.4982
   50MOL   C17318891   3.514   0.034   2.795 -0.1442 -0.2184  0.0288
   50MOL   C17418892   3.427   0.160   2.802 -0.0023 -0.0999 -0.2748
   50MOL   C17518893   3.297   0.167   2.743 -0.9304  0.7664 -0.1026
   50MOL   C17618894   3.215   0.274   2.759 -0.0137 -0.4608  0.1708
   50MOL   C17718895   3.257   0.383   2.832  0.1953  0.3821 -0.0388
   50MOL   C17818896   3.153   0.493   2.862 -0.7720 -0.2690  0.3727
   50MOL   C17918897   3.389   0.393   2.882 -0.0606  0.4330  0.6242
   50MOL   C18018898   3.472   0.278   2.871  0.0118  0.0080  0.4578
   50MOL   C18118899   3.581   0.005   2.657  0.0922  0.6501  0.0355
   50MOL   H18218900   3.599   0.055   2.860 -0.3234  0.1525  0.1477
   50MOL   H18318901   3.257   0.087   2.683  1.3455 -0.6776  0.2368
   50MOL   H18418902   3.118   0.265   2.712  0.1201  0.3521 -0.2699
   50MOL   H18518903   3.133   0.506   2.969  0.6364  1.3716  0.4690
   50MOL   H18618904   3.190   0.585   2.816  0.6037 -0.9124  0.1697
   50MOL   H18718905   3.065   0.472   2.801 -0.5782 -1.0618  0.3633
   50MOL   H18818906   3.432   0.481   2.928 -1.6299  0.1509  2.6872
   50MOL   H18918907   3.570   0.278   2.917 -0.4681 -0.9831  1.5052
   50MOL   H19018908   3.498   0.015   2.587  0.1973  0.3671 -0.1329
   50MOL   H19118909   3.618   7.982   2.651  2.5120  1.5614 -1.3640
   50MOL   C19218910   3.697   0.094   2.604 -0.4194 -0.0706 -0.0389
   50MOL   C19318911   3.824   0.081   2.700  0.1671  0.2699  0.0812
   50MOL   C19418912   3.834   0.160   2.811  0.0028 -0.0036 -0.9493
   50MOL   C19518913   3.925   0.127   2.913  0.4992  0.1734 -0.1198
   50MOL   C19618914   4.012   0.022   2.894  0.5870 -0.1090  0.8542
   50MOL   C19718915   4.112   8.066   3.006  0.5587 -0.0925 -0.0572
   50MOL   C19818916   4.007   8.021   2.775 -0.7362 -1.1115  0.0006
   50MOL   C19918917   3.916   8.057   2.677 -0.0404  0.5071  0.5083
   50MOL   C20018918   3.660   0.243   2.560 -0.0054 -0.3910 -0.2409
   50MOL   H20118919   3.727   0.040   2.514  3.2623  0.9122  0.5451
   50MOL   H20218920   3.755   0.230   2.836 -0.9025 -2.1189  2.5044
   50MOL   H20318921   3.912   0.178   3.007  1.1540  0.4096 -0.1575
   50MOL   H20418922   4.094   7.966   3.046 -0.1059 -0.0097 -0.1484
   50MOL   H20518923   4.216   8.073   2.975  0.5588 -1.1397 -0.3156
   50MOL   H20618924   4.101   0.049   3.094  0.6225  0.7367 -0.6410
   50MOL   H20718925   4.087   7.951   2.755  1.6950  1.9902 -1.4803
   50MOL   H20818926   3.906   8.001   2.584  3.8271  0.9707 -0.2438
   50MOL   H20918927   3.622   0.288   2.651  3.3813 -1.4633  1.7998
   50MOL   H21018928   3.585   0.233   2.482 -3.0561 -0.2169  2.5698
   50MOL   C21118929   3.774   0.328   2.511  0.5030 -0.3450 -0.1863
   50MOL   C21218930   3.724   0.474   2.497  0.4471  0.0772  0.2506
   50MOL   C21318931   3.759   0.564   2.605  0.6590  0.2479 -0.1328
   50MOL   C21418932   3.735   0.697   2.596 -0.2923 -0.4800  0.3086
   50MOL   C21518933   3.675   0.749   2.475  0.1893  0.4345 -0.2043
   50MOL   C21618934   3.641   0.891   2.479  0.4085 -0.5986  0.6303
   50MOL   C21718935   3.634   0.662   2.371 -0.2275  0.1065 -0.2207
   50MOL   C21818936   3.656   0.520   2.383 -0.1750 -0.4324 -0.2843
   50MOL   C21918937   3.845   0.279   2.379 -0.2946  0.3230 -0.1907
   50MOL   H22018938   3.853   0.323   2.586  0.9273 -0.1594 -0.6201
   50MOL   H22118939   3.813   0.530   2.692 -0.7632 -0.0178  0.6473
   50MOL   H22218940   3.779   0.758   2.673  0.0746  1.2641 -1.2316
   50MOL   H22318941   3.719   0.952   2.434  1.7423 -2.4014  0.4364
   50MOL   H22418942   3.557   0.926   2.418  1.3525  0.7486  0.0975
   50MOL   H22518943   3.629   0.948   2.571 -0.2932  2.2678 -1.1664
   50MOL   H22618944   3.586   0.710   2.288  2.1955  0.4569 -1.4680
   50MOL   H22718945   3.632   0.457   2.299 -0.0622 -1.3112  0.3415
   50MOL   H22818946   3.797   0.317   2.289 -1.6036 -0.3045  0.2352
   50MOL   H22918947   3.832   0.171   2.380 -0.7116  0.3767  0.6512
   50MOL   C23018948   3.999   0.302   2.376 -0.3069 -0.5644  0.5918
   50MOL   C23118949   4.050   0.285   2.232  0.0389 -0.0473  0.2637
   50MOL   C23218950   4.054   0.156   2.183  1.1598 -0.3753 -0.3536
   50MOL   C23318951   4.120   0.139   2.055  0.2609  0.0180  0.3504
   50MOL   C23418952   4.184   0.239   1.992 -0.4132  0.8300 -0.1109
   50MOL   C23518953   4.268   0.220   1.868 -0.3198 -0.0425  0.2089
   50MOL   C23618954   4.181   0.368   2.048 -0.7627  0.5572 -0.2814
   50MOL   C23718955   4.116   0.390   2.171 -0.1976 -0.7973  0.5625
   50MOL   C23818956   4.074   0.207   2.474  0.7512  0.3217 -1.0918
   50MOL   H23918957   4.016   0.409   2.390 -1.1893 -0.2776 -0.4569
   50MOL   H24018958   4.005   0.068   2.222  2.2052 -0.6525  0.3505
   50MOL   H24118959   4.119   0.041   2.010 -0.3314  0.0093  0.3773
   50MOL   H24218960   4.249   0.297   1.794 -1.3008  0.5302  1.0413
   50MOL   H24318961   4.375   0.229   1.891  0.4519 -1.4958 -2.5627
   50MOL   H24418962   4.244   0.122   1.827  0.6638 -1.6542  3.3134
   50MOL   H24518963   4.241   0.446   2.004  0.9796 -0.0539  0.9405
   50MOL   H24618964   4.133   0.491   2.207 -0.2798 -0.6475  0.1896
   50MOL   H24718965   4.032   0.107   2.469 -0.3448  0.5914  1.7756
   50MOL   H24818966   4.053   0.235   2.577  0.2215 -0.4970 -0.9686
   50MOL   C24918967   4.228   0.201   2.455  0.2268  0.3443  0.2199
   50MOL   C25018968   4.293   0.092   2.549 -0.8346 -0.0789 -0.1250
   50MOL   C25118969   4.341   0.125   2.678 -0.3571 -0.1572 -0.3970
   50MOL   C25218970   4.397   0.024   2.764  0.4189 -0.5662  0.4198
   50MOL   C25318971   4.418   7.978   2.719 -0.4406 -0.7415 -0.2256
   50MOL   C25418972   4.497   7.880   2.809  0.0356  0.4015  0.2149
   50MOL   C25518973   4.366   7.943   2.593  0.5124 -0.3426 -0.4501
   50MOL   C25618974   4.312   8.040   2.505 -0.5910 -0.1923 -0.0097
   50MOL   C25718975   4.295   0.346   2.470 -0.8549  0.1925  0.6394
   50MOL   H25818976   4.242   0.162   2.354  0.2380 -4.0906  1.8173
   50MOL   H25918977   4.318   0.224   2.713  1.7378 -0.4380  1.8882
   50MOL   H26018978   4.429   0.052   2.864  1.2005  0.6035 -0.1510
   50MOL   H26118979   4.521   7.928   2.904  0.5683  2.3755 -0.8767
   50MOL   H26218980   4.439   7.789   2.820  0.3008  0.1484 -0.4682
   50MOL   H26318981   4.594   7.869   2.759 -0.6083  3.4381 -1.8692
   50MOL   H26418982   4.363   7.843   2.553 -2.3798 -0.3357 -0.4177
   50MOL   H26518983   4.286   8.003   2.407  0.1100 -0.1779 -0.2012
   50MOL   H26618984   4.263   0.397   2.561  0.9118  1.3964  0.6150
   50MOL   H26718985   4.258   0.398   2.381  0.3159 -1.0582 -0.5933
   50MOL   C26818986   4.443   0.355   2.455 -0.1456  0.1149  0.6702
   50MOL   C26918987   4.487   0.490   2.497  0.3517 -0.7761  0.1915
   50MOL   C27018988   4.467   0.594   2.410 -0.0283  0.2569 -0.1311
   50MOL   C27118989   4.518   0.724   2.432 -0.6811  0.4392  0.0748
   50MOL   C27218990   4.592   0.745   2.546  0.4666 -0.1137 -0.2692
   50MOL   C27318991   4.663   0.884   2.578 -0.1369  0.3588 -0.1866
   50MOL   C27418992   4.615   0.643   2.648  0.7209  0.4489  0.2835
   50MOL   C27518993   4.551   0.524   2.619 -0.2226  0.4850  0.6226
   50MOL   C27618994   4.479   0.322   2.311 -0.2706  0.1623 -0.2379
   50MOL   H27718995   4.499   0.289   2.521  0.2863 -1.5493 -1.3210
   50MOL   H27818996   4.417   0.588   2.315  0.9120 -1.5980 -0.5206
   50MOL   H27918997   4.509   0.799   2.355  1.9955 -0.0438 -0.7619
   50MOL   H28018998   4.603   0.968   2.543 -1.5783 -0.0610  1.2204
   50MOL   H28118999   4.673   0.895   2.686  0.3374  1.3569 -0.3242
   50MOL   H28219000   4.764   0.885   2.536  0.3954 -2.8897  0.8711
   50MOL   H28319001   4.667   0.656   2.742  1.4175  0.3815 -0.0844
   50MOL   H28419002   4.565   0.441   2.688 -0.5742  0.6511  0.8956
   50MOL   H28519003   4.432   0.383   2.234 -0.1504  1.7153  0.8990
   50MOL   H28619004   4.431   0.228   2.283 -0.3085  0.1441 -0.1144
   50MOL   C28719005   4.634   0.298   2.286 -0.2439 -0.9238 -0.1476
   50MOL   C28819006   4.709   0.435   2.281  0.1692 -0.0520  0.3260
   50MOL   C28919007   4.811   0.454   2.374 -0.8893 -0.9874 -0.6942
   50MOL   C29019008   4.898   0.563   2.367  0.1430 -0.4956 -0.7039
   50MOL   C29119009   4.864   0.666   2.275 -0.0701 -1.4031 -0.1088
   50MOL   C29219010   4.941   0.800   2.271  0.3338  0.5220 -0.3860
   50MOL   C29319011   4.762   0.648   2.184 -0.4302 -0.0347  0.4473
   50MOL   C29419012   4.685   0.531   2.181  0.3319  0.3000  0.1646
   50MOL   C29519013   4.646   0.228   2.145 -0.2763  0.3593 -0.5441
   50MOL   H29619014   4.689   0.244   2.363  3.3370  0.7625 -1.4064
   50MOL   H29719015   4.832   0.374   2.444  0.0163 -1.0088 -0.9766
   50MOL   H29819016   4.980   0.561   2.438 -0.3412 -0.0735 -0.1312
   50MOL   H29919017   4.926   0.843   2.172 -1.8586  0.7141  0.0052
   50MOL   H30019018   4.911   0.869   2.350  0.1810 -1.2116  1.0942
   50MOL   H30119019   5.047   0.777   2.282  0.7929  2.1319 -1.3502
   50MOL   H30219020   4.744   0.721   2.107 -0.9255 -1.0312 -0.4092
   50MOL   H30319021   4.607   0.515   2.109 -0.0028 -4.3002  1.4153
   50MOL   H30419022   4.746   0.244   2.103 -1.2266  2.0991 -2.2030
   50MOL   H30519023   4.577   0.280   2.079  0.4432  2.3320  0.2304
   50MOL   C30619024   4.615   0.079   2.141  0.4565 -0.5948 -0.3060
   50MOL   C30719025   4.694   8.077   2.245  0.3619 -0.6470  0.2370
   50MOL   C30819026   4.625   8.007   2.352 -0.1449 -0.5357 -0.5471
   50MOL   C30919027   4.694   7.923   2.440  0.2879 -0.8803 -0.7447
   50MOL   C31019028   4.831   7.929   2.434 -0.5153 -0.7971 -0.2472
   50MOL   C31119029   4.908   7.861   2.552 -0.5767  0.0435 -0.2496
   50MOL   C31219030   4.907   8.006   2.337  0.5307  0.1698 -0.6750
   50MOL   C31319031   4.837   0.003   2.240  0.2411  0.5367  0.1752
   50MOL   C31419032   4.607   0.020   2.004  0.0964  0.3138  0.2547
   50MOL   H31519033   4.511   0.072   2.170  0.0650  1.7339 -1.0755
   50MOL   H31619034   4.522   8.031   2.373  0.4236  2.7179 -1.2080
   50MOL   H31719035   4.637   7.860   2.507 -2.2237  0.8149 -1.2204
   50MOL   H31819036   4.891   7.926   2.638 -1.6658 -0.6985  0.1039
   50MOL   H31919037   4.884   7.757   2.574  0.3444 -0.7219 -2.6959
   50MOL   H32019038   5.013   7.861   2.524 -0.6846  0.7907 -0.6695
   50MOL   H32119039   5.015   8.011   2.347  0.3828  1.7612  0.2816
   50MOL   H32219040   4.882   0.054   2.156 -1.5591  2.6400  0.4531
   50MOL   H32319041   4.699   0.046   1.951 -0.2214  0.0338 -0.4478
   50MOL   H32419042   4.540   0.075   1.937 -1.7772 -1.5764  0.5349
   50MOL   C32519043   4.583   7.943   1.993 -0.1606 -0.7581 -0.0852
   50MOL   C32619044   4.591   7.898   1.847 -0.3559 -0.6485  0.4771
   50MOL   C32719045   4.523   7.959   1.740 -0.3653 -0.0779 -0.1277
   50MOL   C32819046   4.540   7.912   1.610 -0.3486  0.2902 -0.4437
   50MOL   C32919047   4.624   7.798   1.577  0.7770 -0.0713 -0.3028
   50MOL   C33019048   4.630   7.733   1.437  0.0152  0.3284 -0.1675
   50MOL   C33119049   4.685   7.733   1.688  0.8952  0.4673 -0.0922
   50MOL   C33219050   4.669   7.784   1.820 -0.0063  0.3305  0.6344
   50MOL   C33319051   4.438   7.897   2.044 -0.0383 -0.2072  0.4658
   50MOL   H33419052   4.656   7.899   2.060  0.5353  1.2411  0.5191
   50MOL   H33519053   4.465   8.049   1.751  0.8857  0.4969  1.9046
   50MOL   H33619054   4.490   7.959   1.526 -1.5138 -0.1881 -0.0301
   50MOL   H33719055   4.715   7.767   1.378  0.3415 -2.0706 -1.1387
   50MOL   H33819056   4.634   7.625   1.453  0.3975  0.5024  0.9973
   50MOL   H33919057   4.547   7.767   1.376 -2.0010 -0.0745  2.2880
   50MOL   H34019058   4.727   7.635   1.674 -1.0372 -0.6808  1.7921
   50MOL   H34119059   4.695   7.726   1.907  3.1283  1.4694  0.5174
   50MOL   H34219060   4.364   7.928   1.970 -0.6454  0.5177  1.3678
   50MOL   H34319061   4.410   7.949   2.136  1.0107 -0.9450  1.2110
   50MOL   C34419062   4.427   7.750   2.062  0.7702  1.1279 -0.2486
   50MOL   C34519063   4.285   7.693   2.028 -0.0386 -0.5947  0.1658
   50MOL   C34619064   4.267   7.640   1.898  0.2156 -0.6974  0.6771
   50MOL   C34719065   4.137   7.597   1.852  0.4473  0.1088 -0.1420
   50MOL   C34819066   4.033   7.613   1.941  0.2351 -0.3864 -0.1259
   50MOL   C34919067   3.895   7.572   1.887 -0.3646  0.6485 -0.2584
   50MOL   C35019068   4.052   7.668   2.067  0.7353  0.3118  0.5955
   50MOL   C35119069   4.178   7.705   2.113  0.1067 -0.0191 -0.0112
   50MOL   C35219070   4.476   7.708   2.192 -0.5654 -0.5941  0.3251
   50MOL   H35319071   4.486   7.698   1.987 -0.7930 -0.5162 -0.3822
   50MOL   H35419072   4.347   7.636   1.825 -1.6282 -0.5794 -1.4106
   50MOL   H35519073   4.119   7.549   1.757 -1.5042  2.6669 -1.1130
   50MOL   H35619074   3.898   7.591   1.780  0.4848  2.9972  0.1612
   50MOL   H35719075   3.886   7.466   1.911  1.9025  0.8280  1.6501
   50MOL   H35819076   3.805   7.622   1.922  0.2117  2.4046 -1.2680
   50MOL   H35919077   3.957   7.690   2.115 -0.1398 -1.4489 -0.3091
   50MOL   H36019078   4.184   7.726   2.218 -0.9350 -0.0864  0.0660
   50MOL   H36119079   4.429   7.764   2.272  0.4397  0.9609 -0.1414
   50MOL   H36219080   4.581   7.733   2.209 -1.5661  1.2476  4.0717
   50MOL   C36319081   4.462   7.549   2.231 -0.1757  0.5988  0.6561
   50MOL   C36419082   4.465   7.536   2.387  0.2804  0.3655  0.3006
   50MOL   C36519083   4.571   7.591   2.463 -0.6380  0.7870 -0.8354
   50MOL   C36619084   4.584   7.574   2.604 -0.1328  0.4932  1.1060
   50MOL   C36719085   4.481   7.502   2.668  0.5527 -0.1876  0.1269
   50MOL   C36819086   4.480   7.492   2.822 -0.7329  0.8206  0.0851
   50MOL   C36919087   4.372   7.446   2.599 -1.2269 -0.1265 -0.1841
   50MOL   C37019088   4.359   7.465   2.457 -0.8423 -0.0168  0.1609
   50MOL   C37119089   4.578   7.469   2.168  0.2149 -0.3331 -0.1705
   50MOL   H37219090   4.366   7.511   2.197  0.2000 -0.2741  0.5760
   50MOL   H37319091   4.657   7.638   2.418  2.2590 -2.9915  0.4912
   50MOL   H37419092   4.674   7.613   2.650  0.7232  0.0198 -0.1276
   50MOL   H37519093   4.446   7.394   2.856  0.5516  0.3443  0.0153
   50MOL   H37619094   4.582   7.506   2.857 -0.5288 -0.1578 -0.0997
   50MOL   H37719095   4.412   7.561   2.871 -0.2686  0.2945  1.4783
   50MOL   H37819096   4.290   7.399   2.650 -0.2731 -0.3950  1.1294
   50MOL   H37919097   4.276   7.412   2.412  1.0721 -3.4986  0.5794
   50MOL   H38019098   4.672   7.491   2.217  0.8146 -0.3986 -1.2945
   50MOL   H38119099   4.583   7.493   2.062 -1.4917 -2.5414 -0.8032
   50MOL   H38219100   4.541   7.366   2.177  1.1389 -0.5218  1.7177
   51MOL     C119101   2.782   5.951   0.798 -0.3449  0.5763 -0.8810
   51MOL     C219102   2.828   6.025   0.918 -0.1565  0.1942 -0.8959
   51MOL     C319103   2.932   6.122   0.903 -0.9034  0.0768  0.2527
   51MOL     C419104   2.982   6.196   1.017  0.2689 -0.1804  1.0891
   51MOL     C519105   2.919   6.185   1.138  0.5503  0.2273  0.1035
   51MOL     C619106   2.956   6.265   1.261 -0.3275  0.2253  0.5605
   51MOL     C719107   2.828   6.085   1.154  0.6712 -0.0825 -0.4584
   51MOL     C819108   2.783   6.003   1.050  0.5866  0.2164  0.8362
   51MOL     C919109   2.769   5.798   0.815  0.2974 -0.4578  0.2762
   51MOL    H1019110   2.687   5.997   0.772 -0.7028  0.0057 -0.5897
   51MOL    H1119111   2.978   6.143   0.808 -1.8013  0.7062 -0.0554
   51MOL    H1219112   3.060   6.269   1.004 -0.1184  0.1039  0.3517
   51MOL    H1319113   2.984   6.197   1.342 -0.7769 -1.4388 -0.6489
   51MOL    H1419114   3.034   6.339   1.242 -1.4595  1.5627  1.0521
   51MOL    H1519115   2.870   6.320   1.299  1.4136  2.9732  0.6352
   51MOL    H1619116   2.790   6.060   1.252  3.7128 -1.6269  0.4044
   51MOL    H1719117   2.721   5.916   1.067 -0.2114  0.2968 -1.4788
   51MOL    H1819118   2.788   5.766   0.918  0.5053  0.5522  0.5598
   51MOL    H1919119   2.837   5.743   0.749 -0.8360 -1.3746 -0.1271
   51MOL    H2019120   2.848   5.965   0.712  1.1611 -1.3550 -0.0955
   51MOL    C2119121   2.625   5.747   0.791 -0.2700 -0.4227 -0.2644
   51MOL    C2219122   2.531   5.782   0.910 -0.5237 -0.3500  0.3079
   51MOL    C2319123   2.529   5.698   1.020 -0.0078  0.1760 -0.4528
   51MOL    C2419124   2.437   5.711   1.123 -0.0219  0.4694  0.6303
   51MOL    C2519125   2.331   5.807   1.104 -0.6590  0.7029 -0.4777
   51MOL    C2619126   2.210   5.810   1.198 -0.1584 -1.0125  0.6526
   51MOL    C2719127   2.332   5.883   0.987 -0.5150  0.3654  0.9000
   51MOL    C2819128   2.430   5.880   0.893  0.1090  0.1216  0.7910
   51MOL    C2919129   2.613   5.597   0.752  0.7143 -0.3612 -0.0277
   51MOL    H3019130   2.591   5.800   0.702  1.3344 -1.3317 -1.4476
   51MOL    H3119131   2.611   5.628   1.027 -2.6337 -3.1243 -1.3393
   51MOL    H3219132   2.438   5.650   1.212  2.4074  0.2329  0.4660
   51MOL    H3319133   2.163   5.713   1.211  0.9980 -1.6795 -0.0799
   51MOL    H3419134   2.246   5.849   1.293 -2.4213  1.4563  0.5822
   51MOL    H3519135   2.132   5.881   1.170 -0.2550 -0.8476  1.3449
   51MOL    H3619136   2.258   5.958   0.966  0.0515  0.7710  0.3351
   51MOL    H3719137   2.419   5.927   0.796  0.9984 -0.5635  0.3436
   51MOL    H3819138   2.512   5.558   0.766  0.6362  0.3971  1.6536
   51MOL    H3919139   2.673   5.535   0.818  1.5664  1.3394  0.8080
   51MOL    C4019140   2.666   5.556   0.604  0.2744 -0.0799 -0.8915
   51MOL    C4119141   2.604   5.644   0.497 -0.0543  0.2343  0.2068
   51MOL    C4219142   2.676   5.754   0.446  0.6671 -0.0057 -0.1012
   51MOL    C4319143   2.612   5.841   0.353 -0.2209  0.2878 -0.4082
   51MOL    C4419144   2.479   5.814   0.311  0.5956 -0.3515  0.1136
   51MOL    C4519145   2.405   5.907   0.215  0.3140 -0.7319 -0.1259
   51MOL    C4619146   2.415   5.698   0.355  0.0678  0.6387 -0.1888
   51MOL    C4719147   2.467   5.619   0.454  0.1377 -0.5669 -1.0214
   51MOL    C4819148   2.650   5.406   0.572  0.2971 -0.1134 -0.3479
   51MOL    H4919149   2.770   5.584   0.589  1.1367 -2.0104  1.3815
   51MOL    H5019150   2.778   5.776   0.477  1.3507 -0.8882 -1.6871
   51MOL    H5119151   2.654   5.934   0.319 -2.7449  1.8970  0.6533
   51MOL    H5219152   2.447   6.007   0.205  0.8677 -1.1429 -2.3754
   51MOL    H5319153   2.406   5.861   0.116 -0.0025 -0.8413 -0.0796
   51MOL    H5419154   2.301   5.921   0.243  0.4908  1.9118 -0.7196
   51MOL    H5519155   2.321   5.669   0.311  1.5254 -2.3978 -1.5279
   51MOL    H5619156   2.408   5.541   0.499  0.5498 -0.3995 -0.1713
   51MOL    H5719157   2.649   5.390   0.464  1.8315  4.6130 -1.1645
   51MOL    H5819158   2.554   5.366   0.606  0.2586 -0.1055 -0.4480
   51MOL    C5919159   2.770   5.313   0.624  0.8657 -0.5977 -0.9973
   51MOL    C6019160   2.893   5.345   0.543  0.5649 -0.4516 -0.2016
   51MOL    C6119161   2.906   5.309   0.409  0.4011  0.1566  0.6058
   51MOL    C6219162   3.022   5.346   0.340 -0.5183 -0.1064  1.0157
   51MOL    C6319163   3.132   5.407   0.403  0.4417  0.3810  0.7289
   51MOL    C6419164   3.256   5.449   0.322 -0.1282 -0.2304 -0.0117
   51MOL    C6519165   3.114   5.446   0.533 -0.9752 -0.2407 -0.2136
   51MOL    C6619166   2.998   5.415   0.608 -0.1311  0.0011  0.1613
   51MOL    C6719167   2.726   5.162   0.616 -0.1461 -0.1973 -0.1402
   51MOL    H6819168   2.791   5.337   0.728 -2.8182 -0.8740 -0.1330
   51MOL    H6919169   2.834   5.244   0.361  0.0335 -0.9239  2.5784
   51MOL    H7019170   3.025   5.334   0.233 -2.8998 -1.6605  1.0709
   51MOL    H7119171   3.325   5.477   0.401 -1.2381  1.4765  0.3695
   51MOL    H7219172   3.303   5.369   0.265  3.5790  1.7350  0.1161
   51MOL    H7319173   3.242   5.544   0.271  0.6200  1.3232  2.5694
   51MOL    H7419174   3.191   5.504   0.582  0.3950 -2.7516  0.7242
   51MOL    H7519175   2.992   5.452   0.709  0.0893  2.9150 -0.8425
   51MOL    H7619176   2.816   5.103   0.634  0.7404  1.2607  0.2907
   51MOL    H7719177   2.707   5.124   0.515  0.7191 -1.0678  0.0173
   51MOL    C7819178   2.601   5.116   0.705  0.5238  0.2640  0.4023
   51MOL    C7919179   2.610   5.178   0.846 -0.5979  0.5200  0.7512
   51MOL    C8019180   2.713   5.143   0.942  0.2521  0.3018  0.0065
   51MOL    C8119181   2.716   5.203   1.072 -0.4027  0.4920  0.4722
   51MOL    C8219182   2.616   5.292   1.107  0.2949 -0.2313 -0.3087
   51MOL    C8319183   2.624   5.355   1.248 -0.1237  0.3306  0.1993
   51MOL    C8419184   2.514   5.325   1.010  0.2607  0.3137  0.9860
   51MOL    C8519185   2.515   5.268   0.880  0.0392 -0.4212  0.0791
   51MOL    C8619186   2.589   4.962   0.707 -0.0813 -0.0202 -0.2022
   51MOL    H8719187   2.518   5.169   0.657  1.2559  0.5329 -0.5899
   51MOL    H8819188   2.782   5.069   0.904  0.2569  0.5524 -0.4773
   51MOL    H8919189   2.785   5.170   1.148  1.0430  1.1582 -0.5477
   51MOL    H9019190   2.532   5.408   1.274 -0.7700 -1.2081  1.1339
   51MOL    H9119191   2.636   5.274   1.320  1.6424 -0.7200 -1.2384
   51MOL    H9219192   2.703   5.429   1.246 -1.6991  2.0369 -0.0474
   51MOL    H9319193   2.442   5.401   1.033  1.3982  0.5761  3.8549
   51MOL    H9419194   2.430   5.286   0.816  0.3090 -0.3177 -0.2529
   51MOL    H9519195   2.671   4.918   0.764 -1.0000 -2.0779 -0.4143
   51MOL    H9619196   2.626   4.926   0.612  0.7471  0.5955 -0.1132
   51MOL    C9719197   2.452   4.905   0.751 -0.3316 -0.9659 -0.1391
   51MOL    C9819198   2.449   4.804   0.865 -0.4916 -0.3189 -0.1848
   51MOL    C9919199   2.536   4.696   0.864 -0.8940 -0.0188 -0.1502
   51MOL   C10019200   2.522   4.596   0.962 -0.2793 -0.3237 -0.1062
   51MOL   C10119201   2.428   4.615   1.066  0.1731 -0.0844 -0.4550
   51MOL   C10219202   2.411   4.509   1.177 -0.2778 -0.4154 -0.1456
   51MOL   C10319203   2.334   4.720   1.066 -0.5288  0.2095 -0.4598
   51MOL   C10419204   2.344   4.818   0.963 -0.7402 -0.4693 -0.0756
   51MOL   C10519205   2.360   4.862   0.637 -0.1863  0.1222  0.5584
   51MOL   H10619206   2.397   4.987   0.797 -2.5636 -2.1689 -0.6405
   51MOL   H10719207   2.610   4.691   0.786  0.6841  0.9300  1.2427
   51MOL   H10819208   2.594   4.517   0.975 -0.5423 -0.4668  0.5461
   51MOL   H10919209   2.338   4.559   1.240 -1.3153 -2.2252  0.1138
   51MOL   H11019210   2.363   4.417   1.145  0.3647 -0.7255 -0.2277
   51MOL   H11119211   2.508   4.491   1.222  0.4593  0.7677 -1.2128
   51MOL   H11219212   2.265   4.723   1.149 -1.9631 -0.7681 -1.5904
   51MOL   H11319213   2.278   4.903   0.962 -0.0748  0.0856  1.2645
   51MOL   H11419214   2.294   4.785   0.677 -1.3647  0.4791 -0.6645
   51MOL   H11519215   2.422   4.818   0.560 -0.6282  0.0025  0.2695
   51MOL   C11619216   2.274   4.983   0.584  0.1969  0.5370  0.6955
   51MOL   C11719217   2.166   5.022   0.682  0.5050 -0.5221 -0.1321
   51MOL   C11819218   2.171   5.151   0.740 -0.3236  0.4068 -0.4324
   51MOL   C11919219   2.073   5.188   0.841 -0.8165  0.0273 -0.2128
   51MOL   C12019220   1.970   5.096   0.875 -0.4606 -0.0047 -0.5076
   51MOL   C12119221   1.863   5.139   0.978 -0.3474 -0.1417  0.2473
   51MOL   C12219222   1.967   4.969   0.813  0.0598  0.6088 -0.0850
   51MOL   C12319223   2.073   4.933   0.732  0.1735 -0.4868  0.5836
   51MOL   C12419224   2.212   4.961   0.443 -0.0625  0.7898 -0.5902
   51MOL   H12519225   2.341   5.069   0.575  1.1408 -0.4420 -2.5417
   51MOL   H12619226   2.250   5.213   0.702 -0.4000  1.2593  0.7710
   51MOL   H12719227   2.077   5.272   0.908 -1.5469  0.1401 -0.3056
   51MOL   H12819228   1.909   5.212   1.044 -0.5322 -0.8980  1.2377
   51MOL   H12919229   1.779   5.191   0.931  0.0169 -0.6945 -1.0388
   51MOL   H13019230   1.823   5.056   1.037 -1.3180 -0.6942 -1.1447
   51MOL   H13119231   1.889   4.900   0.838 -0.6528  1.5377  0.2757
   51MOL   H13219232   2.066   4.837   0.683 -1.1606 -0.1966  0.1834
   51MOL   H13319233   2.132   5.034   0.433 -0.5612  1.2269  5.1641
   51MOL   H13419234   2.157   4.869   0.460 -0.7934  1.1570 -0.9684
   51MOL   C13519235   2.302   4.944   0.317  0.2404 -0.7951  0.1608
   51MOL   C13619236   2.389   5.065   0.289 -0.5841 -0.4240  0.1908
   51MOL   C13719237   2.530   5.043   0.274  0.0666  1.0006 -0.1825
   51MOL   C13819238   2.608   5.149   0.228 -0.3850  0.1998  0.3767
   51MOL   C13919239   2.554   5.283   0.209 -0.0792  0.2625 -0.0392
   51MOL   C14019240   2.652   5.398   0.163 -0.5988 -0.0107  0.2469
   51MOL   C14119241   2.414   5.299   0.231 -0.0489 -0.6525 -0.4766
   51MOL   C14219242   2.330   5.191   0.259 -0.3731  0.3711  0.7382
   51MOL   C14319243   2.202   4.921   0.197  0.4747  0.3738 -0.4232
   51MOL   H14419244   2.361   4.854   0.335  0.3061 -0.9408 -0.7705
   51MOL   H14519245   2.576   4.949   0.300  1.8238  2.0217  0.4421
   51MOL   H14619246   2.712   5.128   0.207  0.1916  2.7647  0.4488
   51MOL   H14719247   2.597   5.472   0.105  1.2381  0.8423 -0.4340
   51MOL   H14819248   2.696   5.429   0.257 -2.7203  0.2075  1.2015
   51MOL   H14919249   2.716   5.343   0.094  0.5112  0.2862  1.0396
   51MOL   H15019250   2.369   5.394   0.209 -0.8080 -0.7050  0.7877
   51MOL   H15119251   2.223   5.205   0.259 -0.5816 -1.0314 -0.6194
   51MOL   H15219252   2.120   4.992   0.213 -0.1631 -0.7371  1.3964
   51MOL   H15319253   2.169   4.817   0.201  2.4927 -0.2150  1.8049
   51MOL   C15419254   2.260   4.947   0.059 -0.1166 -0.3512 -0.1886
   51MOL   C15519255   2.151   4.962   8.039 -0.6238 -1.0817  0.1277
   51MOL   C15619256   2.119   5.082   7.971  0.0849 -0.0261 -0.0753
   51MOL   C15719257   2.025   5.089   7.873  0.4623 -0.2593 -0.4324
   51MOL   C15819258   1.965   4.970   7.821  0.1058  0.1949  0.8978
   51MOL   C15919259   1.876   4.980   7.702  0.4483  0.5442 -0.4041
   51MOL   C16019260   1.988   4.852   7.887 -0.2964 -0.2472 -0.2266
   51MOL   C16119261   2.082   4.844   7.996 -0.1759  0.9473  0.8909
   51MOL   C16219262   2.364   4.839   0.019 -0.3731 -0.0061 -0.2419
   51MOL   H16319263   2.316   5.041   0.056 -0.5061  0.1314  3.8534
   51MOL   H16419264   2.159   5.178   8.000  0.6120 -0.4980  0.7940
   51MOL   H16519265   2.011   5.185   7.826  0.2435 -0.3213 -0.4910
   51MOL   H16619266   1.835   4.881   7.679  2.7184 -0.3679 -0.6791
   51MOL   H16719267   1.797   5.052   7.725  1.0367  0.6229  1.4693
   51MOL   H16819268   1.948   5.014   7.627  1.2918  0.5452  0.3989
   51MOL   H16919269   1.933   4.763   7.860 -3.0477  0.3195  3.1038
   51MOL   H17019270   2.102   4.748   8.041  0.8182  0.7666  0.0932
   51MOL   H17119271   2.309   4.745   0.014  1.2964 -1.0604  0.8869
   51MOL   H17219272   2.436   4.827   0.099  2.2787  1.4822 -2.3364
   51MOL   C17319273   2.430   4.866   7.963  0.3529  0.4952  0.3408
   51MOL   C17419274   2.481   4.729   7.911 -0.7594 -0.0918  0.1786
   51MOL   C17519275   2.441   4.688   7.782 -0.2376  0.3966 -0.1928
   51MOL   C17619276   2.462   4.562   7.739 -0.2755  0.6474 -0.6901
   51MOL   C17719277   2.554   4.478   7.812 -0.0280 -0.0505  0.0650
   51MOL   C17819278   2.590   4.343   7.760  0.0476 -0.4774 -0.1255
   51MOL   C17919279   2.595   4.515   7.942 -0.2839 -0.8376  0.5325
   51MOL   C18019280   2.562   4.645   7.992  0.7401  0.5362 -0.0446
   51MOL   C18119281   2.548   4.973   7.964  0.2975  0.6396  0.0627
   51MOL   H18219282   2.345   4.894   7.900 -0.9250 -1.4153  1.1559
   51MOL   H18319283   2.378   4.757   7.727  1.1913  0.4384 -1.8299
   51MOL   H18419284   2.432   4.533   7.640  2.2600  0.6897 -1.5146
   51MOL   H18519285   2.699   4.334   7.754  0.3643  1.2270  2.3686
   51MOL   H18619286   2.562   4.265   7.831  0.0967  0.0971  0.5325
   51MOL   H18719287   2.548   4.338   7.660  0.9893  1.7380 -0.6687
   51MOL   H18819288   2.659   4.448   7.998  1.9196  0.5579 -0.2467
   51MOL   H18919289   2.597   4.662   0.012 -0.1545  0.8291  0.2206
   51MOL   H19019290   2.632   4.924   8.014 -0.8027  0.1017  1.4429
   51MOL   H19119291   2.521   5.055   8.030 -0.9695  1.1932 -1.1290
   51MOL   C19219292   2.605   5.001   7.825 -0.5259  0.8624  0.1035
   51MOL   C19319293   2.738   5.074   7.833  0.7969  0.2136  0.5554
   51MOL   C19419294   2.860   5.004   7.835 -0.1968 -0.6767 -0.0473
   51MOL   C19519295   2.983   5.067   7.856  0.4693 -0.6416 -0.1190
   51MOL   C19619296   2.985   5.207   7.871 -1.1168  0.1197  0.3383
   51MOL   C19719297   3.120   5.276   7.895 -0.1367 -0.4476 -0.1748
   51MOL   C19819298   2.870   5.284   7.867  0.3644 -0.1324 -0.7992
   51MOL   C19919299   2.746   5.215   7.852  0.5302 -0.2648 -0.0867
   51MOL   C20019300   2.505   5.065   7.730 -0.1379 -0.2084  1.0612
   51MOL   H20119301   2.616   4.905   7.774 -1.6390  1.5313 -1.4486
   51MOL   H20219302   2.858   4.897   7.819  0.8404 -0.5823 -0.8675
   51MOL   H20319303   3.081   5.022   7.860  0.4124 -0.6354  1.9285
   51MOL   H20419304   3.123   5.385   7.899  0.2061 -0.5379  2.2459
   51MOL   H20519305   3.165   5.236   7.986  3.6070  1.4237 -1.0679
   51MOL   H20619306   3.188   5.257   7.811  0.6799  0.4551  0.2605
   51MOL   H20719307   2.874   5.389   7.891  0.5925 -0.7343  1.9918
   51MOL   H20819308   2.659   5.279   7.859  0.1456 -0.8947  1.0856
   51MOL   H20919309   2.486   5.162   7.775 -1.8246  1.4263 -2.9135
   51MOL   H21019310   2.406   5.022   7.744 -0.8806 -0.0022 -2.9042
   51MOL   C21119311   2.555   5.102   7.585  0.4637  0.2699 -0.5848
   51MOL   C21219312   2.468   5.188   7.499  0.3293 -0.5458  0.2703
   51MOL   C21319313   2.455   5.330   7.523  0.2763  0.4926 -0.1745
   51MOL   C21419314   2.362   5.407   7.452  1.2875 -0.0775  0.7563
   51MOL   C21519315   2.280   5.350   7.353  0.2240  0.6672  0.0163
   51MOL   C21619316   2.170   5.422   7.289 -0.1025 -0.0985 -0.0066
   51MOL   C21719317   2.292   5.212   7.328 -0.2231  0.3536  0.0487
   51MOL   C21819318   2.386   5.129   7.394 -0.4123 -0.2892 -0.5665
   51MOL   C21919319   2.610   4.978   7.512 -0.2015  0.3720 -0.4811
   51MOL   H22019320   2.641   5.167   7.606 -0.8717  1.5405  1.1172
   51MOL   H22119321   2.516   5.378   7.598  0.1079  0.6487 -0.1378
   51MOL   H22219322   2.364   5.513   7.469  0.5962  0.0067  0.3325
   51MOL   H22319323   2.098   5.355   7.244  0.0067  0.7508 -1.4869
   51MOL   H22419324   2.128   5.500   7.352 -1.1293  0.3855 -1.2549
   51MOL   H22519325   2.228   5.460   7.204  0.4958 -1.1952 -0.1063
   51MOL   H22619326   2.216   5.167   7.266 -0.3408 -1.3021  1.3554
   51MOL   H22719327   2.392   5.023   7.375 -1.6378 -0.3469 -0.6386
   51MOL   H22819328   2.529   4.907   7.495 -0.6615  1.4069 -2.8796
   51MOL   H22919329   2.684   4.930   7.576 -0.0413  0.3292 -0.6931
   51MOL   C23019330   2.683   4.993   7.376  0.3487  0.8385  0.1614
   51MOL   C23119331   2.727   4.860   7.316  0.6523 -0.9205 -0.0751
   51MOL   C23219332   2.778   4.864   7.191 -0.2803  0.4996  0.6979
   51MOL   C23319333   2.852   4.760   7.135 -0.5286  0.8978  0.1986
   51MOL   C23419334   2.866   4.645   7.213 -0.0204  0.6085 -0.0966
   51MOL   C23519335   2.950   4.528   7.171 -0.3318 -0.7706 -0.2010
   51MOL   C23619336   2.791   4.631   7.332  0.3150 -0.2983  0.4867
   51MOL   C23719337   2.729   4.743   7.391  0.2239  0.2816 -0.1439
   51MOL   C23819338   2.801   5.087   7.391 -0.1851 -0.6024  0.0341
   51MOL   H23919339   2.607   5.025   7.305 -0.5122  1.2378  1.2406
   51MOL   H24019340   2.759   4.948   7.125 -2.4368 -1.2152 -0.9176
   51MOL   H24119341   2.901   4.758   7.039  0.5260 -0.1677  0.7496
   51MOL   H24219342   2.887   4.445   7.139  0.0630 -0.6864 -1.2401
   51MOL   H24319343   3.022   4.554   7.093 -1.1099 -1.2792 -1.1074
   51MOL   H24419344   2.996   4.483   7.259  0.3782 -1.4510 -0.9076
   51MOL   H24519345   2.795   4.538   7.387  1.9643  0.1984  1.2246
   51MOL   H24619346   2.684   4.739   7.489 -1.1873  1.0869 -0.7443
   51MOL   H24719347   2.894   5.040   7.360 -0.1095 -2.8243  3.3677
   51MOL   H24819348   2.841   5.093   7.492 -3.3744  1.5771  1.2720
   51MOL   C24919349   2.785   5.242   7.349  0.3483 -0.6581 -0.2569
   51MOL   C25019350   2.739   5.254   7.207 -0.8161 -0.5527 -0.0399
   51MOL   C25119351   2.816   5.203   7.101 -0.5484 -0.1551 -0.7611
   51MOL   C25219352   2.768   5.199   6.971 -0.3463 -0.1347 -0.1110
   51MOL   C25319353   2.640   5.247   6.944  0.7053 -0.2254  0.1625
   51MOL   C25419354   2.575   5.227   6.808 -0.0712 -0.7350  0.4890
   51MOL   C25519355   2.560   5.295   7.051 -0.5030  0.3636  0.1502
   51MOL   C25619356   2.610   5.306   7.178 -0.2545  0.2066  0.6143
   51MOL   C25719357   2.912   5.323   7.385  0.0042 -0.7788 -0.0420
   51MOL   H25819358   2.710   5.278   7.420  0.4543 -2.0105  0.5538
   51MOL   H25919359   2.911   5.162   7.132 -0.2728  2.4863  2.1445
   51MOL   H26019360   2.825   5.156   6.890  0.6643  0.3004  0.3673
   51MOL   H26119361   2.493   5.293   6.783 -0.0285 -1.1634 -0.8747
   51MOL   H26219362   2.649   5.230   6.728 -0.6537  0.3328 -0.0117
   51MOL   H26319363   2.539   5.124   6.803  0.6721 -0.9269 -1.4096
   51MOL   H26419364   2.459   5.331   7.037 -0.9370 -0.0605  2.1007
   51MOL   H26519365   2.556   5.350   7.260  0.1246 -0.3357  1.1621
   51MOL   H26619366   2.990   5.279   7.323 -0.1437  0.3856 -1.0712
   51MOL   H26719367   2.940   5.297   7.488  0.0536 -0.8406 -0.0715
   51MOL   C26819368   2.923   5.481   7.380  0.2329  0.6814  0.3137
   51MOL   C26919369   2.812   5.544   7.466 -0.3588 -0.0706  0.0098
   51MOL   C27019370   2.707   5.617   7.416  0.1385  0.2872  0.1245
   51MOL   C27119371   2.618   5.689   7.500  0.1277  0.7493 -0.6815
   51MOL   C27219372   2.641   5.685   7.643 -0.2609  0.4356 -0.4939
   51MOL   C27319373   2.543   5.749   7.737 -0.9266  1.2033 -0.5025
   51MOL   C27419374   2.756   5.621   7.691 -0.2878 -0.4479  0.2923
   51MOL   C27519375   2.826   5.537   7.605  1.2628  0.4704  0.2072
   51MOL   C27619376   2.935   5.543   7.236  0.2281  0.2783  0.1333
   51MOL   H27719377   3.019   5.511   7.422  0.0982  2.8844 -0.9279
   51MOL   H27819378   2.695   5.626   7.309  0.8056 -1.6236 -0.1244
   51MOL   H27919379   2.535   5.748   7.463 -0.6985 -0.6301 -1.0362
   51MOL   H28019380   2.473   5.669   7.763  0.0544  0.6080  0.3488
   51MOL   H28119381   2.584   5.766   7.836  0.0316  1.2362 -0.9018
   51MOL   H28219382   2.493   5.841   7.706 -1.7219  1.7029  2.1167
   51MOL   H28319383   2.775   5.610   7.797  0.7159  0.2112  0.1876
   51MOL   H28419384   2.898   5.476   7.658  1.0151 -0.5629 -0.6243
   51MOL   H28519385   2.833   5.551   7.198  0.2329  2.2178  0.4887
   51MOL   H28619386   2.998   5.471   7.183 -2.2483 -1.3899 -0.6343
   51MOL   C28719387   3.008   5.683   7.220  0.7253 -0.3470 -0.3787
   51MOL   C28819388   3.006   5.751   7.085 -0.7271  0.3210 -0.1051
   51MOL   C28919389   2.964   5.689   6.964  0.8790  0.0363  0.0874
   51MOL   C29019390   2.953   5.772   6.844  0.2723 -0.2686  0.1970
   51MOL   C29119391   2.995   5.905   6.841  0.0561  0.0249  0.2065
   51MOL   C29219392   2.988   5.989   6.714 -0.0060  0.0603 -0.2266
   51MOL   C29319393   3.048   5.955   6.962  1.0680  0.6165 -0.3482
   51MOL   C29419394   3.052   5.883   7.083  1.0095  0.2928 -0.2453
   51MOL   C29519395   3.158   5.675   7.273  0.9617  0.0510 -0.4808
   51MOL   H29619396   2.954   5.748   7.288  0.2936 -1.7945  0.6879
   51MOL   H29719397   2.947   5.583   6.955 -0.6091  0.2259  0.6123
   51MOL   H29819398   2.931   5.730   6.747  0.2000 -2.2182  1.0259
   51MOL   H29919399   3.089   6.008   6.678 -0.0012  2.3098  0.8874
   51MOL   H30019400   2.924   5.945   6.638  1.8422 -1.1749 -1.1009
   51MOL   H30119401   2.950   6.088   6.739  3.2554  1.2091  0.4879
   51MOL   H30219402   3.082   6.057   6.961  0.7974  0.7039 -1.5310
   51MOL   H30319403   3.076   5.935   7.175  1.2936 -0.3263  0.0345
   51MOL   H30419404   3.164   5.619   7.366 -1.0793  1.3220  0.4530
   51MOL   H30519405   3.191   5.773   7.308  1.5890 -0.8755  1.5738
   51MOL   C30619406   3.265   5.623   7.168 -0.2348  0.6013  0.2597
   51MOL   C30719407   3.256   5.470   7.141  0.9026  0.4135  0.6099
   51MOL   C30819408   3.273   5.373   7.244 -0.5888 -0.7809  0.1999
   51MOL   C30919409   3.235   5.242   7.220  0.1782  0.0801  0.5294
   51MOL   C31019410   3.194   5.202   7.089  0.0844 -0.1658 -0.0374
   51MOL   C31119411   3.157   5.062   7.057 -0.3081  0.1155  0.3960
   51MOL   C31219412   3.209   5.298   6.982 -0.5725  0.3521 -0.2026
   51MOL   C31319413   3.215   5.433   7.011 -0.1202 -0.1814  0.0729
   51MOL   C31419414   3.403   5.661   7.212  0.3197 -0.0899 -0.6431
   51MOL   H31519415   3.252   5.679   7.076  1.4078 -1.2688 -1.1627
   51MOL   H31619416   3.284   5.404   7.347  0.6418  0.6510 -0.3403
   51MOL   H31719417   3.218   5.178   7.305 -3.7761 -0.0226 -0.2374
   51MOL   H31819418   3.133   5.013   7.151  0.9714 -0.4597  0.4328
   51MOL   H31919419   3.074   5.069   6.986  0.8998  0.1445 -1.0420
   51MOL   H32019420   3.241   5.009   7.011 -0.6298  1.6414 -2.0329
   51MOL   H32119421   3.196   5.272   6.878  2.4165 -0.4687 -0.4237
   51MOL   H32219422   3.211   5.509   6.935 -2.0768  1.8757  2.1432
   51MOL   H32319423   3.412   5.653   7.320  1.6211  0.2727 -0.7128
   51MOL   H32419424   3.421   5.769   7.212  0.7937 -0.1388  2.4265
   51MOL   C32519425   3.524   5.591   7.137 -0.1546  0.0046 -0.0771
   51MOL   C32619426   3.650   5.656   7.196  0.0106  0.6950  0.0455
   51MOL   C32719427   3.723   5.600   7.306 -0.3554 -0.1579  0.6215
   51MOL   C32819428   3.830   5.668   7.359  0.0262 -0.6709 -0.8424
   51MOL   C32919429   3.870   5.795   7.321 -0.3053  1.2918 -0.4560
   51MOL   C33019430   3.980   5.874   7.384 -0.0976 -0.3949  0.8984
   51MOL   C33119431   3.801   5.844   7.205 -0.0346 -0.6368 -0.9387
   51MOL   C33219432   3.690   5.780   7.147 -0.0087 -0.1583  0.0783
   51MOL   C33319433   3.510   5.593   6.982  0.0283 -0.8489 -1.0135
   51MOL   H33419434   3.522   5.487   7.168  1.0062 -0.3678 -1.1955
   51MOL   H33519435   3.691   5.506   7.349  0.3894 -0.8912 -0.3955
   51MOL   H33619436   3.888   5.625   7.439  0.2639  1.1208 -0.0126
   51MOL   H33719437   4.017   5.831   7.477 -0.9467 -0.7517  1.0688
   51MOL   H33819438   4.044   5.895   7.298 -0.7232  2.3521  1.0623
   51MOL   H33919439   3.935   5.970   7.410 -0.4575 -0.2208 -0.3457
   51MOL   H34019440   3.828   5.939   7.164 -1.4676  0.6012  0.9061
   51MOL   H34119441   3.647   5.831   7.062 -0.7419  0.5167  0.8479
   51MOL   H34219442   3.522   5.697   6.952 -0.4998 -0.0509  1.4481
   51MOL   H34319443   3.411   5.571   6.943 -1.3761  2.3098  0.5616
   51MOL   C34419444   3.623   5.506   6.916 -0.0888 -0.3214  0.1969
   51MOL   C34519445   3.677   5.571   6.790 -0.0043  0.3702 -0.1063
   51MOL   C34619446   3.819   5.601   6.782  0.4240  0.6822 -0.3088
   51MOL   C34719447   3.872   5.673   6.673  0.3027 -0.8524 -0.1063
   51MOL   C34819448   3.785   5.707   6.565 -0.5307 -0.4620  1.0916
   51MOL   C34919449   3.841   5.772   6.437  0.3023 -0.1033  0.5180
   51MOL   C35019450   3.648   5.684   6.572  0.0547 -0.0711  0.5809
   51MOL   C35119451   3.597   5.611   6.682  0.0127  0.1550 -0.1664
   51MOL   C35219452   3.554   5.368   6.898 -0.2388  0.3140 -0.0279
   51MOL   H35319453   3.705   5.487   6.986 -0.2339 -0.3544  0.3601
   51MOL   H35419454   3.889   5.568   6.857  0.3226  0.9397 -0.1026
   51MOL   H35519455   3.977   5.697   6.684 -0.1514  0.4494  1.6240
   51MOL   H35619456   3.793   5.745   6.344  0.4999  2.7090 -0.4590
   51MOL   H35719457   3.850   5.881   6.441  0.3539 -0.1189  0.9285
   51MOL   H35819458   3.940   5.727   6.425 -0.5606 -1.6883 -0.7708
   51MOL   H35919459   3.583   5.708   6.490 -1.2330 -3.2462  0.6088
   51MOL   H36019460   3.490   5.615   6.696 -0.0024 -1.9687  0.4865
   51MOL   H36119461   3.493   5.378   6.808  0.5607 -0.1726 -0.6269
   51MOL   H36219462   3.485   5.334   6.975  0.9487  0.5613  1.1694
   51MOL   C36319463   3.660   5.261   6.868  0.1949 -0.3692  0.2096
   51MOL   C36419464   3.600   5.151   6.776  0.0959 -0.2935  0.1817
   51MOL   C36519465   3.657   5.148   6.649 -0.3933 -0.7635 -0.9469
   51MOL   C36619466   3.631   5.048   6.553  0.0565  0.1635 -0.1337
   51MOL   C36719467   3.530   4.949   6.585 -0.0615 -0.4650 -0.2421
   51MOL   C36819468   3.495   4.845   6.488 -0.3085 -0.3051 -0.5798
   51MOL   C36919469   3.465   4.956   6.711 -0.1972  0.2504  0.8799
   51MOL   C37019470   3.501   5.054   6.808  0.0363 -0.0754  0.5321
   51MOL   C37119471   3.721   5.208   7.000  0.4827  0.1750  0.7992
   51MOL   H37219472   3.743   5.307   6.814  0.8372 -0.8819  0.7561
   51MOL   H37319473   3.734   5.216   6.617 -1.4838 -0.6979 -3.5410
   51MOL   H37419474   3.682   5.040   6.458  0.0605  3.5131 -0.4884
   51MOL   H37519475   3.593   4.799   6.473  0.2637  0.5621  0.4379
   51MOL   H37619476   3.418   4.775   6.519 -0.0853 -1.0803 -1.7330
   51MOL   H37719477   3.461   4.897   6.398  3.4527  0.9686 -1.3563
   51MOL   H37819478   3.391   4.883   6.738 -1.4063  1.4184  0.8114
   51MOL   H37919479   3.445   5.045   6.900  0.3642 -1.9568  0.5817
   51MOL   H38019480   3.748   5.294   7.061  2.4384 -1.2341  1.9720
   51MOL   H38119481   3.809   5.148   6.978 -0.4706 -1.2498  0.7672
   51MOL   H38219482   3.643   5.151   7.051 -1.0591  1.4415 -0.0849
   52MOL     C119483   3.869   2.931   7.536  0.1816 -0.5961 -0.2995
   52MOL     C219484   3.727   2.996   7.538 -0.2659  0.4125 -0.0694
   52MOL     C319485   3.614   2.922   7.569 -0.0332  0.0727  0.1297
   52MOL     C419486   3.487   2.980   7.563  0.3009  0.5393 -0.2452
   52MOL     C519487   3.469   3.120   7.538 -0.9516  0.6388  0.8218
   52MOL     C619488   3.331   3.173   7.509 -0.2642  0.3347 -0.5987
   52MOL     C719489   3.585   3.197   7.529  0.1247 -0.4145 -0.1955
   52MOL     C819490   3.710   3.134   7.521  1.0289 -0.2297 -0.9305
   52MOL     C919491   3.927   2.910   7.677  0.0677 -0.6019 -0.4482
   52MOL    H1019492   3.852   2.836   7.486  0.0198 -0.6741 -0.0965
   52MOL    H1119493   3.632   2.817   7.588  1.4858  0.2363 -0.3457
   52MOL    H1219494   3.405   2.912   7.582  1.6863 -1.0585  0.1738
   52MOL    H1319495   3.282   3.089   7.461 -0.6714 -1.3739  2.6334
   52MOL    H1419496   3.276   3.197   7.600  0.4801 -1.2616  0.2816
   52MOL    H1519497   3.324   3.252   7.434  1.3627 -0.4906 -1.6369
   52MOL    H1619498   3.573   3.304   7.518  1.8317 -0.2906 -1.0299
   52MOL    H1719499   3.799   3.196   7.516 -2.2472  5.1568  2.1320
   52MOL    H1819500   3.851   2.859   7.736 -1.2700  2.9118  1.0023
   52MOL    H1919501   3.937   3.009   7.724  1.2988 -1.1246  0.4386
   52MOL    H2019502   3.930   2.988   7.466  2.2814 -1.2890  0.9288
   52MOL    C2119503   4.069   2.849   7.671  0.1197 -0.4692  0.0307
   52MOL    C2219504   4.061   2.705   7.615 -0.0270 -0.1774  0.7560
   52MOL    C2319505   3.995   2.609   7.691 -0.4358  0.3454 -0.0354
   52MOL    C2419506   3.995   2.478   7.646  0.2819 -0.1902  0.1143
   52MOL    C2519507   4.061   2.444   7.523  0.3294  0.1046  1.0184
   52MOL    C2619508   4.058   2.305   7.478 -0.2214  0.0711 -0.5394
   52MOL    C2719509   4.130   2.541   7.449 -0.6638  0.5786  0.1423
   52MOL    C2819510   4.128   2.677   7.494 -0.0811 -0.7567  0.6188
   52MOL    C2919511   4.152   2.863   7.797 -0.4570  0.4257 -0.2055
   52MOL    H3019512   4.128   2.912   7.604  0.6172 -0.7080  0.2453
   52MOL    H3119513   3.951   2.639   7.785 -0.4146  0.6091 -0.1093
   52MOL    H3219514   3.937   2.397   7.690  0.0930  1.0685  2.2082
   52MOL    H3319515   3.969   2.258   7.519  0.5514 -0.7451  0.2357
   52MOL    H3419516   4.055   2.309   7.369 -0.6985  1.5943 -0.4899
   52MOL    H3519517   4.155   2.265   7.506 -0.4596 -0.8950 -1.0748
   52MOL    H3619518   4.180   2.515   7.358  0.6712  1.4158  0.6228
   52MOL    H3719519   4.176   2.753   7.434 -0.4392 -0.6750  0.4319
   52MOL    H3819520   4.139   2.771   7.855  1.0689  1.0315  1.1454
   52MOL    H3919521   4.101   2.935   7.861 -0.9700  1.7296 -2.0422
   52MOL    C4019522   4.305   2.890   7.793 -0.1117 -0.5601  0.0121
   52MOL    C4119523   4.385   2.782   7.717 -0.1337  0.2159  0.6859
   52MOL    C4219524   4.354   2.648   7.733  0.1646 -0.1404  1.0073
   52MOL    C4319525   4.409   2.553   7.661  0.4428  0.5660  0.5385
   52MOL    C4419526   4.517   2.579   7.575  0.1658 -0.2118  0.9071
   52MOL    C4519527   4.594   2.466   7.515  0.6800  0.0504 -0.4118
   52MOL    C4619528   4.555   2.714   7.561 -1.0253 -0.2430 -0.3760
   52MOL    C4719529   4.485   2.814   7.628 -0.1985 -0.9115 -0.1436
   52MOL    C4819530   4.357   2.916   7.940 -0.4829 -0.5380 -0.1374
   52MOL    H4919531   4.317   2.992   7.756  0.9660 -0.6135  0.2004
   52MOL    H5019532   4.274   2.617   7.798  0.8079 -3.0901  0.4315
   52MOL    H5119533   4.378   2.449   7.658 -0.5372  0.8468  1.1845
   52MOL    H5219534   4.548   2.473   7.417  1.6835 -0.2772 -0.9123
   52MOL    H5319535   4.701   2.486   7.509  0.1339  2.7890 -1.6151
   52MOL    H5419536   4.580   2.370   7.563  0.9163  0.2995  0.1685
   52MOL    H5519537   4.635   2.728   7.490 -0.8944  3.5092  0.3850
   52MOL    H5619538   4.522   2.915   7.617  0.7565 -1.4116 -1.6314
   52MOL    H5719539   4.344   2.830   8.006 -3.2080 -1.6364 -2.0213
   52MOL    H5819540   4.305   2.997   7.991 -0.3573  0.4641 -1.5883
   52MOL    C5919541   4.510   2.957   7.941  0.0767 -0.1625  0.3770
   52MOL    C6019542   4.572   2.953   8.080  0.3101 -0.3770  0.6436
   52MOL    C6119543   4.498   2.992   0.114 -0.7174 -0.1887  0.0101
   52MOL    C6219544   4.563   2.983   0.237 -0.1767 -0.5704 -0.7714
   52MOL    C6319545   4.699   2.944   0.250 -0.4473 -0.4204 -0.1837
   52MOL    C6419546   4.764   2.948   0.383 -0.8436 -0.2025  0.6764
   52MOL    C6519547   4.774   2.935   0.135 -0.1071 -0.2218  0.0472
   52MOL    C6619548   4.711   2.934   0.008 -0.0471 -0.3714 -0.0489
   52MOL    C6719549   4.552   3.085   7.860 -0.7651 -0.0257  0.3760
   52MOL    H6819550   4.569   2.876   7.898  0.8000  1.7316 -2.3326
   52MOL    H6919551   4.392   3.014   0.116 -0.9475 -0.8831 -2.4733
   52MOL    H7019552   4.505   3.008   0.324  2.9592  0.0347  1.2231
   52MOL    H7119553   4.802   3.046   0.409 -0.0529  0.4771 -2.7919
   52MOL    H7219554   4.688   2.940   0.461 -0.1938  1.5828  1.5130
   52MOL    H7319555   4.832   2.864   0.396 -2.8568 -2.1093 -0.5481
   52MOL    H7419556   4.880   2.915   0.138 -0.3774 -1.5156  1.9299
   52MOL    H7519557   4.783   2.918   8.009  0.0352  1.9294 -0.4550
   52MOL    H7619558   4.503   3.087   7.763  0.5943  0.1274 -0.3213
   52MOL    H7719559   4.656   3.079   7.827 -0.7367  0.8892  0.2942
   52MOL    C7819560   4.551   3.219   7.935 -0.7315  0.5885  0.2989
   52MOL    C7919561   4.406   3.249   7.975 -0.5620 -0.0163  0.0676
   52MOL    C8019562   4.300   3.257   7.885  0.8053  0.0150  1.2359
   52MOL    C8119563   4.171   3.286   7.930  0.9807 -0.0026 -0.0168
   52MOL    C8219564   4.146   3.316   8.068 -0.2746  0.2756  0.1340
   52MOL    C8319565   4.004   3.351   0.032  0.0285 -0.1638  0.6517
   52MOL    C8419566   4.251   3.315   0.082  0.2644 -0.3374  0.2330
   52MOL    C8519567   4.375   3.273   0.030  0.1951 -0.0860  0.0745
   52MOL    C8619568   4.608   3.331   7.852  0.3675 -0.6467 -0.7982
   52MOL    H8719569   4.608   3.215   8.028 -1.5097 -1.0475  0.7194
   52MOL    H8819570   4.314   3.252   7.778  2.2364  0.1989  1.3974
   52MOL    H8919571   4.092   3.284   7.856  0.5413 -1.3208  0.4758
   52MOL    H9019572   3.929   3.316   8.042 -0.4755 -0.4330  1.3281
   52MOL    H9119573   3.984   3.308   0.130  2.8265  1.5481  2.0635
   52MOL    H9219574   3.983   3.456   0.054  0.0146 -0.2856  1.2171
   52MOL    H9319575   4.224   3.343   0.183 -5.1517  3.8082 -2.1160
   52MOL    H9419576   4.458   3.276   0.100  0.5162 -2.4445 -0.1872
   52MOL    H9519577   4.575   3.427   7.891 -1.5681 -1.4390 -0.4300
   52MOL    H9619578   4.568   3.339   7.751  1.0362 -1.0582 -1.1014
   52MOL    C9719579   4.765   3.331   7.843  0.2419  0.1268 -0.6816
   52MOL    C9819580   4.833   3.354   7.977  0.4991  0.8280 -0.3956
   52MOL    C9919581   4.801   3.478   8.042 -0.2183 -0.4910  0.4398
   52MOL   C10019582   4.879   3.517   0.070 -0.4286 -0.1328  0.1352
   52MOL   C10119583   4.980   3.436   0.123 -0.7593  0.0231 -0.1521
   52MOL   C10219584   5.074   3.485   0.233  0.2773 -0.7689 -0.1719
   52MOL   C10319585   5.003   3.314   0.058  0.0501 -0.0403  0.6170
   52MOL   C10419586   4.934   3.274   8.026  0.3461 -0.2538  0.3137
   52MOL   C10519587   4.815   3.419   7.728  0.0560  0.2276 -0.6053
   52MOL   H10619588   4.802   3.231   7.822  0.1423 -0.1615  0.4817
   52MOL   H10719589   4.727   3.542   7.997  0.0351 -1.0650 -0.7889
   52MOL   H10819590   4.851   3.608   0.122 -1.1523 -1.0253  1.3486
   52MOL   H10919591   5.167   3.429   0.244 -0.3983 -1.7452  0.6614
   52MOL   H11019592   5.094   3.593   0.235  2.4542 -1.1859  1.4080
   52MOL   H11119593   5.020   3.464   0.325 -0.3127 -0.1961 -0.3746
   52MOL   H11219594   5.087   3.259   0.096 -0.2191  0.3290  1.7690
   52MOL   H11319595   4.966   3.181   7.981  1.2048  0.2384 -0.1054
   52MOL   H11419596   4.923   3.410   7.737  0.2941  2.7264 -0.5226
   52MOL   H11519597   4.803   3.523   7.759 -0.4635  0.1461 -0.5251
   52MOL   C11619598   4.770   3.385   7.586 -0.6827 -0.1495  0.5953
   52MOL   C11719599   4.781   3.241   7.548 -0.6344 -0.2276  0.0500
   52MOL   C11819600   4.912   3.182   7.563 -0.8488 -0.2114  0.3900
   52MOL   C11919601   4.934   3.059   7.505 -0.2228  0.8216  0.0173
   52MOL   C12019602   4.830   2.990   7.439 -0.4856  0.2724  0.0367
   52MOL   C12119603   4.882   2.886   7.338 -0.1926 -0.0205 -0.4077
   52MOL   C12219604   4.699   3.040   7.442 -0.3968  0.2040  0.2222
   52MOL   C12319605   4.672   3.167   7.495  0.2562  0.1614 -0.2447
   52MOL   C12419606   4.841   3.473   7.480 -0.0409 -0.8057 -0.6517
   52MOL   H12519607   4.668   3.418   7.568  0.7109  2.6865 -2.7493
   52MOL   H12619608   4.995   3.238   7.604 -0.4138  0.2140 -1.0321
   52MOL   H12719609   5.035   3.023   7.494 -0.2377  0.9294 -0.4959
   52MOL   H12819610   4.931   2.804   7.392  0.1242 -0.0318 -0.7079
   52MOL   H12919611   4.806   2.852   7.268 -0.0520  0.1718 -0.6546
   52MOL   H13019612   4.964   2.917   7.272 -1.4466 -0.6244 -2.2870
   52MOL   H13119613   4.626   2.987   7.383 -0.3961  0.8976 -0.3990
   52MOL   H13219614   4.573   3.210   7.492  0.7296  1.3418  0.5889
   52MOL   H13319615   4.946   3.445   7.478 -0.2601 -1.6110 -1.0857
   52MOL   H13419616   4.840   3.576   7.516 -0.5402 -0.9881 -0.1343
   52MOL   C13519617   4.771   3.474   7.347 -0.5267  0.2587  0.1690
   52MOL   C13619618   4.875   3.452   7.237  0.9010  0.3210 -0.0223
   52MOL   C13719619   4.900   3.315   7.193 -0.2020  0.2078  0.4700
   52MOL   C13819620   5.006   3.293   7.104  0.0893 -0.5655  0.9909
   52MOL   C13919621   5.090   3.401   7.063  0.0630 -0.5040  0.4752
   52MOL   C14019622   5.207   3.361   6.978 -0.5521 -0.7329  0.0290
   52MOL   C14119623   5.069   3.531   7.106  0.8850  0.3442 -0.4378
   52MOL   C14219624   4.958   3.556   7.192  0.2690 -0.7953 -0.9001
   52MOL   C14319625   4.681   3.601   7.319  0.7420  0.4569  0.0280
   52MOL   H14419626   4.711   3.383   7.341 -0.8461  0.4856 -0.1418
   52MOL   H14519627   4.859   3.227   7.241  2.2608 -1.0214  0.3583
   52MOL   H14619628   5.026   3.188   7.087  1.6681 -0.0537 -0.4254
   52MOL   H14719629   5.172   3.350   6.875 -2.2791  0.8112  0.4159
   52MOL   H14819630   5.295   3.425   6.986 -1.6062  0.6900  0.5062
   52MOL   H14919631   5.230   3.260   7.011  1.1678 -0.4721 -0.3253
   52MOL   H15019632   5.125   3.619   7.077 -2.0706  1.7091 -2.2772
   52MOL   H15119633   4.941   3.657   7.226  2.0369 -1.4325  2.0384
   52MOL   H15219634   4.656   3.588   7.214 -0.3312 -0.9425  0.4461
   52MOL   H15319635   4.741   3.692   7.320  2.6960 -0.7761 -1.3811
   52MOL   C15419636   4.563   3.636   7.419 -0.1248  0.1853 -0.3281
   52MOL   C15519637   4.458   3.522   7.427  0.2591 -0.0590 -0.1283
   52MOL   C15619638   4.434   3.440   7.315 -0.2197  0.3957  0.7266
   52MOL   C15719639   4.342   3.329   7.327 -0.6271  0.1437  0.0858
   52MOL   C15819640   4.258   3.323   7.440 -0.1307  0.4391 -0.4152
   52MOL   C15919641   4.161   3.204   7.451 -0.8907  0.0025  0.1590
   52MOL   C16019642   4.275   3.412   7.545  0.2997  0.1694  0.0566
   52MOL   C16119643   4.382   3.505   7.543  0.1724  0.6145  0.1256
   52MOL   C16219644   4.490   3.766   7.392  0.2606 -0.2557 -0.5191
   52MOL   H16319645   4.613   3.648   7.515  0.2068 -1.3969 -0.2945
   52MOL   H16419646   4.493   3.449   7.225 -0.5592  2.1165  0.6591
   52MOL   H16519647   4.339   3.257   7.246  1.2946 -0.4186  0.4918
   52MOL   H16619648   4.196   3.112   7.405 -0.4457 -1.6069  3.5068
   52MOL   H16719649   4.139   3.184   7.556 -1.6330 -1.3880 -0.2514
   52MOL   H16819650   4.072   3.236   7.396  1.1050 -1.4103 -4.0351
   52MOL   H16919651   4.214   3.403   7.633 -1.1606  0.9729 -0.8693
   52MOL   H17019652   4.401   3.572   7.626 -0.4769  2.2592 -1.0251
   52MOL   H17119653   4.387   3.746   7.424 -0.2143  1.9337 -0.6317
   52MOL   H17219654   4.487   3.774   7.284 -0.4291 -0.7447 -0.5422
   52MOL   C17319655   4.534   3.898   7.449 -0.2095 -0.5620  0.0098
   52MOL   C17419656   4.553   3.895   7.605  0.0333  0.2289 -0.1403
   52MOL   C17519657   4.441   3.920   7.693 -0.2405 -0.1653  0.1947
   52MOL   C17619658   4.458   3.922   7.834  0.6344  0.0611  0.2376
   52MOL   C17719659   4.584   3.884   7.887 -0.1387  0.0514  1.0244
   52MOL   C17819660   4.595   3.864   8.038 -0.1874 -0.4615  0.4542
   52MOL   C17919661   4.688   3.852   7.799 -0.2083 -0.4159  0.6161
   52MOL   C18019662   4.675   3.865   7.662  0.4951 -0.1892  0.2449
   52MOL   C18119663   4.450   4.018   7.394  0.3952  0.2494 -0.3461
   52MOL   H18219664   4.636   3.907   7.413 -0.4817  1.0868 -0.4079
   52MOL   H18319665   4.348   3.943   7.644  0.3697  1.6795 -0.1202
   52MOL   H18419666   4.375   3.918   7.902 -0.2953 -0.9298 -0.9307
   52MOL   H18519667   4.503   3.825   0.001 -0.8889 -0.9519 -1.4597
   52MOL   H18619668   4.666   3.782   8.049 -0.0591 -0.5038 -0.6607
   52MOL   H18719669   4.622   3.958   0.007  0.0569  1.0058 -2.3947
   52MOL   H18819670   4.783   3.819   7.839 -0.3242 -0.9508  0.4565
   52MOL   H18919671   4.756   3.847   7.594  0.8165  2.3538 -0.1076
   52MOL   H19019672   4.459   4.110   7.451 -1.8888  0.4047 -0.1675
   52MOL   H19119673   4.348   3.985   7.415 -0.2573  3.2487  1.4963
   52MOL   C19219674   4.466   4.049   7.244  0.9107 -0.2448  0.1261
   52MOL   C19319675   4.602   4.121   7.228 -0.0903 -0.4269  0.1732
   52MOL   C19419676   4.718   4.042   7.215  0.6347  0.3115  0.4945
   52MOL   C19519677   4.842   4.097   7.204  0.4048  0.1027 -0.2979
   52MOL   C19619678   4.854   4.240   7.201 -0.5262  0.7325  0.0746
   52MOL   C19719679   4.985   4.303   7.159  0.2979  0.1102 -0.3177
   52MOL   C19819680   4.741   4.321   7.208 -0.5414 -0.0389 -0.0268
   52MOL   C19919681   4.614   4.261   7.222 -0.0473  0.1602  0.5342
   52MOL   C20019682   4.347   4.113   7.177 -0.1832 -0.1467  0.0367
   52MOL   H20119683   4.467   3.953   7.193 -0.7991 -0.7149  0.9466
   52MOL   H20219684   4.717   3.935   7.229  1.1075  0.1555 -0.5767
   52MOL   H20319685   4.921   4.025   7.189  1.1859  0.5340  1.6030
   52MOL   H20419686   4.995   4.296   7.051 -3.4679 -1.6916 -0.6121
   52MOL   H20519687   4.998   4.407   7.190  1.8432 -0.3300  0.5630
   52MOL   H20619688   5.067   4.249   7.206  0.1587  0.5796  0.4674
   52MOL   H20719689   4.770   4.423   7.190  1.1140 -0.8959 -2.5732
   52MOL   H20819690   4.519   4.313   7.229  0.4032  0.7455  2.8961
   52MOL   H20919691   4.373   4.130   7.073  0.2744  1.6709  0.4170
   52MOL   H21019692   4.331   4.216   7.211 -1.8563  0.2398 -1.8015
   52MOL   C21119693   4.210   4.039   7.202 -0.3790 -0.1732 -0.2718
   52MOL   C21219694   4.219   3.897   7.151  0.4139 -0.0212 -0.2093
   52MOL   C21319695   4.226   3.864   7.016 -0.0944  0.8258  0.1984
   52MOL   C21419696   4.214   3.730   6.972  0.1982  0.8232 -0.4419
   52MOL   C21519697   4.193   3.626   7.063  0.5219 -0.1491  0.1517
   52MOL   C21619698   4.191   3.484   7.018  0.3185 -0.6640 -0.4498
   52MOL   C21719699   4.177   3.661   7.202  0.0297 -0.0846  0.0818
   52MOL   C21819700   4.187   3.796   7.246  0.6313 -0.6834 -0.1143
   52MOL   C21919701   4.102   4.117   7.122  0.4650 -0.2845 -0.4905
   52MOL   H22019702   4.185   4.041   7.308  0.4597  2.8799 -0.0902
   52MOL   H22119703   4.219   3.940   6.940 -0.8566  0.1546 -0.4287
   52MOL   H22219704   4.214   3.704   6.867 -0.8369  1.0012 -0.4880
   52MOL   H22319705   4.209   3.412   7.099  0.8864 -1.3613 -1.1830
   52MOL   H22419706   4.089   3.471   6.983 -0.2514 -0.4520  1.0669
   52MOL   H22519707   4.268   3.476   6.941  0.3142  2.1161 -0.7675
   52MOL   H22619708   4.167   3.584   7.276  0.5192  0.5091  0.7701
   52MOL   H22719709   4.177   3.814   7.352  2.5562  1.7830 -0.2837
   52MOL   H22819710   4.127   4.127   7.016  2.1027 -0.8383 -0.1643
   52MOL   H22919711   4.103   4.216   7.167  0.7892 -0.7475  0.5243
   52MOL   C23019712   3.961   4.051   7.130  0.2842  0.2743  0.2881
   52MOL   C23119713   3.888   4.071   6.995 -0.2720 -0.5059 -0.0079
   52MOL   C23219714   3.838   3.961   6.932  0.3263 -0.2849 -0.4869
   52MOL   C23319715   3.755   3.966   6.818 -0.3644 -0.6627  0.2830
   52MOL   C23419716   3.717   4.088   6.768 -0.3971 -0.6799 -0.0309
   52MOL   C23519717   3.640   4.110   6.645 -0.3717  0.7780  0.7790
   52MOL   C23619718   3.769   4.200   6.832 -0.1032  0.0507  0.4212
   52MOL   C23719719   3.848   4.194   6.942  0.0694 -0.9011  0.1482
   52MOL   C23819720   3.864   4.112   7.245  0.3433  0.0450 -0.9532
   52MOL   H23919721   3.975   3.945   7.149  0.4170  0.1885 -0.2800
   52MOL   H24019722   3.874   3.865   6.964  0.2959 -0.5884 -1.3669
   52MOL   H24119723   3.717   3.878   6.769  0.5665 -1.0381  0.2252
   52MOL   H24219724   3.675   4.190   6.580 -0.8078  0.3159 -0.0372
   52MOL   H24319725   3.650   4.018   6.586  0.1794  2.6024 -2.0990
   52MOL   H24419726   3.535   4.124   6.669 -0.3559  1.8589  0.2314
   52MOL   H24519727   3.750   4.301   6.799 -1.4653 -0.2978  0.1032
   52MOL   H24619728   3.880   4.288   6.986 -2.2401 -0.3218  0.6919
   52MOL   H24719729   3.759   4.093   7.223  0.3843 -2.5331  0.8445
   52MOL   H24819730   3.880   4.220   7.250 -1.5418  0.2352  2.9500
   52MOL   C24919731   3.883   4.071   7.385  0.4498  0.0065 -0.2177
   52MOL   C25019732   3.883   3.923   7.414  0.0035  0.3889  0.0210
   52MOL   C25119733   3.973   3.876   7.512  0.1319  0.3678 -0.7478
   52MOL   C25219734   3.992   3.737   7.534 -0.2782 -0.0024  0.5634
   52MOL   C25319735   3.918   3.638   7.467  0.4493 -0.0539  0.1475
   52MOL   C25419736   3.934   3.492   7.498 -0.1002  0.2183 -0.4850
   52MOL   C25519737   3.828   3.688   7.364  0.0296 -0.2082 -0.3345
   52MOL   C25619738   3.815   3.826   7.339 -0.6950  0.7650  0.0972
   52MOL   C25719739   3.797   4.150   7.478  0.1492 -0.4726 -0.3200
   52MOL   H25819740   3.980   4.112   7.412  1.0877 -1.7977  0.3143
   52MOL   H25919741   4.031   3.953   7.561 -0.2701  0.2043 -0.0014
   52MOL   H26019742   4.041   3.707   7.625  0.6830  0.0915  0.0782
   52MOL   H26119743   3.880   3.428   7.428  0.7799 -0.6777 -0.3555
   52MOL   H26219744   4.033   3.451   7.478 -0.5486 -0.3508 -1.5735
   52MOL   H26319745   3.904   3.460   7.598  1.1486  0.7769  0.0849
   52MOL   H26419746   3.759   3.621   7.314  1.4033 -1.4959 -0.5236
   52MOL   H26519747   3.738   3.848   7.266  0.4246  0.3640 -1.2050
   52MOL   H26619748   3.815   4.091   7.568  0.7583  0.8351  0.4355
   52MOL   H26719749   3.693   4.135   7.448  0.0175 -0.7779  0.2794
   52MOL   C26819750   3.828   4.303   7.507 -0.3273  0.0500 -0.3733
   52MOL   C26919751   3.978   4.335   7.511  0.2063  0.1733 -0.0904
   52MOL   C27019752   4.040   4.407   7.410 -0.0154  0.8733 -0.1300
   52MOL   C27119753   4.182   4.422   7.414 -0.5808  0.3518  0.0097
   52MOL   C27219754   4.251   4.369   7.522  0.4691  0.3156 -0.5307
   52MOL   C27319755   4.404   4.384   7.525 -0.1704 -0.3012 -0.2552
   52MOL   C27419756   4.190   4.313   7.634  0.0107 -0.1211  0.5155
   52MOL   C27519757   4.050   4.297   7.630  0.7637 -0.5673  0.5388
   52MOL   C27619758   3.747   4.355   7.622  0.2887 -0.1280  0.2037
   52MOL   H27719759   3.788   4.355   7.420  0.7829  0.0465 -0.8912
   52MOL   H27819760   3.996   4.453   7.322 -1.3679 -1.8661 -0.9509
   52MOL   H27919761   4.233   4.469   7.332  0.0634 -0.2979  0.0373
   52MOL   H28019762   4.447   4.397   7.426 -0.9841  0.3533 -0.5192
   52MOL   H28119763   4.447   4.469   7.579 -1.4158  0.2790 -0.1544
   52MOL   H28219764   4.438   4.289   7.565 -0.6766 -0.1779  0.4751
   52MOL   H28319765   4.233   4.277   7.726 -0.1174  1.1478  1.0726
   52MOL   H28419766   4.004   4.243   7.712  0.7043  0.7311  1.3616
   52MOL   H28519767   3.757   4.277   7.698  2.8655  1.5232  1.6440
   52MOL   H28619768   3.640   4.356   7.598  0.6199 -1.9259 -1.4320
   52MOL   C28719769   3.788   4.492   7.694 -0.1867 -0.0397 -0.3379
   52MOL   C28819770   3.702   4.520   7.817  0.1229 -0.1258  0.2132
   52MOL   C28919771   3.563   4.541   7.801  0.1518 -0.4525 -0.4574
   52MOL   C29019772   3.481   4.558   7.913 -0.3706 -0.7825  0.4167
   52MOL   C29119773   3.535   4.554   8.046 -0.0660 -0.6134  0.6677
   52MOL   C29219774   3.452   4.574   0.085  0.4529  0.5296  0.0917
   52MOL   C29319775   3.677   4.531   8.053 -0.0168 -0.3270  0.0179
   52MOL   C29419776   3.759   4.509   7.944 -0.0007 -0.1623  0.0741
   52MOL   C29519777   3.805   4.612   7.603 -0.5689 -0.1215  0.3717
   52MOL   H29619778   3.892   4.476   7.723 -0.0709  1.0019 -0.1720
   52MOL   H29719779   3.517   4.553   7.704 -0.4624 -0.0610 -0.1183
   52MOL   H29819780   3.376   4.577   7.898 -0.2522  0.6092  1.2690
   52MOL   H29919781   3.404   4.672   0.087 -0.5828  0.1542 -3.1604
   52MOL   H30019782   3.373   4.500   0.073  0.7222  0.3658 -0.6859
   52MOL   H30119783   3.516   4.563   0.173 -0.5952 -0.4941  0.7429
   52MOL   H30219784   3.721   4.530   0.072  1.8356 -2.1597 -0.7877
   52MOL   H30319785   3.865   4.490   7.955 -0.1638 -0.9602  0.3134
   52MOL   H30419786   3.707   4.660   7.605 -1.1506 -1.2516 -0.3196
   52MOL   H30519787   3.801   4.590   7.496 -0.7515 -0.8102  0.5118
   52MOL   C30619788   3.905   4.724   7.618 -0.4121 -0.6251 -0.1698
   52MOL   C30719789   3.969   4.734   7.760  0.4421  0.6669 -0.7783
   52MOL   C30819790   4.074   4.650   7.793 -0.3146 -0.1168  0.0390
   52MOL   C30919791   4.122   4.646   7.924  0.6885  0.0476  0.2710
   52MOL   C31019792   4.060   4.732   8.022 -0.6840 -0.0666  0.4545
   52MOL   C31119793   4.104   4.729   0.087 -0.0430 -0.0831 -1.0364
   52MOL   C31219794   3.949   4.812   7.986  0.1197  0.0515 -1.1762
   52MOL   C31319795   3.903   4.818   7.857  0.6435  0.2927 -0.2432
   52MOL   C31419796   3.852   4.854   7.564  0.5861  0.2671 -0.3179
   52MOL   H31519797   3.988   4.686   7.559  1.3753 -1.5435  2.8073
   52MOL   H31619798   4.121   4.579   7.728 -1.4291 -0.8328  0.0040
   52MOL   H31719799   4.201   4.576   7.949  0.6989  0.3085  0.9917
   52MOL   H31819800   4.047   4.797   0.151  0.9370 -1.4764  1.3819
   52MOL   H31919801   4.072   4.633   0.126  3.4387 -1.1565 -0.6793
   52MOL   H32019802   4.211   4.748   0.103 -0.1879  0.0122 -0.1855
   52MOL   H32119803   3.901   4.870   8.063  2.5262 -1.6129  1.6747
   52MOL   H32219804   3.817   4.878   7.830 -0.8836 -0.5865  2.4881
   52MOL   H32319805   3.930   4.927   7.588  1.7147 -1.3465  1.0097
   52MOL   H32419806   3.764   4.883   7.622  0.9299  1.7990 -0.5246
   52MOL   C32519807   3.822   4.873   7.413 -0.4135 -0.0667  0.4095
   52MOL   C32619808   3.943   4.845   7.328  0.0617 -0.0872 -0.3817
   52MOL   C32719809   4.072   4.901   7.346  0.4164  0.2737 -0.9127
   52MOL   C32819810   4.184   4.859   7.268  0.3072  0.1031  0.1166
   52MOL   C32919811   4.159   4.777   7.156  0.0984 -0.1061  0.2781
   52MOL   C33019812   4.261   4.735   7.057 -0.3087 -0.6052  0.5558
   52MOL   C33119813   4.037   4.711   7.143 -0.2879 -0.6202 -0.1839
   52MOL   C33219814   3.931   4.749   7.229  0.1625  0.4270  0.0641
   52MOL   C33319815   3.755   5.011   7.383 -0.6051  0.5758  0.6228
   52MOL   H33419816   3.751   4.793   7.392 -0.3948  0.0615 -0.1327
   52MOL   H33519817   4.089   4.969   7.428  0.6264 -0.5739 -0.2365
   52MOL   H33619818   4.286   4.890   7.284  0.5865 -1.7821  2.2378
   52MOL   H33719819   4.274   4.630   7.082 -1.7389 -0.3263  2.5916
   52MOL   H33819820   4.232   4.743   6.952  0.3928  1.0206  0.4609
   52MOL   H33919821   4.357   4.786   7.073  0.2627 -1.8019  0.9844
   52MOL   H34019822   4.009   4.650   7.058 -1.8603 -3.3053  2.1605
   52MOL   H34119823   3.837   4.698   7.211 -0.1876  1.0073  0.2373
   52MOL   H34219824   3.770   5.020   7.275 -1.1705  2.2564  0.6752
   52MOL   H34319825   3.802   5.100   7.425  0.3497  0.5223 -0.3089
   52MOL   C34419826   3.598   5.012   7.408 -0.5362  0.2408  0.3501
   52MOL   C34519827   3.520   4.908   7.341 -0.0704 -0.2101  0.2800
   52MOL   C34619828   3.420   4.837   7.403 -0.3249 -0.4256 -0.4184
   52MOL   C34719829   3.349   4.732   7.336 -0.0740  1.0190  0.1620
   52MOL   C34819830   3.382   4.712   7.200  0.4938  0.4691  0.1149
   52MOL   C34919831   3.306   4.621   7.104 -0.4967 -0.4987 -0.3227
   52MOL   C35019832   3.482   4.783   7.135 -0.4090  0.8090 -0.4003
   52MOL   C35119833   3.547   4.879   7.207  0.1189 -0.3962  0.3297
   52MOL   C35219834   3.529   5.153   7.398 -0.1411 -0.3950 -0.6521
   52MOL   H35319835   3.602   4.976   7.511  0.8346 -0.7818 -0.0606
   52MOL   H35419836   3.403   4.848   7.509 -1.7477  0.8083 -0.7547
   52MOL   H35519837   3.272   4.676   7.387  1.8196 -1.6491  0.1874
   52MOL   H35619838   3.202   4.647   7.084 -0.9708  0.0713  2.6571
   52MOL   H35719839   3.355   4.620   7.006 -0.5796  0.9440 -0.3911
   52MOL   H35819840   3.310   4.515   7.131 -1.2015 -0.1000  1.3827
   52MOL   H35919841   3.508   4.778   7.031 -1.0929  0.9817 -0.5807
   52MOL   H36019842   3.627   4.935   7.162  0.9286 -1.4247  0.4905
   52MOL   H36119843   3.421   5.144   7.405  0.0399 -1.4798  1.1121
   52MOL   H36219844   3.546   5.203   7.303  3.5712 -1.7342 -0.7819
   52MOL   C36319845   3.569   5.251   7.516  0.0456 -0.0165 -0.6791
   52MOL   C36419846   3.539   5.185   7.644  0.4093 -0.3885 -0.0308
   52MOL   C36519847   3.413   5.126   7.680  0.9730  0.0871 -0.0931
   52MOL   C36619848   3.399   5.063   7.805  0.7939 -0.6519  0.2699
   52MOL   C36719849   3.511   5.046   7.889  0.3613  0.1473 -0.1460
   52MOL   C36819850   3.498   4.976   8.023  0.0184  0.2727 -0.1576
   52MOL   C36919851   3.633   5.101   7.853  0.4393 -0.2228 -0.4202
   52MOL   C37019852   3.649   5.173   7.731 -0.4047 -0.3986 -0.0193
   52MOL   C37119853   3.502   5.390   7.507  0.2586 -0.2985  0.8050
   52MOL   H37219854   3.675   5.273   7.510 -0.3790  2.0783 -0.8961
   52MOL   H37319855   3.326   5.129   7.616  1.9357 -0.7867 -1.4817
   52MOL   H37419856   3.297   5.042   7.831  0.5109  0.6992  0.2970
   52MOL   H37519857   3.560   4.887   8.028  0.3054  0.5404  1.6870
   52MOL   H37619858   3.544   5.043   0.016 -0.0296  1.1757 -0.9524
   52MOL   H37719859   3.396   4.945   8.046 -0.2132  0.3397 -1.0763
   52MOL   H37819860   3.718   5.097   7.919  0.7078  1.7058 -0.6109
   52MOL   H37919861   3.746   5.213   7.706 -0.2388  0.4973  1.9662
   52MOL   H38019862   3.553   5.457   7.577  0.5372  0.8549 -0.4820
   52MOL   H38119863   3.396   5.397   7.531 -0.0932  1.2035 -1.0618
   52MOL   H38219864   3.517   5.445   7.414  0.6397  0.4083  1.2787
   53MOL     C119865   2.000   1.976   0.340  0.5983  0.3527  0.0622
   53MOL     C219866   1.915   1.983   0.468  0.2375 -0.8501  0.8616
   53MOL     C319867   1.828   1.879   0.502 -0.1838 -0.4119  0.3039
   53MOL     C419868   1.751   1.878   0.623  0.5693 -0.2640  0.4621
   53MOL     C519869   1.764   1.987   0.705  0.5852 -0.1342 -0.1300
   53MOL     C619870   1.693   1.988   0.837  0.7535  0.0364  0.4423
   53MOL     C719871   1.853   2.092   0.674 -0.2757  0.1731 -0.3181
   53MOL     C819872   1.923   2.096   0.555  0.7707 -0.2877 -0.4895
   53MOL     C919873   2.098   1.858   0.344  0.3703 -0.1237 -0.7750
   53MOL    H1019874   1.932   1.963   0.256 -0.7784  0.3546  1.1505
   53MOL    H1119875   1.837   1.793   0.438  0.4024 -0.3288  0.2661
   53MOL    H1219876   1.697   1.793   0.662  2.0973 -0.8189  1.4447
   53MOL    H1319877   1.588   2.013   0.819  0.4187  0.1605  2.4660
   53MOL    H1419878   1.697   1.884   0.871  0.6536  1.0187  3.5597
   53MOL    H1519879   1.732   2.053   0.914  0.3618  1.2722 -0.3882
   53MOL    H1619880   1.865   2.182   0.732  2.3879  0.4580 -1.2355
   53MOL    H1719881   1.986   2.180   0.528 -0.0733  0.0651 -1.3870
   53MOL    H1819882   2.155   1.868   0.251  2.1138 -0.9520  0.1892
   53MOL    H1919883   2.056   1.758   0.355  0.4517  0.0366  1.1413
   53MOL    H2019884   2.060   2.066   0.324  2.7362 -1.1196 -0.3802
   53MOL    C2119885   2.212   1.884   0.454 -0.0536  0.6572 -0.2165
   53MOL    C2219886   2.351   1.846   0.397  0.2348 -1.1231 -0.5686
   53MOL    C2319887   2.369   1.721   0.333 -0.4594 -0.0805  0.2099
   53MOL    C2419888   2.495   1.687   0.276  0.4682 -0.0282  0.6692
   53MOL    C2519889   2.603   1.777   0.291  0.7995 -0.6999  0.4296
   53MOL    C2619890   2.747   1.729   0.266 -0.8383  0.3505 -0.4041
   53MOL    C2719891   2.581   1.904   0.349 -0.5195 -0.2639  0.1069
   53MOL    C2819892   2.459   1.935   0.397  0.0398  0.6029  0.0182
   53MOL    C2919893   2.176   1.794   0.580  0.5437  0.5745  0.9034
   53MOL    H3019894   2.212   1.989   0.481  0.6959  1.1355 -1.9892
   53MOL    H3119895   2.289   1.649   0.323 -0.5580  0.2958 -2.0939
   53MOL    H3219896   2.508   1.589   0.232  2.0798  0.6123 -0.3307
   53MOL    H3319897   2.809   1.791   0.201  0.0321  0.6674  0.6980
   53MOL    H3419898   2.799   1.711   0.361 -1.1921  0.8231 -0.1184
   53MOL    H3519899   2.744   1.633   0.215 -0.3247 -1.0011  2.0300
   53MOL    H3619900   2.662   1.974   0.366 -0.7128  0.2955 -1.1539
   53MOL    H3719901   2.455   2.032   0.444  1.6232  1.7746 -2.1957
   53MOL    H3819902   2.181   1.699   0.527  0.2393 -0.1049  2.0784
   53MOL    H3919903   2.075   1.803   0.620 -0.2294 -0.3241 -0.8042
   53MOL    C4019904   2.265   1.803   0.700 -0.1136  0.1778 -0.9650
   53MOL    C4119905   2.221   1.692   0.797 -0.0539 -0.0659 -0.5175
   53MOL    C4219906   2.093   1.692   0.849  0.1691  0.0961 -0.2809
   53MOL    C4319907   2.048   1.605   0.950 -0.2586  0.5472  0.0711
   53MOL    C4419908   2.145   1.513   1.005 -0.7825 -0.1684 -0.2199
   53MOL    C4519909   2.109   1.412   1.115  0.0882 -0.6790  0.4181
   53MOL    C4619910   2.278   1.509   0.948 -0.0404  0.7472 -0.3328
   53MOL    C4719911   2.316   1.600   0.845  0.7498 -0.5777 -0.6168
   53MOL    C4819912   2.252   1.950   0.761  0.1989 -0.3720  0.5112
   53MOL    H4919913   2.369   1.791   0.670  0.7187  0.9514  1.4396
   53MOL    H5019914   2.014   1.761   0.821 -0.6984 -1.0372 -0.7070
   53MOL    H5119915   1.946   1.611   0.984 -0.7022  1.5337 -1.3934
   53MOL    H5219916   2.004   1.430   1.138  0.0103  0.0484 -0.4394
   53MOL    H5319917   2.125   1.313   1.072 -3.0543 -0.1538 -2.1867
   53MOL    H5419918   2.167   1.433   1.204  0.1100  4.2212 -0.5978
   53MOL    H5519919   2.351   1.439   0.987 -0.0780  1.1383  0.4534
   53MOL    H5619920   2.422   1.607   0.826  1.7008 -2.1877  3.5503
   53MOL    H5719921   2.148   1.980   0.750 -0.6850 -2.6758  2.1954
   53MOL    H5819922   2.312   2.014   0.696 -0.3096 -0.7318 -0.3207
   53MOL    C5919923   2.285   1.968   0.916  0.2635  0.1711  1.0147
   53MOL    C6019924   2.167   1.971   1.008  0.1683  0.5216 -0.3591
   53MOL    C6119925   2.076   2.076   1.009 -0.5583  0.1529  0.4834
   53MOL    C6219926   1.983   2.086   1.110  0.4049 -0.3699  0.2861
   53MOL    C6319927   1.964   1.993   1.211  0.6212 -0.1923  1.0215
   53MOL    C6419928   1.849   1.999   1.308  0.1233 -0.2860  0.0079
   53MOL    C6519929   2.062   1.888   1.214 -0.7562  0.2624 -0.2920
   53MOL    C6619930   2.157   1.873   1.114 -0.3062 -0.0864  0.2499
   53MOL    C6719931   2.371   2.101   0.945 -0.3205 -0.1727 -0.9751
   53MOL    H6819932   2.342   1.881   0.947  1.4805  0.5200 -0.1936
   53MOL    H6919933   2.077   2.154   0.934  1.5428 -0.1537  0.1650
   53MOL    H7019934   1.910   2.166   1.102  1.1675  0.4436  1.3723
   53MOL    H7119935   1.788   2.088   1.297  0.2052 -0.3171 -0.7601
   53MOL    H7219936   1.784   1.913   1.292 -2.0755  1.7630 -2.4850
   53MOL    H7319937   1.880   1.981   1.411  0.4478  0.7845  0.1004
   53MOL    H7419938   2.041   1.800   1.273 -2.0576  0.2508 -0.7370
   53MOL    H7519939   2.229   1.793   1.123 -0.9041 -0.6190  0.3587
   53MOL    H7619940   2.392   2.103   1.052 -1.1004 -2.5637 -0.7511
   53MOL    H7719941   2.309   2.189   0.929 -1.9243 -1.2178 -0.6277
   53MOL    C7819942   2.504   2.123   0.874 -0.2348 -0.8193  0.1222
   53MOL    C7919943   2.576   1.996   0.844 -0.2620  0.1013 -0.0537
   53MOL    C8019944   2.618   1.914   0.950  0.5564 -0.0738 -0.0803
   53MOL    C8119945   2.670   1.790   0.918 -0.4456  0.4151 -0.0520
   53MOL    C8219946   2.680   1.740   0.790 -0.4167  0.1784  0.2492
   53MOL    C8319947   2.741   1.606   0.759  0.6701 -0.3690 -0.3299
   53MOL    C8419948   2.654   1.829   0.681  0.6156 -0.3049 -0.4247
   53MOL    C8519949   2.604   1.955   0.713 -0.3638  0.1886  0.0034
   53MOL    C8619950   2.593   2.228   0.944 -0.6669 -0.0748 -0.2022
   53MOL    H8719951   2.477   2.167   0.778 -0.3929  1.3669  1.1575
   53MOL    H8819952   2.613   1.947   1.053  1.9527 -1.4116  0.4483
   53MOL    H8919953   2.690   1.720   0.997 -2.9478 -0.0460  0.2106
   53MOL    H9019954   2.759   1.604   0.652  1.9407  4.1035 -0.3152
   53MOL    H9119955   2.840   1.607   0.804 -0.0716  2.4033  1.3901
   53MOL    H9219956   2.681   1.519   0.785  1.7247 -0.3231  2.5038
   53MOL    H9319957   2.670   1.798   0.579  0.3623 -3.1054  0.3429
   53MOL    H9419958   2.570   2.028   0.641 -0.7347 -0.0758 -0.0926
   53MOL    H9519959   2.598   2.201   1.049 -2.1748 -1.2553 -0.4205
   53MOL    H9619960   2.550   2.328   0.943  1.8016  1.0213 -1.2798
   53MOL    C9719961   2.750   2.238   0.902  0.1549  0.1309  0.1140
   53MOL    C9819962   2.834   2.310   1.008 -0.0506 -0.2085 -0.2419
   53MOL    C9919963   2.952   2.245   1.052  0.3054  0.8373  0.7229
   53MOL   C10019964   3.041   2.295   1.148 -0.1707 -0.3618 -0.1576
   53MOL   C10119965   3.011   2.413   1.209 -0.0451 -0.5388  0.1636
   53MOL   C10219966   3.107   2.468   1.318  0.3270  0.3847 -0.0477
   53MOL   C10319967   2.896   2.484   1.166  0.2139 -0.6685 -0.4641
   53MOL   C10419968   2.812   2.434   1.067  0.8432  0.5960  0.0992
   53MOL   C10519969   2.759   2.305   0.763  0.3367 -0.2612 -0.2258
   53MOL   H10619970   2.782   2.134   0.889  0.0463  0.1118  0.0002
   53MOL   H10719971   2.982   2.153   1.006 -4.0190 -0.2657 -0.1570
   53MOL   H10819972   3.124   2.229   1.168  0.7743  1.2001  1.1131
   53MOL   H10919973   3.170   2.397   1.372 -0.0266  0.5897  0.6391
   53MOL   H11019974   3.178   2.531   1.264 -1.4855  2.5648  0.0519
   53MOL   H11119975   3.052   2.532   1.387  0.6603  0.7937 -0.1587
   53MOL   H11219976   2.875   2.582   1.205 -1.1143 -0.9757 -0.3978
   53MOL   H11319977   2.732   2.503   1.041 -0.5952 -0.8685  0.5341
   53MOL   H11419978   2.709   2.402   0.773 -0.0481 -0.8523  4.4415
   53MOL   H11519979   2.694   2.250   0.695  1.9730 -0.9655 -1.2336
   53MOL   C11619980   2.905   2.315   0.711 -0.6238  0.6205  0.0101
   53MOL   C11719981   2.904   2.392   0.575 -0.3570 -0.1856 -0.0284
   53MOL   C11819982   2.846   2.330   0.456 -0.7123  0.1367  0.1193
   53MOL   C11919983   2.837   2.399   0.331  0.3700 -1.3522 -0.7582
   53MOL   C12019984   2.893   2.531   0.324 -0.3196 -0.1573  0.0128
   53MOL   C12119985   2.879   2.598   0.192 -0.3836  0.2420  0.3548
   53MOL   C12219986   2.953   2.591   0.436  0.5933  0.0423  0.2375
   53MOL   C12319987   2.959   2.524   0.565 -0.5414  0.1821  0.0650
   53MOL   C12419988   2.973   2.174   0.696 -0.3883 -0.3786  0.0378
   53MOL   H12519989   2.961   2.381   0.777  0.0877  1.5222 -1.4509
   53MOL   H12619990   2.811   2.228   0.459 -1.0417  0.2585  0.4874
   53MOL   H12719991   2.793   2.355   0.243 -0.8980 -0.0105 -0.8024
   53MOL   H12819992   2.979   2.634   0.166 -0.1333 -0.1622  0.7434
   53MOL   H12919993   2.846   2.540   0.106 -1.7210 -0.8009  1.5469
   53MOL   H13019994   2.813   2.685   0.192  0.1167  0.6277  0.5922
   53MOL   H13119995   2.996   2.690   0.428  0.1551  0.1914 -0.3167
   53MOL   H13219996   3.012   2.561   0.651  2.8129  1.9181 -2.5913
   53MOL   H13319997   2.908   2.113   0.633 -1.6605 -0.5069  1.4254
   53MOL   H13419998   2.979   2.119   0.790 -0.2508 -2.3726 -1.1169
   53MOL   C13519999   3.117   2.178   0.645  0.3305 -0.0443  0.1529
   53MOL   C13620000   3.140   2.052   0.571  0.4248  0.6634 -0.4094
   53MOL   C13720001   3.138   1.927   0.639 -0.3477  0.8922 -0.4042
   53MOL   C13820002   3.161   1.808   0.570  0.2243  0.0604  0.4253
   53MOL   C13920003   3.192   1.813   0.433  0.1837  0.3187  0.4003
   53MOL   C14020004   3.218   1.688   0.366 -0.2644 -0.0139  0.2697
   53MOL   C14120005   3.197   1.937   0.363  0.6247 -0.6670 -0.9980
   53MOL   C14220006   3.160   2.057   0.429 -0.3754 -0.0658 -0.3031
   53MOL   C14320007   3.216   2.212   0.754 -0.2343  0.6112  0.0666
   53MOL   H14420008   3.123   2.259   0.573  1.9114 -0.6044 -0.3707
   53MOL   H14520009   3.110   1.917   0.743 -1.0931 -0.4008 -0.7244
   53MOL   H14620010   3.173   1.720   0.633 -1.6866  0.7674  1.8228
   53MOL   H14720011   3.167   1.702   0.270  1.8390 -0.3154 -0.9233
   53MOL   H14820012   3.322   1.666   0.343  0.0945  0.0591  1.7846
   53MOL   H14920013   3.176   1.594   0.403  1.3187 -0.2105  1.6194
   53MOL   H15020014   3.219   1.948   0.258  1.4298 -1.1287 -0.8786
   53MOL   H15120015   3.149   2.149   0.375  1.8321 -0.0488 -0.7634
   53MOL   H15220016   3.213   2.131   0.826  0.2797  1.1484  0.6923
   53MOL   H15320017   3.171   2.300   0.799 -0.9010  1.6675 -2.5330
   53MOL   C15420018   3.365   2.240   0.709  0.5539  0.3120  0.3091
   53MOL   C15520019   3.455   2.258   0.835 -0.2665  0.0858  0.3793
   53MOL   C15620020   3.400   2.284   0.963  0.3738  0.0891 -1.0720
   53MOL   C15720021   3.490   2.287   1.072 -1.3250 -0.3361 -0.4407
   53MOL   C15820022   3.631   2.266   1.058 -0.0726 -0.0008 -0.6853
   53MOL   C15920023   3.721   2.252   1.175  0.8545 -0.2167  0.4814
   53MOL   C16020024   3.681   2.254   0.932  0.0710 -0.5447  0.4232
   53MOL   C16120025   3.597   2.250   0.821 -0.0281  0.0769  0.0842
   53MOL   C16220026   3.377   2.364   0.624 -0.3071 -0.2711 -0.0638
   53MOL   H16320027   3.407   2.149   0.667 -1.0810 -0.7402  0.9056
   53MOL   H16420028   3.297   2.314   0.980  1.0653  0.8885  1.8464
   53MOL   H16520029   3.461   2.294   1.176  1.9427 -3.0017  0.6975
   53MOL   H16620030   3.822   2.279   1.145  0.4027  1.0407  0.0235
   53MOL   H16720031   3.693   2.325   1.251 -0.0612 -0.2706  0.1981
   53MOL   H16820032   3.714   2.149   1.208 -0.3465 -0.4634 -0.4828
   53MOL   H16920033   3.786   2.239   0.916 -0.2256 -1.1651 -0.9669
   53MOL   H17020034   3.650   2.237   0.728  0.0984 -0.0126  0.1689
   53MOL   H17120035   3.448   2.432   0.671  1.8971 -1.5298 -1.4980
   53MOL   H17220036   3.277   2.408   0.619 -0.6691 -0.6909  2.3894
   53MOL   C17320037   3.414   2.342   0.475 -0.5790 -0.1256 -0.8156
   53MOL   C17420038   3.555   2.285   0.446  0.0352  0.3470 -0.1822
   53MOL   C17520039   3.669   2.365   0.460 -0.0196 -0.0763 -0.1425
   53MOL   C17620040   3.790   2.323   0.406  0.0605  0.9151 -0.4625
   53MOL   C17720041   3.800   2.203   0.341 -0.3018  0.6369 -0.6410
   53MOL   C17820042   3.928   2.177   0.258 -0.2402 -0.0087  0.5130
   53MOL   C17920043   3.688   2.113   0.339 -0.3429 -0.1166  0.6657
   53MOL   C18020044   3.567   2.156   0.392  0.4072 -0.1606  0.3606
   53MOL   C18120045   3.381   2.471   0.402 -0.2620 -0.2256  0.0847
   53MOL   H18220046   3.345   2.269   0.433 -1.8671  0.8354 -0.3785
   53MOL   H18320047   3.666   2.461   0.509  1.2641 -0.9757  1.7293
   53MOL   H18420048   3.878   2.385   0.408  0.5496  0.2088  0.3486
   53MOL   H18520049   4.017   2.150   0.314  1.0133 -0.6644 -1.7666
   53MOL   H18620050   3.911   2.089   0.195  1.5316  0.3034 -0.4133
   53MOL   H18720051   3.955   2.266   0.202 -0.6529  0.3002  0.7996
   53MOL   H18820052   3.686   2.019   0.286 -0.8128 -0.6186  1.5556
   53MOL   H18920053   3.471   2.106   0.390  0.8743 -1.0479 -4.3664
   53MOL   H19020054   3.441   2.553   0.441  0.5010 -1.5693  1.7879
   53MOL   H19120055   3.278   2.504   0.417  0.2906  1.4493  0.2590
   53MOL   C19220056   3.393   2.471   0.246 -0.2056  0.3628  0.2485
   53MOL   C19320057   3.307   2.365   0.175  0.0144  0.3413  0.6540
   53MOL   C19420058   3.358   2.240   0.133 -0.5165  0.0734 -0.4239
   53MOL   C19520059   3.277   2.148   0.071 -0.6053  0.0800 -0.0053
   53MOL   C19620060   3.143   2.179   0.050  0.1922 -0.3541  0.0487
   53MOL   C19720061   3.054   2.075   8.059 -0.3715  0.1812  0.9421
   53MOL   C19820062   3.091   2.308   0.078  0.3962 -0.7350 -0.5125
   53MOL   C19920063   3.177   2.396   0.137  0.2996 -0.4595 -0.6021
   53MOL   C20020064   3.533   2.482   0.191 -0.4406 -0.2085  0.4052
   53MOL   H20120065   3.349   2.568   0.222 -1.6718 -0.6758 -1.4107
   53MOL   H20220066   3.455   2.206   0.165 -0.0941 -0.0319 -1.7887
   53MOL   H20320067   3.319   2.053   0.041 -0.2167 -0.0022  0.8011
   53MOL   H20420068   2.984   2.045   0.057  0.1204  1.9149  2.0755
   53MOL   H20520069   2.998   2.122   7.978  0.3325  0.4642  0.6180
   53MOL   H20620070   3.115   1.998   8.012  0.5959  1.5178 -0.0346
   53MOL   H20720071   2.985   2.330   0.071  0.4423 -0.2455  0.2282
   53MOL   H20820072   3.137   2.493   0.163 -1.6271 -1.0798 -1.2094
   53MOL   H20920073   3.563   2.379   0.212  2.2118  0.5926  0.8045
   53MOL   H21020074   3.604   2.539   0.252 -0.5185  1.2975 -0.8732
   53MOL   C21120075   3.558   2.516   0.035  0.0337 -0.9628  0.2423
   53MOL   C21220076   3.693   2.464   8.066 -0.7128  0.2033  0.1328
   53MOL   C21320077   3.815   2.514   0.023 -0.2261  0.0446  0.4265
   53MOL   C21420078   3.937   2.469   8.047  0.0186 -0.1462  0.9372
   53MOL   C21520079   3.940   2.349   7.973  0.0769  0.5028 -0.2040
   53MOL   C21620080   4.072   2.283   7.940 -0.3406 -0.4813 -0.3793
   53MOL   C21720081   3.818   2.298   7.928  0.4162 -0.0690 -0.1490
   53MOL   C21820082   3.696   2.356   7.977 -0.0502  1.0096  0.0569
   53MOL   C21920083   3.539   2.665   0.009 -0.1606 -0.3246 -0.0764
   53MOL   H22020084   3.486   2.455   8.061 -0.1190 -1.2211  0.7331
   53MOL   H22120085   3.807   2.603   0.084 -3.3203  0.6689 -0.7959
   53MOL   H22220086   4.029   2.514   0.001  0.4762  0.3128 -0.8508
   53MOL   H22320087   4.058   2.183   7.899  1.4907 -1.4190  1.2126
   53MOL   H22420088   4.138   2.346   7.880  0.4985 -0.5350  0.4770
   53MOL   H22520089   4.120   2.254   8.033 -0.4173 -0.7246 -0.4178
   53MOL   H22620090   3.818   2.214   7.861  2.2374  0.2354 -0.5611
   53MOL   H22720091   3.604   2.310   7.943  0.7126 -0.3198 -0.2670
   53MOL   H22820092   3.634   2.720   0.004 -1.1792  1.4563 -0.2189
   53MOL   H22920093   3.491   2.710   0.096  1.2310  0.8450  0.1190
   53MOL   C23020094   3.445   2.703   7.973 -0.6009  0.0289 -0.9136
   53MOL   C23120095   3.480   2.635   7.837  0.6029 -0.8950 -0.1580
   53MOL   C23220096   3.373   2.596   7.753 -0.4989 -0.0503  0.8398
   53MOL   C23320097   3.403   2.545   7.626  0.0465  0.6215  0.3136
   53MOL   C23420098   3.535   2.513   7.599 -0.1416 -0.1671 -0.0417
   53MOL   C23520099   3.568   2.430   7.476 -0.4231 -0.1601  0.0773
   53MOL   C23620100   3.643   2.553   7.680  0.0568  0.5029 -0.7508
   53MOL   C23720101   3.614   2.620   7.800 -0.5234 -0.3044  0.1842
   53MOL   C23820102   3.447   2.858   7.944 -0.7491 -0.1977 -0.4958
   53MOL   H23920103   3.344   2.670   7.994  0.4541 -0.9300  3.1124
   53MOL   H24020104   3.271   2.610   7.786 -0.3589 -0.8927  1.6465
   53MOL   H24120105   3.318   2.523   7.563 -0.2645 -1.4060  1.4119
   53MOL   H24220106   3.562   2.491   7.386  2.5504  0.9577  0.5848
   53MOL   H24320107   3.663   2.378   7.478 -0.8508 -0.9069  1.5254
   53MOL   H24420108   3.486   2.359   7.459  0.3222 -1.5418  2.1004
   53MOL   H24520109   3.744   2.535   7.647  0.7856  1.1312  1.0364
   53MOL   H24620110   3.698   2.654   7.858 -2.1481 -1.3547  3.2881
   53MOL   H24720111   3.373   2.874   7.866 -0.4054 -0.8711 -0.9602
   53MOL   H24820112   3.544   2.883   7.900 -0.7188  1.9937  0.7775
   53MOL   C24920113   3.414   2.955   8.066 -0.1379  0.0093  0.2918
   53MOL   C25020114   3.285   2.935   0.059 -0.1871  0.7233 -0.6906
   53MOL   C25120115   3.169   2.891   8.071 -0.0107  0.5701 -0.4250
   53MOL   C25220116   3.047   2.888   0.058  0.6862  0.8382 -0.2776
   53MOL   C25320117   3.039   2.926   0.194  0.2189  0.7103  0.1954
   53MOL   C25420118   2.906   2.943   0.264  0.2372  0.0826  0.4401
   53MOL   C25520119   3.152   2.963   0.264 -0.7144 -0.4520 -0.3091
   53MOL   C25620120   3.276   2.973   0.195  0.3170  0.2768 -0.0171
   53MOL   C25720121   3.428   3.105   8.035 -0.1072 -0.0645 -0.2960
   53MOL   H25820122   3.491   2.917   0.054  0.5752  0.8227 -0.0576
   53MOL   H25920123   3.175   2.879   7.964 -3.3384  0.0067 -0.5982
   53MOL   H26020124   2.954   2.883   0.003  0.9032  2.9466 -0.8655
   53MOL   H26120125   2.895   2.859   0.333  0.5813  0.1968  0.6382
   53MOL   H26220126   2.899   3.025   0.336 -1.3224 -1.5328  2.1741
   53MOL   H26320127   2.824   2.942   0.193  0.4834 -1.2275  0.1728
   53MOL   H26420128   3.139   2.991   0.368  0.6667 -1.9456  0.2913
   53MOL   H26520129   3.368   3.006   0.241  0.0937  0.7052  0.1271
   53MOL   H26620130   3.400   3.151   0.050  1.8511  0.5431  0.0168
   53MOL   H26720131   3.355   3.128   7.957 -0.9084  1.0064  0.7490
   53MOL   C26820132   3.563   3.162   7.994  0.2078  0.3164  0.0088
   53MOL   C26920133   3.670   3.109   0.007 -0.2937 -0.0174  0.3917
   53MOL   C27020134   3.787   3.061   8.033 -0.5199  1.3286 -0.1576
   53MOL   C27120135   3.889   3.008   0.029  0.3017 -0.1980 -0.5007
   53MOL   C27220136   3.873   3.010   0.169 -0.1209 -0.1213  0.0064
   53MOL   C27320137   3.982   2.969   0.261  0.4430 -0.0156  0.1840
   53MOL   C27420138   3.759   3.070   0.229  0.0490  0.7201 -0.2027
   53MOL   C27520139   3.654   3.116   0.149  0.1832  0.3582  0.2796
   53MOL   C27620140   3.571   3.317   7.971 -0.2480  0.1618  1.1809
   53MOL   H27720141   3.582   3.116   7.897 -0.6254 -1.1616  0.5275
   53MOL   H27820142   3.799   3.056   7.926 -1.3083  2.6761 -0.3275
   53MOL   H27920143   3.982   2.971   8.067  0.1343 -0.3906 -0.7090
   53MOL   H28020144   4.066   3.038   0.261 -1.5492  2.4641  0.3731
   53MOL   H28120145   3.958   2.958   0.367 -0.7373  0.0407 -0.0752
   53MOL   H28220146   4.009   2.867   0.233 -1.2065 -0.3638 -0.1665
   53MOL   H28320147   3.750   3.073   0.336 -1.4785  0.1399 -0.3107
   53MOL   H28420148   3.562   3.163   0.182 -1.3871 -0.8053 -2.2997
   53MOL   H28520149   3.656   3.333   7.905 -0.7762 -0.3163  0.3699
   53MOL   H28620150   3.586   3.358   8.070  2.8618 -1.2237  1.3520
   53MOL   C28720151   3.443   3.375   7.885 -0.5189 -0.4644 -0.4087
   53MOL   C28820152   3.490   3.495   7.803  0.1239 -0.0217 -0.1600
   53MOL   C28920153   3.436   3.526   7.674 -0.3156  0.0847  0.4435
   53MOL   C29020154   3.467   3.649   7.605 -0.2543  0.2110  0.4939
   53MOL   C29120155   3.555   3.743   7.676 -1.2299  0.1632 -0.4461
   53MOL   C29220156   3.596   3.862   7.607 -0.2917 -0.1277  0.4352
   53MOL   C29320157   3.617   3.710   7.803  0.6752 -0.3930 -0.5743
   53MOL   C29420158   3.576   3.592   7.863  0.1166  0.0224  0.0679
   53MOL   C29520159   3.318   3.414   7.964 -0.1375 -0.5915 -0.1638
   53MOL   H29620160   3.428   3.293   7.814 -1.7807  0.2379 -0.9666
   53MOL   H29720161   3.376   3.460   7.614 -0.1241  0.4845 -0.1866
   53MOL   H29820162   3.416   3.680   7.516 -3.4905 -1.0275  1.8474
   53MOL   H29920163   3.692   3.834   7.564 -0.0070  2.6076 -0.7699
   53MOL   H30020164   3.532   3.899   7.527 -0.8033  1.0176  1.3647
   53MOL   H30120165   3.610   3.939   7.682  1.1943 -0.7039  0.7800
   53MOL   H30220166   3.683   3.776   7.856  0.0287  1.6154 -2.1940
   53MOL   H30320167   3.615   3.566   7.960 -2.0637 -0.8235  0.7486
   53MOL   H30420168   3.308   3.519   7.994  0.6344 -0.3448 -0.7559
   53MOL   H30520169   3.334   3.373   8.064  0.1083  0.5463  0.2684
   53MOL   C30620170   3.189   3.368   7.901  0.0697 -0.0741 -0.3107
   53MOL   C30720171   3.138   3.455   7.784 -0.1681 -0.2364 -0.4386
   53MOL   C30820172   3.096   3.393   7.660  0.4544 -0.3236  0.1192
   53MOL   C30920173   3.036   3.474   7.563  0.1467  0.7815 -0.5073
   53MOL   C31020174   3.042   3.611   7.568 -0.7157  0.1016 -0.0746
   53MOL   C31120175   2.997   3.688   7.449  0.5882 -0.0042 -0.6230
   53MOL   C31220176   3.093   3.678   7.687 -0.2677  0.0965  1.1332
   53MOL   C31320177   3.131   3.596   7.797  0.2944  0.3993 -0.3541
   53MOL   C31420178   3.088   3.353   8.014 -0.5151  0.2370  0.2290
   53MOL   H31520179   3.217   3.268   7.867 -0.5527 -0.0564 -0.8795
   53MOL   H31620180   3.100   3.287   7.641  4.5691 -0.1792 -0.2323
   53MOL   H31720181   2.988   3.423   7.481 -2.7919  0.2654  1.4393
   53MOL   H31820182   3.086   3.711   7.390  1.7511 -1.3083  0.5982
   53MOL   H31920183   2.930   3.622   7.392 -0.3543 -0.2525  0.7468
   53MOL   H32020184   2.958   3.785   7.482  0.2821  0.3845 -2.0529
   53MOL   H32120185   3.109   3.785   7.691  0.1843  0.1726 -1.8855
   53MOL   H32220186   3.164   3.642   7.889  0.8383 -3.1692  1.3284
   53MOL   H32320187   3.074   3.453   8.054 -0.1398  0.4889 -0.2635
   53MOL   H32420188   3.127   3.287   0.012 -0.5484 -1.4965 -1.1922
   53MOL   C32520189   2.958   3.291   7.951 -0.4243  0.0040 -0.1574
   53MOL   C32620190   2.835   3.308   8.057 -0.8366 -0.2779 -0.5435
   53MOL   C32720191   2.712   3.360   8.008  0.2574  0.3600  0.2111
   53MOL   C32820192   2.598   3.341   0.006  0.3388  0.2210 -0.4419
   53MOL   C32920193   2.598   3.279   0.134  0.5642  0.2789 -0.0484
   53MOL   C33020194   2.477   3.267   0.213 -0.8948 -0.1752 -0.1926
   53MOL   C33120195   2.727   3.242   0.185 -0.2794  0.0854 -0.5048
   53MOL   C33220196   2.846   3.248   0.104  0.6656  0.8133 -0.2273
   53MOL   C33320197   2.976   3.148   7.885  0.3848  0.4831  0.0560
   53MOL   H33420198   2.934   3.353   7.865  3.0498  0.7658 -0.6223
   53MOL   H33520199   2.700   3.400   7.908 -1.5932 -0.9339 -0.1005
   53MOL   H33620200   2.506   3.387   8.053 -0.3868 -1.8159 -1.3311
   53MOL   H33720201   2.491   3.326   0.304 -0.0389  0.2574 -0.6005
   53MOL   H33820202   2.398   3.310   0.151 -1.4301 -0.7395  0.0880
   53MOL   H33920203   2.439   3.166   0.224 -1.9393  0.1501 -0.6808
   53MOL   H34020204   2.739   3.197   0.282  1.8160 -1.6063 -1.5167
   53MOL   H34120205   2.935   3.200   0.142  0.3913 -1.0254 -1.8230
   53MOL   H34220206   3.021   3.078   7.956 -2.2582  0.7451  2.0531
   53MOL   H34320207   3.049   3.155   7.804  0.8520 -0.0354  0.4270
   53MOL   C34420208   2.852   3.082   7.822  0.1376  0.8085  0.4413
   53MOL   C34520209   2.880   2.931   7.803 -0.3142 -0.1274  0.6967
   53MOL   C34620210   2.800   2.835   7.862 -0.1451 -0.5877  0.0928
   53MOL   C34720211   2.827   2.700   7.852  0.2787  0.1275 -0.5803
   53MOL   C34820212   2.939   2.654   7.779  0.4242 -0.1088  0.4237
   53MOL   C34920213   2.967   2.504   7.769  0.4493  0.1967  0.1566
   53MOL   C35020214   3.022   2.747   7.719  0.7625  0.2266  0.2554
   53MOL   C35120215   2.993   2.884   7.738 -0.2653 -0.0080  0.1756
   53MOL   C35220216   2.810   3.160   7.690 -0.1175  0.5941  0.1020
   53MOL   H35320217   2.773   3.101   7.895 -0.7369  2.9479 -0.9844
   53MOL   H35420218   2.716   2.862   7.925  0.7145  0.7118  0.7162
   53MOL   H35520219   2.760   2.621   7.883 -0.7202  0.4408 -1.8687
   53MOL   H35620220   2.888   2.430   7.782 -0.7820  1.4011 -0.3585
   53MOL   H35720221   3.000   2.485   7.667  0.8792  0.9518  0.1503
   53MOL   H35820222   3.043   2.476   7.842 -1.2913 -0.5217  1.7390
   53MOL   H35920223   3.106   2.711   7.662 -0.3269 -1.3252 -0.4026
   53MOL   H36020224   3.072   2.950   7.703 -1.9816  3.1959  2.1113
   53MOL   H36120225   2.898   3.160   7.624  0.5817 -0.3012  1.0261
   53MOL   H36220226   2.788   3.263   7.719 -0.8165 -0.3272  2.9352
   53MOL   C36320227   2.692   3.102   7.607  0.4816  0.0483 -0.0376
   53MOL   C36420228   2.685   3.174   7.477 -0.0357  0.4524 -0.4036
   53MOL   C36520229   2.684   3.095   7.355 -0.3732 -0.7851  0.1191
   53MOL   C36620230   2.688   3.160   7.234 -0.1701  0.0424 -0.1689
   53MOL   C36720231   2.691   3.296   7.224  0.5379  0.0583 -0.6456
   53MOL   C36820232   2.692   3.364   7.090  0.3517 -1.2215 -0.4141
   53MOL   C36920233   2.687   3.379   7.339 -0.6114 -0.0482  0.3717
   53MOL   C37020234   2.674   3.319   7.467 -0.2403 -0.4989  0.2327
   53MOL   C37120235   2.559   3.116   7.680 -0.3490 -0.2489  0.2018
   53MOL   H37220236   2.719   2.998   7.589 -1.9726 -0.8326  1.1856
   53MOL   H37320237   2.683   2.987   7.361  0.3143 -0.7448  1.1079
   53MOL   H37420238   2.696   3.098   7.146 -1.8494  1.9508 -1.7201
   53MOL   H37520239   2.782   3.350   7.031 -0.0335  0.2186 -1.3873
   53MOL   H37620240   2.609   3.317   7.036  0.6363 -2.2044 -0.0093
   53MOL   H37720241   2.670   3.470   7.082  2.1357 -0.9652 -2.2075
   53MOL   H37820242   2.683   3.487   7.332  0.7972 -0.0908 -1.3728
   53MOL   H37920243   2.683   3.376   7.558  1.1130  1.2870 -0.9763
   53MOL   H38020244   2.492   3.040   7.641  0.5321 -1.6136  1.2769
   53MOL   H38120245   2.518   3.215   7.663 -2.7876 -1.6744 -2.7785
   53MOL   H38220246   2.575   3.100   7.787  3.5745 -0.0291 -0.2727
   54MOL     C120247   1.173   0.562   2.787  0.1155  0.0111 -0.0237
   54MOL     C220248   1.239   0.686   2.720 -0.3549  0.6492  0.8157
   54MOL     C320249   1.156   0.790   2.675 -0.0058 -0.3073  0.0672
   54MOL     C420250   1.207   0.913   2.630 -0.9539  0.6122  0.0866
   54MOL     C520251   1.342   0.924   2.609 -0.1366  0.0227  0.4360
   54MOL     C620252   1.403   1.056   2.550  0.1011  0.1910  0.0389
   54MOL     C720253   1.426   0.824   2.644 -0.3535 -0.7134  0.1465
   54MOL     C820254   1.377   0.698   2.696  0.2290  0.8878 -0.1477
   54MOL     C920255   1.265   0.433   2.795  0.2447  0.3951 -0.7302
   54MOL    H1020256   1.140   0.605   2.882  0.1825 -1.4760  0.7025
   54MOL    H1120257   1.049   0.783   2.686 -0.0367  1.5334  1.1067
   54MOL    H1220258   1.149   1.001   2.604  0.7983  2.3054  1.6858
   54MOL    H1320259   1.422   1.139   2.618  1.0352 -0.6886  0.8517
   54MOL    H1420260   1.489   1.025   2.491 -0.7330  1.3013 -1.8443
   54MOL    H1520261   1.333   1.087   2.472  1.2450 -0.4043 -1.2345
   54MOL    H1620262   1.529   0.836   2.615 -0.7652  1.6671 -0.4270
   54MOL    H1720263   1.446   0.619   2.722 -0.9415 -0.2537 -0.5127
   54MOL    H1820264   1.355   0.455   2.851 -0.5987 -2.0388  1.7461
   54MOL    H1920265   1.293   0.414   2.691  1.4315 -0.3104 -0.2924
   54MOL    H2020266   1.091   0.523   2.727  0.6198 -2.1647  0.6425
   54MOL    C2120267   1.187   0.312   2.866 -0.2826  0.1939  0.2199
   54MOL    C2220268   1.081   0.342   2.972 -0.2878 -0.1039  0.0400
   54MOL    C2320269   1.103   0.441   3.069 -0.2216 -0.5959 -0.0498
   54MOL    C2420270   1.012   0.457   3.171  0.3124 -0.0663 -1.4672
   54MOL    C2520271   0.894   0.376   3.175  0.9512  0.1537  0.4085
   54MOL    C2620272   0.788   0.412   3.283 -0.4227  0.3074  0.3205
   54MOL    C2720273   0.865   0.284   3.075 -0.0855  0.2357  0.0218
   54MOL    C2820274   0.959   0.258   2.975 -0.5846 -1.0127  0.6387
   54MOL    C2920275   1.291   0.217   2.941  0.0397  0.1777  0.3588
   54MOL    H3020276   1.140   0.258   2.785  1.1288  0.5201 -0.8366
   54MOL    H3120277   1.197   0.493   3.073 -0.2825 -0.5153  0.4453
   54MOL    H3220278   1.046   0.530   3.243  0.0935  0.2653 -1.7015
   54MOL    H3320279   0.783   0.328   3.351 -0.2547 -1.1399 -1.4327
   54MOL    H3420280   0.823   0.493   3.347 -0.0269  2.2187 -2.2228
   54MOL    H3520281   0.689   0.437   3.245 -0.3619 -0.3973 -0.3083
   54MOL    H3620282   0.774   0.225   3.068  0.4891 -0.6936  0.3024
   54MOL    H3720283   0.934   0.183   2.901 -0.4887  2.5924 -3.2417
   54MOL    H3820284   1.240   0.124   2.967 -0.4414  0.7132  1.3613
   54MOL    H3920285   1.327   0.256   3.036  2.4697  2.5981 -1.4620
   54MOL    C4020286   1.409   0.186   2.845  0.3770 -0.3365  0.8147
   54MOL    C4120287   1.357   0.108   2.722 -0.0526 -0.2840  0.0017
   54MOL    C4220288   1.357   0.160   2.586 -0.2463  0.2470 -0.4331
   54MOL    C4320289   1.287   0.085   2.483 -0.4318 -0.0538  0.1131
   54MOL    C4420290   1.239   8.038   2.520 -0.5500 -0.5307 -0.3568
   54MOL    C4520291   1.179   7.949   2.410  0.4834 -0.0949  0.4797
   54MOL    C4620292   1.237   7.989   2.652  0.4114 -0.1339  0.1969
   54MOL    C4720293   1.297   8.066   2.750 -0.2252 -0.1920 -0.1376
   54MOL    C4820294   1.521   0.103   2.908 -0.1074 -0.1672  0.3653
   54MOL    H4920295   1.456   0.280   2.816 -0.2328 -0.4898 -0.6737
   54MOL    H5020296   1.395   0.258   2.560 -0.9805  0.7950  0.5531
   54MOL    H5120297   1.277   0.125   2.383 -0.4199  0.0909  0.1696
   54MOL    H5220298   1.102   7.991   2.345  0.4515 -0.0680  0.5339
   54MOL    H5320299   1.253   7.954   2.331 -3.6384  4.1756 -3.4497
   54MOL    H5420300   1.157   7.847   2.442 -4.5050  1.3284  2.1049
   54MOL    H5520301   1.183   7.900   2.679 -0.3308 -0.4554 -2.2069
   54MOL    H5620302   1.295   8.027   2.850 -1.2570 -0.9184 -0.4372
   54MOL    H5720303   1.598   0.081   2.834 -0.7669 -2.0591  0.2227
   54MOL    H5820304   1.486   0.006   2.942 -0.1072 -0.3593 -0.1756
   54MOL    C5920305   1.605   0.171   3.020 -0.9615  0.9483 -0.1202
   54MOL    C6020306   1.657   0.307   2.976 -0.4004 -0.0483 -1.0830
   54MOL    C6120307   1.749   0.309   2.870 -0.9570 -0.0014 -0.3658
   54MOL    C6220308   1.802   0.435   2.826 -0.9020 -0.3297 -0.6295
   54MOL    C6320309   1.761   0.555   2.882 -0.5386  0.9466 -0.5012
   54MOL    C6420310   1.819   0.685   2.838  0.1330  0.8345 -0.7539
   54MOL    C6520311   1.672   0.551   2.982  0.2739 -0.1106 -0.5591
   54MOL    C6620312   1.616   0.432   3.031  0.2105  0.8123  0.2781
   54MOL    C6720313   1.717   0.081   3.075  0.4309  0.3533 -0.4449
   54MOL    H6820314   1.540   0.193   3.106 -0.5419  1.3909  0.0876
   54MOL    H6920315   1.785   0.217   2.826 -0.2274 -0.0214  0.2730
   54MOL    H7020316   1.886   0.439   2.758  1.2077 -0.1071  1.8666
   54MOL    H7120317   1.819   0.683   2.729  4.2829  2.0569 -0.8255
   54MOL    H7220318   1.766   0.774   2.871 -1.1183 -0.7404  1.6951
   54MOL    H7320319   1.926   0.685   2.858  0.0408 -1.0030 -0.1019
   54MOL    H7420320   1.631   0.643   3.019 -4.0794 -1.5274 -1.6031
   54MOL    H7520321   1.543   0.439   3.111 -1.9100  0.4360 -1.6048
   54MOL    H7620322   1.801   0.136   3.116  0.8435 -1.3648  1.0494
   54MOL    H7720323   1.775   0.026   3.000 -0.7600  0.2138 -1.2836
   54MOL    C7820324   1.677   8.057   3.192  1.0712  0.4161 -0.8380
   54MOL    C7920325   1.621   0.043   3.312 -0.2205 -0.4954 -0.1887
   54MOL    C8020326   1.502   8.070   3.373 -0.4647  0.9255  0.3285
   54MOL    C8120327   1.446   0.047   3.492  0.0817  0.0572 -0.4522
   54MOL    C8220328   1.501   0.165   3.540  0.1031  0.0279  0.3242
   54MOL    C8320329   1.450   0.227   3.670  0.0445  0.1884  0.0305
   54MOL    C8420330   1.614   0.222   3.475  0.4126 -0.0324 -0.6863
   54MOL    C8520331   1.677   0.157   3.369  0.9536 -0.8166 -0.1329
   54MOL    C8620332   1.794   7.963   3.230  0.0230  0.5893  0.7960
   54MOL    H8720333   1.596   7.994   3.154 -1.4459  0.7286  3.6505
   54MOL    H8820334   1.455   7.981   3.334  1.4165 -0.3200  0.8578
   54MOL    H8920335   1.362   8.079   3.541  0.4821 -0.6560 -0.4632
   54MOL    H9020336   1.390   0.148   3.714 -0.7614  1.9881  2.2666
   54MOL    H9120337   1.534   0.249   3.736  1.0836 -0.0886 -1.1787
   54MOL    H9220338   1.386   0.314   3.659  0.7774  0.9510  1.6028
   54MOL    H9320339   1.648   0.318   3.510 -0.7788  0.2229 -0.1930
   54MOL    H9420340   1.771   0.183   3.323 -0.4018  1.5212 -1.6847
   54MOL    H9520341   1.877   8.031   3.249  0.3251  0.4401  0.0150
   54MOL    H9620342   1.818   7.903   3.142 -0.4815 -0.1370  1.1458
   54MOL    C9720343   1.771   7.858   3.338 -0.1865 -0.1581  0.8021
   54MOL    C9820344   1.864   7.902   3.456 -0.0433  0.9688  0.5996
   54MOL    C9920345   1.998   7.879   3.443  0.2333  0.0593  0.3489
   54MOL   C10020346   2.081   7.910   3.555 -0.2278 -0.6914  0.4055
   54MOL   C10120347   2.028   7.965   3.675  0.2641  0.0710  0.0824
   54MOL   C10220348   2.118   8.013   3.794 -0.0391  0.3866  0.0835
   54MOL   C10320349   1.889   7.981   3.686  0.1078 -0.0822 -1.0903
   54MOL   C10420350   1.805   7.957   3.571 -0.5070  0.6879  0.5894
   54MOL   C10520351   1.791   7.710   3.302 -0.0232 -0.2037 -0.6533
   54MOL   H10620352   1.672   7.864   3.384  0.2283  1.2674  1.5396
   54MOL   H10720353   2.053   7.839   3.359  1.3367 -0.3988  1.2781
   54MOL   H10820354   2.185   7.878   3.550  0.2065  1.1121 -3.1276
   54MOL   H10920355   2.225   8.018   3.774  0.0180 -1.3377 -0.1188
   54MOL   H11020356   2.098   0.039   3.807 -2.0096 -0.1175  1.3084
   54MOL   H11120357   2.100   7.963   3.889 -0.8092  1.0971  0.3077
   54MOL   H11220358   1.844   8.019   3.777  3.4497  0.3623  0.4391
   54MOL   H11320359   1.702   7.988   3.577  0.1671  3.1498 -0.2286
   54MOL   H11420360   1.811   7.650   3.390  1.2863  0.0383 -0.7841
   54MOL   H11520361   1.887   7.712   3.251 -1.0257  0.6505 -2.5768
   54MOL   C11620362   1.671   7.649   3.219  0.5488  0.1095  0.1028
   54MOL   C11720363   1.560   7.598   3.309 -0.3422 -0.0072 -0.4752
   54MOL   C11820364   1.437   7.662   3.322 -0.8074 -0.5496  0.7145
   54MOL   C11920365   1.330   7.614   3.406 -0.2973  0.2853 -0.0710
   54MOL   C12020366   1.354   7.502   3.483 -0.0217  0.1183 -0.5235
   54MOL   C12120367   1.244   7.456   3.580  0.6949 -0.6866  0.3474
   54MOL   C12220368   1.474   7.431   3.475 -0.4050 -0.3010  0.2707
   54MOL   C12320369   1.576   7.481   3.387  0.0770  0.0907 -0.1206
   54MOL   C12420370   1.719   7.556   3.111 -0.1011  0.0012  0.2033
   54MOL   H12520371   1.622   7.725   3.158 -0.9338 -1.1289 -0.3019
   54MOL   H12620372   1.413   7.746   3.258  0.1754  1.6204  3.1394
   54MOL   H12720373   1.235   7.667   3.403 -1.7206 -2.1589  0.4380
   54MOL   H12820374   1.252   7.478   3.686  0.2516 -0.1383  0.2734
   54MOL   H12920375   1.147   7.496   3.552  0.9936 -0.4273 -0.3528
   54MOL   H13020376   1.240   7.349   3.561  0.0036 -0.6691  0.3903
   54MOL   H13120377   1.500   7.347   3.539 -0.7398 -1.1490 -0.6944
   54MOL   H13220378   1.666   7.421   3.382 -1.9260 -3.0835  0.6884
   54MOL   H13320379   1.632   7.508   3.065 -0.5374  0.8130  0.1680
   54MOL   H13420380   1.772   7.475   3.160  0.7804  0.0157 -0.7017
   54MOL   C13520381   1.818   7.615   3.001  0.1462 -1.5659  0.2535
   54MOL   C13620382   1.732   7.660   2.880 -0.7084 -0.5955 -0.5095
   54MOL   C13720383   1.705   7.795   2.866 -0.6339  0.6070  0.4235
   54MOL   C13820384   1.624   7.837   2.759 -0.3660  0.2026  0.3568
   54MOL   C13920385   1.574   7.738   2.664 -0.4036 -0.1178  0.2187
   54MOL   C14020386   1.500   7.798   2.540 -0.1312 -0.5848  0.3691
   54MOL   C14120387   1.609   7.602   2.679 -0.1683 -0.0602 -0.8020
   54MOL   C14220388   1.684   7.563   2.791 -0.3559  0.2764  0.2832
   54MOL   C14320389   1.940   7.521   2.972 -0.1861  0.7449 -0.1992
   54MOL   H14420390   1.865   7.702   3.047 -0.8301 -1.7305  1.6054
   54MOL   H14520391   1.748   7.864   2.937 -3.6305  0.7632  2.1946
   54MOL   H14620392   1.600   7.942   2.764 -0.8825  0.0376  1.5450
   54MOL   H14720393   1.558   7.767   2.453 -0.6547 -1.8881  0.4802
   54MOL   H14820394   1.401   7.753   2.533  0.3798 -1.4024 -2.3699
   54MOL   H14920395   1.490   7.906   2.549  1.1340 -0.4968  0.8851
   54MOL   H15020396   1.581   7.524   2.610  0.9934 -0.5700 -0.6996
   54MOL   H15120397   1.721   7.463   2.806  2.0465  1.1132  0.1844
   54MOL   H15220398   1.897   7.425   2.943  0.4961  0.7716 -1.3355
   54MOL   H15320399   1.986   7.506   3.069 -4.0891  0.1131  1.6334
   54MOL   C15420400   2.046   7.575   2.871 -0.6470 -0.2978 -0.3606
   54MOL   C15520401   1.995   7.567   2.724  0.6006 -0.0890  0.1759
   54MOL   C15620402   2.006   7.448   2.649  0.2666  0.3481 -0.6596
   54MOL   C15720403   1.952   7.445   2.519  0.5860  0.0337 -0.2633
   54MOL   C15820404   1.901   7.561   2.459  0.0943  0.1518  0.6666
   54MOL   C15920405   1.851   7.556   2.316 -0.3582 -0.5079 -0.3924
   54MOL   C16020406   1.899   7.681   2.524  0.2464 -0.4211 -0.1380
   54MOL   C16120407   1.954   7.683   2.658  0.2048  0.1566  0.0478
   54MOL   C16220408   2.181   7.511   2.883  0.0428 -0.3003 -0.5672
   54MOL   H16320409   2.058   7.682   2.888  1.0720 -0.2816 -1.5633
   54MOL   H16420410   2.049   7.360   2.695 -2.1329 -1.4588 -1.8141
   54MOL   H16520411   1.947   7.348   2.471  0.3080 -0.4111  0.6407
   54MOL   H16620412   1.943   7.570   2.260  0.8477  1.1970  1.9053
   54MOL   H16720413   1.811   7.459   2.289  0.1202 -0.1904 -2.2923
   54MOL   H16820414   1.776   7.633   2.294 -0.1942 -0.2377 -0.0107
   54MOL   H16920415   1.882   7.773   2.471  0.5151 -0.2228  0.1198
   54MOL   H17020416   1.949   7.777   2.711 -0.6779 -0.3806  0.9263
   54MOL   H17120417   2.230   7.532   2.788 -2.9229  2.9808 -1.4426
   54MOL   H17220418   2.165   7.403   2.875 -0.3626 -0.1637 -1.6192
   54MOL   C17320419   2.272   7.536   3.006  0.2786 -0.5536 -0.5123
   54MOL   C17420420   2.337   7.676   3.007  0.9040  0.3055  0.0330
   54MOL   C17520421   2.313   7.759   3.119 -0.2057  0.0172 -0.9317
   54MOL   C17620422   2.361   7.889   3.114 -0.1269  0.0760  0.6222
   54MOL   C17720423   2.430   7.939   3.009 -0.3659  0.2219  1.1857
   54MOL   C17820424   2.481   0.004   3.011  0.0786  0.0769  0.0948
   54MOL   C17920425   2.454   7.856   2.899 -0.5104  0.3031 -0.0008
   54MOL   C18020426   2.411   7.728   2.897  1.0801 -0.1719  0.6129
   54MOL   C18120427   2.381   7.422   3.007 -0.4381  0.2845 -0.7821
   54MOL   H18220428   2.208   7.528   3.094  1.4883 -0.2702  0.4194
   54MOL   H18320429   2.265   7.717   3.206 -0.4690 -1.1434 -1.6304
   54MOL   H18420430   2.347   7.950   3.201 -1.3979  1.4509 -0.5121
   54MOL   H18520431   2.501   0.045   3.110 -0.0895 -0.2025  0.2435
   54MOL   H18620432   2.571   0.009   2.949 -1.1648  1.9835 -1.6337
   54MOL   H18720433   2.415   0.073   2.960 -0.1509 -0.0465  0.2250
   54MOL   H18820434   2.501   7.895   2.809 -0.8497  0.8469  0.0594
   54MOL   H18920435   2.426   7.671   2.806 -1.1445  2.5621 -1.6042
   54MOL   H19020436   2.451   7.435   2.924  0.8210 -0.5238  0.1361
   54MOL   H19120437   2.340   7.322   2.996  1.0914 -0.2879 -1.4319
   54MOL   C19220438   2.473   7.434   3.131 -0.2284  0.7572  0.2609
   54MOL   C19320439   2.605   7.357   3.125 -0.0544 -0.2563  0.6562
   54MOL   C19420440   2.617   7.245   3.041  0.3087 -0.0997 -1.1544
   54MOL   C19520441   2.736   7.171   3.044 -0.6708 -0.0740 -0.1783
   54MOL   C19620442   2.841   7.213   3.133 -0.2377 -0.0491  0.2670
   54MOL   C19720443   2.974   7.141   3.136 -0.4020 -0.1541  0.6765
   54MOL   C19820444   2.827   7.318   3.219 -0.2519  0.9794  0.2451
   54MOL   C19920445   2.710   7.397   3.210  0.5178  0.0085  0.6810
   54MOL   C20020446   2.399   7.409   3.260 -0.3356 -0.6864 -0.3317
   54MOL   H20120447   2.504   7.539   3.131 -1.3044  1.0905  1.3148
   54MOL   H20220448   2.536   7.204   2.983  0.9325 -0.9071 -1.4605
   54MOL   H20320449   2.742   7.086   2.979 -1.0703 -1.1416  1.1536
   54MOL   H20420450   2.950   7.035   3.151  0.0810 -0.4616 -0.6847
   54MOL   H20520451   3.020   7.148   3.038 -0.4420 -0.4425  0.6341
   54MOL   H20620452   3.035   7.167   3.223  0.1067 -0.1125  0.3078
   54MOL   H20720453   2.907   7.333   3.290  0.5038 -1.8671  0.0887
   54MOL   H20820454   2.695   7.472   3.287 -0.5339  1.0211 -0.4761
   54MOL   H20920455   2.320   7.484   3.266 -0.0640 -0.5009  1.4743
   54MOL   H21020456   2.471   7.429   3.340 -1.2943  0.8171  0.1901
   54MOL   C21120457   2.342   7.268   3.290 -0.0443  0.0433  0.1003
   54MOL   C21220458   2.200   7.239   3.255 -0.6511  0.5477  0.2961
   54MOL   C21320459   2.101   7.315   3.316 -0.2787  1.0608  0.0797
   54MOL   C21420460   1.963   7.296   3.286 -0.3591  0.8384 -0.3721
   54MOL   C21520461   1.926   7.192   3.197 -0.0524 -0.0332  0.0435
   54MOL   C21620462   1.783   7.161   3.173  0.4604  0.0347  0.5776
   54MOL   C21720463   2.024   7.116   3.128 -0.8089  0.4896 -0.2149
   54MOL   C21820464   2.163   7.133   3.163 -0.3804  0.8654 -0.5257
   54MOL   C21920465   2.371   7.224   3.440 -0.3874 -0.0590  0.2463
   54MOL   H22020466   2.406   7.210   3.224  0.9455  0.4102  0.7246
   54MOL   H22120467   2.121   7.400   3.380 -2.7376 -0.4037  2.9324
   54MOL   H22220468   1.894   7.364   3.333  0.1299 -0.1366  1.7947
   54MOL   H22320469   1.760   7.227   3.090 -1.1026  0.1171  1.0579
   54MOL   H22420470   1.782   7.054   3.152 -0.4848 -0.0326  0.9267
   54MOL   H22520471   1.719   7.173   3.260  1.3069  3.4806  0.7918
   54MOL   H22620472   2.007   7.038   3.055  0.7509 -0.6353  0.6065
   54MOL   H22720473   2.242   7.082   3.110 -1.4631 -2.2891  0.7657
   54MOL   H22820474   2.318   7.293   3.506 -0.2702 -1.2700  1.6223
   54MOL   H22920475   2.477   7.230   3.463 -0.7200 -2.8271  2.8022
   54MOL   C23020476   2.337   7.075   3.476  0.4541  0.0222 -0.3750
   54MOL   C23120477   2.326   7.062   3.626 -0.4888  0.1857 -0.2132
   54MOL   C23220478   2.201   7.035   3.683  0.7408  0.7415  0.3093
   54MOL   C23320479   2.191   7.030   3.822  0.4039  0.4825 -0.2254
   54MOL   C23420480   2.303   7.059   3.909 -0.2760  0.3488  0.7618
   54MOL   C23520481   2.283   7.071   4.054 -0.4775 -0.1761 -0.9743
   54MOL   C23620482   2.428   7.082   3.844  0.5238 -0.3835  0.1060
   54MOL   C23720483   2.443   7.079   3.708 -0.5044 -0.4193  0.2750
   54MOL   C23820484   2.451   6.978   3.426  0.4372 -0.3316  0.1858
   54MOL   H23920485   2.243   7.049   3.428 -1.0451  2.4543  1.1442
   54MOL   H24020486   2.111   7.016   3.627 -0.9857 -1.2636  3.6017
   54MOL   H24120487   2.101   7.013   3.878  0.1925  1.4106 -0.2801
   54MOL   H24220488   2.368   7.131   4.085  0.3887 -0.3786 -2.8906
   54MOL   H24320489   2.194   7.129   4.079  0.1969 -0.0120  1.1258
   54MOL   H24420490   2.270   6.970   4.093  2.4566  0.2243  1.1323
   54MOL   H24520491   2.509   7.119   3.905  0.4268  1.8192 -1.0330
   54MOL   H24620492   2.540   7.112   3.673 -0.4139  0.2072  1.1194
   54MOL   H24720493   2.548   7.003   3.468  0.9738 -0.5643 -0.8925
   54MOL   H24820494   2.471   6.996   3.320 -0.5324  1.1018  0.2195
   54MOL   C24920495   2.417   6.828   3.420 -0.3956 -0.5462 -0.0646
   54MOL   C25020496   2.280   6.803   3.363 -0.6079  0.4173  0.2103
   54MOL   C25120497   2.166   6.765   3.444 -0.4557  0.2286  0.1829
   54MOL   C25220498   2.047   6.724   3.379  0.1197  0.3755  0.0461
   54MOL   C25320499   2.036   6.724   3.239  0.3638  0.4103 -0.4371
   54MOL   C25420500   1.904   6.686   3.168  0.6232  0.5182  0.0978
   54MOL   C25520501   2.147   6.767   3.167  0.2157 -0.7949  0.2192
   54MOL   C25620502   2.264   6.809   3.227  0.0949  0.6378  0.3826
   54MOL   C25720503   2.450   6.752   3.550  0.2637 -0.3639 -0.8418
   54MOL   H25820504   2.490   6.785   3.351  0.7389  2.7593 -0.9956
   54MOL   H25920505   2.172   6.768   3.552  2.5275  1.4361  0.0060
   54MOL   H26020506   1.962   6.706   3.443 -0.4681  0.9859 -0.5553
   54MOL   H26120507   1.927   6.670   3.062 -2.9128  2.1757 -1.0026
   54MOL   H26220508   1.861   6.591   3.201 -1.0340  1.7366  1.5025
   54MOL   H26320509   1.828   6.763   3.155  0.7656  0.5733 -0.4094
   54MOL   H26420510   2.144   6.784   3.061 -0.7426 -0.7760  0.2510
   54MOL   H26520511   2.342   6.849   3.164 -1.8041  1.9676 -1.2005
   54MOL   H26620512   2.423   6.647   3.538 -2.3080 -0.0150  1.4047
   54MOL   H26720513   2.393   6.787   3.636  1.1701  0.4452 -0.5613
   54MOL   C26820514   2.593   6.747   3.595 -0.0297 -0.1674  0.2503
   54MOL   C26920515   2.685   6.698   3.485 -0.6186  0.3792 -0.0393
   54MOL   C27020516   2.766   6.796   3.433  0.2641 -0.0231 -0.1505
   54MOL   C27120517   2.849   6.765   3.322 -0.2052  0.0801 -1.0026
   54MOL   C27220518   2.861   6.632   3.279  0.0113 -0.5361 -0.4467
   54MOL   C27320519   2.962   6.582   3.173 -0.0703  0.1222 -0.7104
   54MOL   C27420520   2.781   6.530   3.341  0.2397 -0.3137  0.7290
   54MOL   C27520521   2.693   6.567   3.444 -0.8559  0.3827  0.4832
   54MOL   C27620522   2.593   6.661   3.729 -0.2198  0.2519 -0.3644
   54MOL   H27720523   2.615   6.850   3.620 -0.1271 -0.2448  0.6516
   54MOL   H27820524   2.747   6.898   3.462 -0.4971 -0.5539  1.2578
   54MOL   H27920525   2.902   6.846   3.275 -0.1773  0.5867 -0.1253
   54MOL   H28020526   3.010   6.487   3.194 -1.9419 -0.8389 -0.6803
   54MOL   H28120527   2.909   6.590   3.078  1.1424 -0.6024 -1.4590
   54MOL   H28220528   3.041   6.656   3.164  1.4658 -1.0794  2.2639
   54MOL   H28320529   2.791   6.427   3.311 -1.7387 -0.1674 -0.5022
   54MOL   H28420530   2.626   6.491   3.482  0.7088 -1.0900  0.3382
   54MOL   H28520531   2.572   6.557   3.703 -1.3919  0.4475 -0.2498
   54MOL   H28620532   2.515   6.697   3.797  1.1351  0.5837  1.0366
   54MOL   C28720533   2.728   6.660   3.804  0.4138 -0.3677  0.7989
   54MOL   C28820534   2.740   6.530   3.877 -0.3553 -0.4962  0.4910
   54MOL   C28920535   2.643   6.488   3.979  0.7506  0.2025  0.2829
   54MOL   C29020536   2.650   6.359   4.031  0.0839 -0.4543 -0.0087
   54MOL   C29120537   2.743   6.271   3.978 -0.2300  1.3051 -0.0907
   54MOL   C29220538   2.741   6.128   4.027 -0.2291 -0.6699 -0.3754
   54MOL   C29320539   2.847   6.315   3.890 -0.7113  0.7156 -0.4841
   54MOL   C29420540   2.843   6.443   3.843  0.0282 -0.4994 -0.2137
   54MOL   C29520541   2.747   6.775   3.903 -0.2368 -0.6241 -0.1119
   54MOL   H29620542   2.794   6.662   3.718 -0.9422 -0.6438 -0.2571
   54MOL   H29720543   2.563   6.554   4.010 -0.3751  0.1781 -2.3817
   54MOL   H29820544   2.582   6.326   4.108 -0.0307  1.2378  0.6186
   54MOL   H29920545   2.668   6.066   3.974 -1.6393 -0.8171  1.6980
   54MOL   H30020546   2.841   6.087   4.018 -0.0122 -0.5289  1.2831
   54MOL   H30120547   2.707   6.121   4.130 -0.7180  0.8257 -0.4181
   54MOL   H30220548   2.932   6.254   3.866 -2.0034 -1.2085 -0.3402
   54MOL   H30320549   2.906   6.484   3.765 -0.9584  1.0845 -0.2097
   54MOL   H30420550   2.661   6.788   3.968 -0.0674  0.0015 -0.0067
   54MOL   H30520551   2.740   6.868   3.846  0.6268  0.2475  1.1686
   54MOL   C30620552   2.877   6.784   3.985  0.1110 -0.4449  0.5758
   54MOL   C30720553   2.873   6.902   4.082  0.7416 -0.2106  0.2056
   54MOL   C30820554   2.959   6.902   4.195 -0.0690  0.1904  0.2671
   54MOL   C30920555   2.952   7.013   4.288  0.2456  0.1304 -0.0011
   54MOL   C31020556   2.859   7.115   4.269  0.8720 -0.0375  0.6806
   54MOL   C31120557   2.849   7.224   4.371  0.0216  0.2193  0.5019
   54MOL   C31220558   2.782   7.119   4.149  0.1891 -0.4623  0.2377
   54MOL   C31320559   2.785   7.015   4.053  0.3006 -0.3093  0.1383
   54MOL   C31420560   3.011   6.781   3.897  1.2994  0.4628  0.1145
   54MOL   H31520561   2.870   6.696   4.049  0.0165 -0.7743  0.1162
   54MOL   H31620562   3.024   6.818   4.215 -0.2851  0.2086  1.0732
   54MOL   H31720563   3.014   7.009   4.376 -0.2373  0.2655  0.3438
   54MOL   H31820564   2.760   7.285   4.361 -2.2996 -2.9719  0.9001
   54MOL   H31920565   2.850   7.184   4.473  0.3629 -1.3961 -0.1123
   54MOL   H32020566   2.939   7.282   4.351  0.5973 -0.4813  1.0146
   54MOL   H32120567   2.717   7.203   4.130  2.7015  1.2657 -0.8930
   54MOL   H32220568   2.727   7.033   3.964  0.5859  0.9187  0.1882
   54MOL   H32320569   2.996   6.694   3.833  0.6333  0.0040  0.8816
   54MOL   H32420570   3.096   6.748   3.957 -0.2591 -3.6311  0.2330
   54MOL   C32520571   3.046   6.909   3.807 -0.6817 -0.1475  0.3468
   54MOL   C32620572   3.139   6.860   3.695  0.0725  0.1696 -0.3175
   54MOL   C32720573   3.282   6.880   3.699 -0.3026  0.5668 -0.9543
   54MOL   C32820574   3.364   6.824   3.600 -0.6373  0.1143 -0.1909
   54MOL   C32920575   3.313   6.746   3.499  0.4966 -0.4268 -0.1415
   54MOL   C33020576   3.402   6.673   3.407  0.7181  0.0602  0.6952
   54MOL   C33120577   3.173   6.736   3.489  0.0059  0.1422 -0.2994
   54MOL   C33220578   3.087   6.793   3.583  0.0835 -0.7414 -0.2134
   54MOL   C33320579   3.104   7.028   3.898  0.8256  0.3086 -0.4564
   54MOL   H33420580   2.951   6.936   3.762 -1.2252 -0.8304  1.0821
   54MOL   H33520581   3.333   6.930   3.780  0.3037 -1.5202 -0.0399
   54MOL   H33620582   3.471   6.837   3.607 -0.4098  0.1381 -3.1632
   54MOL   H33720583   3.498   6.725   3.408  0.3358  0.7925  0.1323
   54MOL   H33820584   3.413   6.575   3.454  0.6731 -0.2013  0.1715
   54MOL   H33920585   3.371   6.658   3.303  1.6499 -0.2650  0.4627
   54MOL   H34020586   3.133   6.686   3.402 -0.4839 -1.4583  0.8177
   54MOL   H34120587   2.980   6.780   3.576 -0.0387 -0.1025  0.3872
   54MOL   H34220588   3.201   7.001   3.938  0.9010 -0.0096 -0.8444
   54MOL   H34320589   3.042   7.048   3.985  0.3407  2.6205 -1.2989
   54MOL   C34420590   3.122   7.159   3.826  0.5561 -0.1423  0.5431
   54MOL   C34520591   3.162   7.268   3.929  0.4383 -0.0906  0.2756
   54MOL   C34620592   3.072   7.325   4.020 -0.6061 -0.1419 -0.2138
   54MOL   C34720593   3.115   7.431   4.105 -0.1916 -0.1390 -0.3874
   54MOL   C34820594   3.247   7.483   4.094  0.3384  0.0219 -0.2018
   54MOL   C34920595   3.289   7.602   4.171 -0.4992 -0.3475  0.2647
   54MOL   C35020596   3.337   7.429   3.997  0.4997  0.3604  0.4274
   54MOL   C35120597   3.298   7.319   3.920  0.1975  0.2499 -0.1523
   54MOL   C35220598   2.990   7.213   3.755 -0.0503 -0.5292 -0.6966
   54MOL   H35320599   3.202   7.144   3.753 -1.8080  0.4836 -2.3055
   54MOL   H35420600   2.968   7.298   4.011 -1.1832  1.7771  0.3820
   54MOL   H35520601   3.036   7.464   4.172 -0.1234 -2.0393  0.6674
   54MOL   H35620602   3.298   7.686   4.101  0.6381 -0.8621 -0.2101
   54MOL   H35720603   3.225   7.626   4.256  2.0459  0.6470  1.9494
   54MOL   H35820604   3.386   7.586   4.217  0.9313  0.3263 -2.4002
   54MOL   H35920605   3.436   7.466   3.975  1.2092 -1.0273  1.1839
   54MOL   H36020606   3.361   7.278   3.842 -1.0078  1.3615 -1.7499
   54MOL   H36120607   2.980   7.321   3.772  0.4241 -0.5276 -0.4082
   54MOL   H36220608   2.906   7.164   3.804 -0.3976 -0.6000 -1.3586
   54MOL   C36320609   2.985   7.184   3.606 -0.4102  0.3649 -0.1587
   54MOL   C36420610   3.079   7.270   3.523 -0.1711  0.0339 -0.1042
   54MOL   C36520611   3.051   7.406   3.486  0.2302  0.8620  0.5508
   54MOL   C36620612   3.145   7.478   3.419 -0.0893 -0.0316  0.8422
   54MOL   C36720613   3.271   7.427   3.398 -0.3441 -0.0425 -0.1591
   54MOL   C36820614   3.371   7.520   3.332  0.2167 -1.0235  0.1340
   54MOL   C36920615   3.308   7.297   3.432  0.3673 -0.8062 -0.4910
   54MOL   C37020616   3.209   7.219   3.494  0.8285 -0.6417 -0.5894
   54MOL   C37120617   2.842   7.185   3.547 -0.8944  0.0801 -0.7113
   54MOL   H37220618   3.014   7.080   3.592  0.1267  0.4190  0.5288
   54MOL   H37320619   2.953   7.449   3.504 -0.2148  0.2069 -0.3222
   54MOL   H37420620   3.124   7.579   3.385  1.8674  0.1731  0.1711
   54MOL   H37520621   3.435   7.570   3.405 -0.4653 -0.5466  0.4018
   54MOL   H37620622   3.440   7.469   3.264  0.0626  0.0395 -0.8444
   54MOL   H37720623   3.323   7.597   3.272  1.4905  0.8348  1.4220
   54MOL   H37820624   3.410   7.263   3.429  1.4941  2.5269 -2.2779
   54MOL   H37920625   3.237   7.120   3.527  1.8164 -0.6187 -1.3178
   54MOL   H38020626   2.847   7.146   3.445  0.1675  0.2608 -0.7354
   54MOL   H38120627   2.795   7.284   3.553 -0.3165  0.2897  0.6924
   54MOL   H38220628   2.771   7.119   3.595  1.5978 -0.6314  2.1316
   55MOL     C120629   6.411   5.531   6.857 -0.0304  0.6566  0.1063
   55MOL     C220630   6.527   5.585   6.778  0.3179 -0.4015 -0.2262
   55MOL     C320631   6.620   5.660   6.850  0.5347  0.0336  0.2320
   55MOL     C420632   6.718   5.726   6.775  0.3172  0.0010  0.3681
   55MOL     C520633   6.737   5.700   6.638  0.4147 -0.3487 -0.1898
   55MOL     C620634   6.861   5.756   6.564  0.1322  0.0536  0.1055
   55MOL     C720635   6.645   5.623   6.568  0.1017  0.9056 -0.3221
   55MOL     C820636   6.538   5.565   6.639 -0.5405 -0.4712  0.2388
   55MOL     C920637   6.295   5.635   6.876  0.5218  0.0145  0.3323
   55MOL    H1020638   6.376   5.439   6.810 -0.8868  0.3017  1.4038
   55MOL    H1120639   6.617   5.669   6.958 -0.8475  2.3668  0.0161
   55MOL    H1220640   6.792   5.778   6.834 -2.6279  2.2507  2.2424
   55MOL    H1320641   6.890   5.678   6.493 -1.6843  1.0671 -1.7906
   55MOL    H1420642   6.834   5.843   6.505 -1.8013 -1.4779 -1.3352
   55MOL    H1520643   6.948   5.779   6.626 -0.0631  1.0655 -0.0027
   55MOL    H1620644   6.674   5.600   6.466 -0.5976 -0.1504 -0.2842
   55MOL    H1720645   6.468   5.505   6.582  0.5562 -1.6792  0.1396
   55MOL    H1820646   6.245   5.655   6.781 -1.1547  1.0595  1.4047
   55MOL    H1920647   6.333   5.733   6.906 -0.0036  0.7441 -1.3306
   55MOL    H2020648   6.456   5.502   6.952  0.6652 -0.8102 -0.6464
   55MOL    C2120649   6.187   5.599   6.979 -0.6309  0.7915 -0.2488
   55MOL    C2220650   6.163   5.446   7.001  0.5335 -0.1981  0.5470
   55MOL    C2320651   6.169   5.392   7.132  0.5110 -0.4684  0.4315
   55MOL    C2420652   6.144   5.255   7.158 -0.6361 -0.2290 -0.5369
   55MOL    C2520653   6.122   5.173   7.047 -0.3055 -0.0732 -0.8358
   55MOL    C2620654   6.088   5.031   7.086 -0.5065 -0.2646 -0.3203
   55MOL    C2720655   6.114   5.221   6.917 -0.1085 -0.2072 -0.5604
   55MOL    C2820656   6.134   5.356   6.893  0.1828 -0.8067 -0.2268
   55MOL    C2920657   6.049   5.663   6.942 -0.1268 -0.2271 -0.4815
   55MOL    H3020658   6.227   5.636   7.074  1.2119 -0.2737 -0.5748
   55MOL    H3120659   6.208   5.450   7.214 -2.7008 -0.4362  2.0464
   55MOL    H3220660   6.138   5.224   7.261 -1.9736 -0.1886 -0.6028
   55MOL    H3320661   6.150   4.952   7.046 -1.8526 -0.1911 -2.6216
   55MOL    H3420662   6.086   5.015   7.194  2.4250 -2.6195 -0.5609
   55MOL    H3520663   5.990   5.024   7.039 -1.1164  2.2454  0.4501
   55MOL    H3620664   6.091   5.153   6.836 -0.1404 -1.4617  0.4797
   55MOL    H3720665   6.137   5.391   6.791 -2.3762 -0.1921 -0.1135
   55MOL    H3820666   6.018   5.631   6.843 -1.3466 -1.0370  0.1483
   55MOL    H3920667   6.069   5.771   6.937  0.6291 -0.3729 -0.6409
   55MOL    C4020668   5.931   5.625   7.043  0.1922  0.8586  0.5532
   55MOL    C4120669   5.798   5.670   6.984 -0.0582  0.0338 -0.0728
   55MOL    C4220670   5.779   5.799   6.929  0.1844  0.0933 -0.0137
   55MOL    C4320671   5.654   5.834   6.883 -0.5263 -0.0115 -0.1000
   55MOL    C4420672   5.547   5.746   6.868 -0.0147  0.8109  0.1024
   55MOL    C4520673   5.417   5.789   6.801  0.7157  0.4659  0.4950
   55MOL    C4620674   5.567   5.615   6.919 -0.2452 -0.6650 -0.1936
   55MOL    C4720675   5.688   5.585   6.983 -0.8032 -0.2576  0.4934
   55MOL    C4820676   5.963   5.684   7.183  0.9180  0.5110  0.1600
   55MOL    H4920677   5.929   5.516   7.047 -1.6368  0.8804  0.8468
   55MOL    H5020678   5.858   5.873   6.930 -1.8926  2.3329 -0.1931
   55MOL    H5120679   5.649   5.937   6.850  1.7637  1.6779  4.3291
   55MOL    H5220680   5.407   5.889   6.844  1.3595  0.7681 -0.0384
   55MOL    H5320681   5.424   5.778   6.693 -1.2972 -0.1859  0.4151
   55MOL    H5420682   5.336   5.723   6.830  0.5505  0.7056  0.5820
   55MOL    H5520683   5.489   5.540   6.923  0.4817 -1.3229  2.0199
   55MOL    H5620684   5.696   5.493   7.039  0.4166 -0.0169  0.7353
   55MOL    H5720685   5.938   5.790   7.176  2.3675  0.8081 -0.5342
   55MOL    H5820686   6.066   5.669   7.216  1.1470 -0.0924 -0.8211
   55MOL    C5920687   5.865   5.633   7.298 -0.5138  0.2971  0.3095
   55MOL    C6020688   5.808   5.755   7.367  0.3040 -0.7547  0.9781
   55MOL    C6120689   5.864   5.807   7.484 -0.1658 -0.4748 -0.4919
   55MOL    C6220690   5.827   5.934   7.536  0.3651  0.7223 -0.9426
   55MOL    C6320691   5.726   6.007   7.468 -0.7738  0.0177  0.5380
   55MOL    C6420692   5.692   6.141   7.532  0.4778  0.5527 -0.1044
   55MOL    C6520693   5.666   5.957   7.352  0.6667 -0.3077 -0.0372
   55MOL    C6620694   5.704   5.830   7.303  0.1159 -0.0827 -0.3459
   55MOL    C6720695   5.928   5.521   7.379 -0.1069 -0.4219  0.3505
   55MOL    H6820696   5.782   5.581   7.248 -2.0404  1.7772  1.2714
   55MOL    H6920697   5.946   5.756   7.532 -1.0967  0.2635  1.9151
   55MOL    H7020698   5.869   5.971   7.629 -0.2261  0.0955 -0.4230
   55MOL    H7120699   5.584   6.138   7.550  0.8256 -0.6881  1.9027
   55MOL    H7220700   5.749   6.165   7.622 -0.5174 -1.8564  1.2010
   55MOL    H7320701   5.722   6.220   7.463  1.3912 -1.4152 -1.9980
   55MOL    H7420702   5.592   6.016   7.300  1.2766  0.9510  0.5169
   55MOL    H7520703   5.658   5.792   7.212  0.7900  0.7239 -1.0313
   55MOL    H7620704   6.009   5.560   7.441 -0.1055 -1.9696  1.3551
   55MOL    H7720705   5.978   5.449   7.314 -1.4212 -1.6271  0.6627
   55MOL    C7820706   5.844   5.425   7.475  0.6327 -0.5791 -0.3457
   55MOL    C7920707   5.798   5.302   7.390 -0.2375 -0.0564  0.1525
   55MOL    C8020708   5.855   5.177   7.404  0.3565  0.1433  0.1235
   55MOL    C8120709   5.804   5.075   7.318 -0.0838  0.7094 -0.2164
   55MOL    C8220710   5.708   5.094   7.216 -0.1533 -0.1215 -0.5258
   55MOL    C8320711   5.665   4.969   7.132  0.7622  0.4561  0.3810
   55MOL    C8420712   5.654   5.214   7.208  0.6054  0.2200 -0.5241
   55MOL    C8520713   5.695   5.319   7.296 -0.2373  0.3340  0.5308
   55MOL    C8620714   5.740   5.500   7.566 -0.3187 -0.4639 -0.2843
   55MOL    H8720715   5.915   5.391   7.551 -0.9552 -0.4504  1.2252
   55MOL    H8820716   5.930   5.154   7.478  0.7447  0.6523 -0.1062
   55MOL    H8920717   5.827   4.971   7.332 -2.4960  0.3857  1.4085
   55MOL    H9020718   5.560   4.940   7.139  0.1187  1.5072 -3.8196
   55MOL    H9120719   5.683   5.002   7.030 -0.8344 -1.0734 -0.4095
   55MOL    H9220720   5.735   4.892   7.163 -0.1846 -0.0730  1.2351
   55MOL    H9320721   5.573   5.232   7.139 -1.4431 -1.2127  1.4493
   55MOL    H9420722   5.636   5.409   7.291 -0.7225  0.0645  1.3937
   55MOL    H9520723   5.663   5.542   7.501  0.6241 -0.3056 -1.3109
   55MOL    H9620724   5.796   5.578   7.616 -2.0158 -0.4942  1.7821
   55MOL    C9720725   5.681   5.426   7.690  0.1032  0.0100  0.4405
   55MOL    C9820726   5.782   5.358   7.782 -0.9662  0.8610  0.1878
   55MOL    C9920727   5.795   5.217   7.791  0.2125 -0.6620 -0.2164
   55MOL   C10020728   5.889   5.157   7.874  0.1847  0.0380  0.0765
   55MOL   C10120729   5.960   5.227   7.964 -0.3823  0.0237 -0.2891
   55MOL   C10220730   6.057   5.152   8.059 -0.1829  0.5551 -0.3140
   55MOL   C10320731   5.942   5.365   7.970  0.3894 -0.2183 -0.5258
   55MOL   C10420732   5.861   5.436   7.872 -0.3870 -0.2407 -0.5010
   55MOL   C10520733   5.563   5.344   7.645 -0.3142  0.4430  0.3856
   55MOL   H10620734   5.635   5.506   7.749 -2.0780  0.2325 -1.4980
   55MOL   H10720735   5.733   5.158   7.724 -0.8932 -1.1653  1.2173
   55MOL   H10820736   5.901   5.049   7.870 -1.0243 -0.1962  1.9754
   55MOL   H10920737   6.126   5.220   0.029 -1.4240 -0.1815  2.4824
   55MOL   H11020738   6.006   5.087   0.050  1.6247  0.8119  1.2538
   55MOL   H11120739   6.112   5.084   7.994 -0.0223  0.4500 -0.0680
   55MOL   H11220740   6.006   5.423   8.035  0.6220 -0.8121 -0.2320
   55MOL   H11320741   5.846   5.543   7.875 -0.9209 -0.3626  1.5808
   55MOL   H11420742   5.599   5.262   7.584  1.7777  2.0742 -0.6621
   55MOL   H11520743   5.497   5.400   7.579 -0.0075  1.1828  0.6932
   55MOL   C11620744   5.477   5.278   7.752 -0.5471  0.0976 -0.2415
   55MOL   C11720745   5.457   5.127   7.724  0.2848 -0.3846  0.4611
   55MOL   C11820746   5.436   5.069   7.593 -0.5673  0.0685 -0.3351
   55MOL   C11920747   5.404   4.931   7.578  0.1318 -0.6724  0.1520
   55MOL   C12020748   5.400   4.855   7.699  0.7291 -0.1522  0.4955
   55MOL   C12120749   5.343   4.713   7.686  0.7705  0.2488  0.1402
   55MOL   C12220750   5.424   4.912   7.823  0.1279  0.3264  0.3975
   55MOL   C12320751   5.462   5.042   7.836  0.2335 -0.6708 -0.6708
   55MOL   C12420752   5.354   5.364   7.769 -0.3356  0.0079  0.0932
   55MOL   H12520753   5.526   5.268   7.848 -2.5630  0.6123  0.8755
   55MOL   H12620754   5.436   5.129   7.503 -0.8625 -1.9215 -1.6685
   55MOL   H12720755   5.371   4.900   7.480 -1.5003  0.2633  0.3867
   55MOL   H12820756   5.240   4.724   7.653  0.8852  1.8779  0.3038
   55MOL   H12920757   5.397   4.652   7.613  0.2350 -0.7649  0.5815
   55MOL   H13020758   5.347   4.657   7.779  0.4289 -0.4474 -0.2593
   55MOL   H13120759   5.420   4.846   7.909 -1.4718 -0.8315 -0.5515
   55MOL   H13220760   5.482   5.088   7.931 -2.1314  0.1330 -0.5209
   55MOL   H13320761   5.279   5.295   7.806  2.0629 -2.4552  0.5637
   55MOL   H13420762   5.302   5.382   7.675 -1.6324  0.8688  0.9639
   55MOL   C13520763   5.351   5.483   7.870  0.0415  0.8233  0.2047
   55MOL   C13620764   5.416   5.437   8.004  0.0971  0.6735 -0.1225
   55MOL   C13720765   5.530   5.490   8.059  0.2223 -0.3809 -0.3823
   55MOL   C13820766   5.570   5.464   0.111  0.1260  0.2940  0.6021
   55MOL   C13920767   5.483   5.379   0.187  0.5016  0.5039  0.5228
   55MOL   C14020768   5.517   5.362   0.332 -0.2645 -0.2710 -0.0050
   55MOL   C14120769   5.370   5.319   0.133 -0.0946  0.6206 -0.3391
   55MOL   C14220770   5.335   5.349   0.001  0.0081  0.8163 -0.0528
   55MOL   C14320771   5.208   5.546   7.891  0.4389 -0.9905  0.2213
   55MOL   H14420772   5.414   5.561   7.828  0.2760  0.8234  0.5571
   55MOL   H14520773   5.583   5.561   7.998 -1.9748  1.5913 -0.0907
   55MOL   H14620774   5.641   5.527   0.163 -1.2843  1.1710  1.4704
   55MOL   H14720775   5.571   5.268   0.345  0.0290 -0.0847  0.1026
   55MOL   H14820776   5.587   5.437   0.368 -0.9022  1.0868 -1.5460
   55MOL   H14920777   5.429   5.354   0.397 -0.8674  1.7351 -0.5477
   55MOL   H15020778   5.300   5.263   0.194 -2.4107  1.8402 -1.8201
   55MOL   H15120779   5.241   5.308   8.050  0.0149  0.0442  0.9237
   55MOL   H15220780   5.146   5.486   7.958  0.1011  1.5315  2.2234
   55MOL   H15320781   5.159   5.552   7.793 -0.8642 -1.0325  0.8604
   55MOL   C15420782   5.213   5.686   7.959 -0.1130  0.8145  0.2110
   55MOL   C15520783   5.108   5.697   8.074  0.0869 -0.2672  0.4731
   55MOL   C15620784   5.150   5.680   0.130 -0.4488 -0.5732 -0.1508
   55MOL   C15720785   5.057   5.674   0.235 -0.1766 -0.1285 -0.4076
   55MOL   C15820786   4.924   5.717   0.207 -0.7373  0.0594 -0.1182
   55MOL   C15920787   4.827   5.724   0.321 -0.1926 -0.4581 -0.2857
   55MOL   C16020788   4.878   5.724   0.074  0.6891  0.4372  0.1580
   55MOL   C16120789   4.974   5.717   8.046  0.4052  0.1142 -0.2970
   55MOL   C16220790   5.205   5.795   7.853 -0.6593 -0.2024  0.0981
   55MOL   H16320791   5.307   5.697   8.014 -0.5808  0.2771  1.1370
   55MOL   H16420792   5.254   5.657   0.150 -0.0797  0.6224 -0.6535
   55MOL   H16520793   5.090   5.648   0.335 -0.6702 -0.3296 -0.2900
   55MOL   H16620794   4.839   5.823   0.365  0.6394 -0.3010 -0.8654
   55MOL   H16720795   4.723   5.697   0.302 -1.1897  2.6037  0.5780
   55MOL   H16820796   4.854   5.647   0.394 -1.9861  0.3274  1.2422
   55MOL   H16920797   4.772   5.742   0.060  0.3280 -2.9505 -2.2325
   55MOL   H17020798   4.937   5.730   7.945 -0.6786 -0.0103  0.0739
   55MOL   H17120799   5.191   5.885   7.913  1.0891  0.5002 -0.5047
   55MOL   H17220800   5.118   5.770   7.794 -0.2841 -0.7243 -0.2391
   55MOL   C17320801   5.323   5.824   7.758 -0.2809 -0.6855  0.0429
   55MOL   C17420802   5.459   5.844   7.830  0.6278 -0.3063  0.3437
   55MOL   C17520803   5.478   5.874   7.969  0.2774 -0.1531 -0.0176
   55MOL   C17620804   5.607   5.877   8.026  0.5312 -0.0076 -0.8712
   55MOL   C17720805   5.725   5.857   7.947 -0.0546  0.4930 -0.6434
   55MOL   C17820806   5.860   5.850   8.011  0.3234  0.4624  0.3594
   55MOL   C17920807   5.707   5.821   7.811  0.1462 -0.2354 -0.5945
   55MOL   C18020808   5.578   5.817   7.756  0.2509  0.1497 -0.2924
   55MOL   C18120809   5.292   5.947   7.665 -0.1839 -0.5044  0.5188
   55MOL   H18220810   5.335   5.739   7.690  1.3358 -1.3196  1.1014
   55MOL   H18320811   5.392   5.881   8.034 -0.8977  1.0828 -1.6767
   55MOL   H18420812   5.602   5.902   0.051 -1.5702 -0.5902 -0.7949
   55MOL   H18520813   5.861   5.875   0.037 -0.7250  0.4956  0.3605
   55MOL   H18620814   5.888   5.745   8.014  0.2448  0.4592  0.8515
   55MOL   H18720815   5.937   5.896   7.948  1.0522 -1.4514 -0.1907
   55MOL   H18820816   5.790   5.789   7.749  0.4746  1.3545 -1.0093
   55MOL   H18920817   5.569   5.786   7.653 -1.2365  0.7911 -0.3716
   55MOL   H19020818   5.387   5.976   7.619 -0.3695  0.9422  1.0141
   55MOL   H19120819   5.274   6.036   7.726  0.9114 -0.8862  1.4164
   55MOL   C19220820   5.181   5.921   7.553  0.4126 -0.1680 -0.0877
   55MOL   C19320821   5.208   5.790   7.483  0.2467  0.0895  0.2813
   55MOL   C19420822   5.336   5.760   7.427  0.4969 -0.3883 -0.4685
   55MOL   C19520823   5.375   5.632   7.384  0.2206 -0.0720 -0.3484
   55MOL   C19620824   5.280   5.532   7.381 -0.2829  0.0984  0.0804
   55MOL   C19720825   5.308   5.402   7.326  0.6419 -0.2680  0.1112
   55MOL   C19820826   5.152   5.556   7.434  0.7631 -0.4933  0.5532
   55MOL   C19920827   5.112   5.681   7.482 -0.1204  0.1444 -0.3357
   55MOL   C20020828   5.180   6.033   7.447  0.3612  0.1991 -0.5330
   55MOL   H20120829   5.082   5.907   7.594  0.5857 -0.1879  0.3250
   55MOL   H20220830   5.414   5.835   7.426  2.2095 -2.0698  1.7071
   55MOL   H20320831   5.475   5.612   7.348  0.2672 -2.5038  1.0110
   55MOL   H20420832   5.382   5.360   7.393 -1.4706 -2.3040  1.2285
   55MOL   H20520833   5.226   5.330   7.329  0.9091 -0.5813 -0.1252
   55MOL   H20620834   5.354   5.413   7.227 -2.3054  1.9780 -1.1088
   55MOL   H20720835   5.073   5.482   7.433 -1.1018  1.4784 -0.0842
   55MOL   H20820836   5.013   5.683   7.525 -0.4635 -1.3005 -1.0180
   55MOL   H20920837   5.163   6.005   7.344 -1.7830 -1.1806  0.1621
   55MOL   H21020838   5.285   6.059   7.456 -0.1657  2.1248  0.3708
   55MOL   C21120839   5.098   6.158   7.485 -0.4735 -0.2238  0.8795
   55MOL   C21220840   4.944   6.129   7.476 -0.0564  0.1986 -0.5307
   55MOL   C21320841   4.875   6.101   7.594 -0.0932  0.0519  0.9445
   55MOL   C21420842   4.735   6.062   7.591  0.1329 -0.0833 -0.5869
   55MOL   C21520843   4.676   6.049   7.469 -0.3122 -0.2178  0.1069
   55MOL   C21620844   4.532   6.005   7.456  0.2019 -0.1431  1.0432
   55MOL   C21720845   4.752   6.068   7.350 -0.3147  0.5697  0.0064
   55MOL   C21820846   4.883   6.126   7.355  1.2635  0.2291  0.1021
   55MOL   C21920847   5.143   6.283   7.406  0.3360  0.5405  0.3738
   55MOL   H22020848   5.126   6.163   7.591  1.3276 -1.6454  0.5082
   55MOL   H22120849   4.925   6.119   7.688  0.0018  0.2441  0.8570
   55MOL   H22220850   4.687   6.047   7.686 -1.8311 -0.6937 -1.6514
   55MOL   H22320851   4.509   6.011   7.349  1.1468 -2.4912  0.7005
   55MOL   H22420852   4.514   5.908   7.501 -0.5458 -0.8757 -0.7754
   55MOL   H22520853   4.471   6.089   7.492  0.7188  1.8874 -2.5781
   55MOL   H22620854   4.705   6.049   7.255  1.7416  0.4931 -1.0334
   55MOL   H22720855   4.936   6.145   7.263  0.1375 -0.8772 -0.7844
   55MOL   H22820856   5.078   6.370   7.421 -2.5017 -1.4563 -0.0072
   55MOL   H22920857   5.121   6.264   7.301  1.3778 -0.1642  0.2781
   55MOL   C23020858   5.293   6.339   7.425  0.3033  0.4326 -0.7455
   55MOL   C23120859   5.297   6.405   7.566  0.8821  0.8580 -0.2161
   55MOL   C23220860   5.239   6.531   7.582  0.0879 -0.7344 -0.0452
   55MOL   C23320861   5.253   6.595   7.706 -0.4597 -0.1974  0.7835
   55MOL   C23420862   5.307   6.526   7.816 -0.2183 -0.0416  0.5516
   55MOL   C23520863   5.302   6.581   7.951  0.1241 -0.2357  0.0040
   55MOL   C23620864   5.375   6.402   7.795  0.0747  0.0885  0.0210
   55MOL   C23720865   5.358   6.340   7.672  0.3719 -0.5439 -0.3746
   55MOL   C23820866   5.342   6.417   7.298 -0.2951 -0.6150  0.3867
   55MOL   H23920867   5.362   6.255   7.421 -3.5350 -2.8877 -1.6694
   55MOL   H24020868   5.202   6.581   7.493  2.5190 -1.0889 -1.3073
   55MOL   H24120869   5.219   6.697   7.720 -1.6203 -0.5410  0.5202
   55MOL   H24220870   5.245   6.521   8.021  0.3199 -0.5462 -0.1003
   55MOL   H24320871   5.401   6.598   7.993 -0.2299  0.0563  0.7166
   55MOL   H24420872   5.254   6.678   7.945  1.6322  0.3799 -3.6022
   55MOL   H24520873   5.435   6.359   7.873  0.3523  2.2006  0.9974
   55MOL   H24620874   5.412   6.247   7.661 -0.1110 -0.9198  0.4062
   55MOL   H24720875   5.253   6.461   7.253 -0.2902 -0.3944  0.5971
   55MOL   H24820876   5.374   6.340   7.228 -1.7447 -1.9923  1.2120
   55MOL   C24920877   5.443   6.533   7.324  0.0075 -0.6254  0.2270
   55MOL   C25020878   5.454   6.629   7.209 -0.7215 -0.0603 -0.0265
   55MOL   C25120879   5.442   6.772   7.220  0.0452 -0.4025 -0.4550
   55MOL   C25220880   5.448   6.855   7.103  0.0998 -0.2346 -0.6273
   55MOL   C25320881   5.477   6.790   6.983 -0.3528 -0.1961 -0.6469
   55MOL   C25420882   5.484   6.884   6.862  0.1365  1.4014  0.0436
   55MOL   C25520883   5.494   6.651   6.968 -0.3792  0.5285 -0.0227
   55MOL   C25620884   5.482   6.573   7.084  0.2915  0.3779  0.0112
   55MOL   C25720885   5.580   6.477   7.375 -0.0304 -0.3327 -0.4195
   55MOL   H25820886   5.393   6.597   7.397 -0.5166 -0.6501 -0.1069
   55MOL   H25920887   5.427   6.821   7.315  1.1369 -1.2425  0.1634
   55MOL   H26020888   5.442   6.962   7.109 -0.3710 -0.1689 -2.0689
   55MOL   H26120889   5.386   6.911   6.824  0.0016 -0.2317 -0.8211
   55MOL   H26220890   5.547   6.969   6.885  1.5787  0.7327 -1.3051
   55MOL   H26320891   5.539   6.841   6.777 -0.3496  2.3193 -0.7424
   55MOL   H26420892   5.507   6.593   6.878  1.1822 -1.4615  1.4688
   55MOL   H26520893   5.484   6.465   7.076 -2.2332  0.3884 -1.0451
   55MOL   H26620894   5.629   6.430   7.290  1.6498  0.4123  0.1017
   55MOL   H26720895   5.557   6.404   7.453  1.4492 -0.6304 -0.2287
   55MOL   C26820896   5.680   6.588   7.435  0.4602 -0.4519 -0.4366
   55MOL   C26920897   5.801   6.516   7.478  0.2586  0.2304  0.6192
   55MOL   C27020898   5.918   6.532   7.402  0.0338 -0.9216  0.3796
   55MOL   C27120899   6.039   6.477   7.439 -0.4995 -0.3195 -0.7196
   55MOL   C27220900   6.048   6.404   7.559  0.0667 -0.0184  0.2315
   55MOL   C27320901   6.179   6.343   7.600  0.3773  0.0511  0.0644
   55MOL   C27420902   5.931   6.392   7.641 -0.6311 -0.2417 -0.0006
   55MOL   C27520903   5.805   6.446   7.599 -0.4920 -0.3343 -0.0750
   55MOL   C27620904   5.610   6.657   7.564 -0.3376  0.7298 -1.0167
   55MOL   H27720905   5.696   6.661   7.355  1.3815  1.9994  1.9172
   55MOL   H27820906   5.910   6.578   7.305  1.0429 -0.7546  0.3708
   55MOL   H27920907   6.125   6.501   7.377  1.2343  0.8780  2.0420
   55MOL   H28020908   6.261   6.415   7.593  0.4418 -0.1589 -1.4414
   55MOL   H28120909   6.175   6.305   7.703  3.4876  0.5523  0.4154
   55MOL   H28220910   6.202   6.261   7.532 -1.5308 -1.1442  0.8199
   55MOL   H28320911   5.939   6.347   7.739  0.3475  0.0900  0.0806
   55MOL   H28420912   5.714   6.438   7.657 -0.2324  2.4738  0.8174
   55MOL   H28520913   5.557   6.579   7.619 -1.2398  2.2129  0.2508
   55MOL   H28620914   5.524   6.712   7.526 -1.8408 -0.3762  0.7487
   55MOL   C28720915   5.690   6.753   7.661 -0.1328 -0.3189  0.7711
   55MOL   C28820916   5.595   6.822   7.758  0.6076 -0.6114  0.2639
   55MOL   C28920917   5.490   6.902   7.707  0.0704  0.1807  0.0477
   55MOL   C29020918   5.389   6.955   7.792 -0.4298  0.9559 -0.0865
   55MOL   C29120919   5.399   6.939   7.926 -0.1642 -0.2106  0.2357
   55MOL   C29220920   5.304   6.992   8.028  0.1120  0.2736  0.1496
   55MOL   C29320921   5.495   6.849   7.976  0.4637 -1.2617  0.0548
   55MOL   C29420922   5.589   6.790   7.896 -0.6951 -0.5895  0.1203
   55MOL   C29520923   5.784   6.850   7.585 -0.1437  0.2583 -0.2789
   55MOL   H29620924   5.748   6.684   7.722  0.6825  1.3598  1.9572
   55MOL   H29720925   5.484   6.928   7.602 -0.6903  0.2868  0.1135
   55MOL   H29820926   5.305   7.014   7.757 -2.1731 -1.0283  0.6034
   55MOL   H29920927   5.218   6.926   8.014  0.0166  0.8871 -2.2687
   55MOL   H30020928   5.337   6.994   0.052 -1.0995 -3.1134  0.6777
   55MOL   H30120929   5.281   7.094   7.997 -0.4121  0.6366  1.6700
   55MOL   H30220930   5.485   6.819   8.079 -0.9513  1.2977  0.6975
   55MOL   H30320931   5.665   6.725   7.936 -1.6151 -0.0807  2.7706
   55MOL   H30420932   5.728   6.922   7.525 -0.1839  0.0313 -0.5176
   55MOL   H30520933   5.837   6.801   7.504 -0.2483 -0.7891  0.2816
   55MOL   C30620934   5.894   6.924   7.673  0.4799  0.8386  0.1443
   55MOL   C30720935   5.845   7.057   7.737 -0.1004 -0.4765  0.0324
   55MOL   C30820936   5.837   7.176   7.653  0.5917  1.0332  0.1491
   55MOL   C30920937   5.781   7.298   7.706  0.0872  0.1664  0.5045
   55MOL   C31020938   5.742   7.306   7.842 -0.3737  0.1490 -0.0058
   55MOL   C31120939   5.683   7.436   7.895  0.3702  0.4595  0.1825
   55MOL   C31220940   5.748   7.189   7.919  0.4726  0.0985 -0.4980
   55MOL   C31320941   5.793   7.063   7.865  0.4499 -0.1879 -0.2994
   55MOL   C31420942   6.036   6.940   7.609  0.5595  0.5441 -0.3982
   55MOL   H31520943   5.915   6.863   7.761 -2.8117  2.3314  2.0636
   55MOL   H31620944   5.864   7.182   7.549 -2.7534  0.4842 -0.7825
   55MOL   H31720945   5.774   7.382   7.639 -3.7043  0.3833  1.0539
   55MOL   H31820946   5.596   7.454   7.832  0.4765 -0.8464 -0.3625
   55MOL   H31920947   5.657   7.436   8.000  0.5829 -1.4659  0.2561
   55MOL   H32020948   5.758   7.513   7.876 -0.4072  0.8553 -1.3758
   55MOL   H32120949   5.718   7.192   8.023  0.4808  1.4489 -0.5250
   55MOL   H32220950   5.788   6.977   7.930  1.6962 -0.0178  0.0447
   55MOL   H32320951   6.076   7.032   7.653  2.0710 -0.3777  0.2060
   55MOL   H32420952   6.031   6.973   7.505 -1.7858  2.1913  0.2038
   55MOL   C32520953   6.145   6.832   7.628  0.1647 -0.2503 -0.0012
   55MOL   C32620954   6.182   6.803   7.773 -0.0368  0.2704 -0.4799
   55MOL   C32720955   6.178   6.670   7.817  0.2787  0.2049 -0.0641
   55MOL   C32820956   6.214   6.648   7.952 -0.5648 -0.4782 -0.0585
   55MOL   C32920957   6.256   6.748   8.038 -0.3743 -0.3000  0.0490
   55MOL   C33020958   6.289   6.709   0.101  0.1319 -0.3842 -0.2060
   55MOL   C33120959   6.261   6.882   7.995 -0.2337  0.3642  0.0845
   55MOL   C33220960   6.231   6.901   7.860 -0.0896  0.7801 -0.1201
   55MOL   C33320961   6.267   6.868   7.546 -0.4804 -0.2444 -0.2616
   55MOL   H33420962   6.101   6.742   7.584  2.3532 -0.9250 -0.8626
   55MOL   H33520963   6.148   6.590   7.751  0.9715 -1.0202  1.0796
   55MOL   H33620964   6.206   6.549   7.995  0.9040 -0.3497  0.5580
   55MOL   H33720965   6.396   6.712   0.120 -0.1317  0.3072  1.2542
   55MOL   H33820966   6.250   6.792   0.159  1.3883  1.9704 -2.6063
   55MOL   H33920967   6.248   6.612   0.128  0.1282 -0.3150  0.0346
   55MOL   H34020968   6.296   6.967   8.052 -0.3129  1.2872 -1.2183
   55MOL   H34120969   6.245   6.998   7.814 -1.8998  0.9222 -0.4152
   55MOL   H34220970   6.349   6.825   7.605 -2.1759 -1.4424  1.2740
   55MOL   H34320971   6.273   6.974   7.566 -0.6115  0.0796 -1.8648
   55MOL   C34420972   6.274   6.844   7.403 -0.3415  0.2834  1.0219
   55MOL   C34520973   6.335   6.709   7.362  0.4663 -0.6720  0.4123
   55MOL   C34620974   6.396   6.620   7.451 -0.2143  0.5917 -0.7784
   55MOL   C34720975   6.448   6.494   7.410 -0.2018 -0.6491 -0.1397
   55MOL   C34820976   6.438   6.453   7.276  0.0891 -0.9897  0.1584
   55MOL   C34920977   6.487   6.322   7.228 -0.4913 -0.2659 -0.3569
   55MOL   C35020978   6.367   6.534   7.193 -0.1604  0.4936  0.6395
   55MOL   C35120979   6.312   6.660   7.230 -0.3827  0.6934  0.1276
   55MOL   C35220980   6.358   6.948   7.324  0.0763 -0.1755  0.2203
   55MOL   H35320981   6.173   6.847   7.361  0.9188 -0.1041 -2.1640
   55MOL   H35420982   6.413   6.642   7.555 -1.0077 -0.7855 -0.3446
   55MOL   H35520983   6.489   6.423   7.480 -1.2600 -0.6726  0.4799
   55MOL   H35620984   6.401   6.264   7.195 -0.9722 -1.3666  2.6964
   55MOL   H35720985   6.562   6.325   7.148  0.1926  0.6432  0.3066
   55MOL   H35820986   6.534   6.271   7.312 -0.3596 -0.7062 -0.6981
   55MOL   H35920987   6.351   6.501   7.091 -0.5325 -1.5087  1.3283
   55MOL   H36020988   6.259   6.714   7.153 -0.6757 -0.1983 -0.2978
   55MOL   H36120989   6.408   6.898   7.241 -2.5867 -0.0060 -1.5481
   55MOL   H36220990   6.444   6.976   7.386  1.1721  0.6739 -1.6296
   55MOL   C36320991   6.282   7.078   7.285 -0.3590  0.1167  0.3463
   55MOL   C36420992   6.147   7.045   7.214 -0.2718  0.1133  0.9934
   55MOL   C36520993   6.145   6.971   7.094 -0.1675  0.3489  0.2404
   55MOL   C36620994   6.021   6.917   7.045  0.2197 -0.8627 -0.2690
   55MOL   C36720995   5.904   6.930   7.124 -0.4848 -0.1842 -0.3514
   55MOL   C36820996   5.782   6.855   7.079 -0.9776 -0.1516  0.1462
   55MOL   C36920997   5.902   7.019   7.237 -0.2663  0.4138  1.1575
   55MOL   C37020998   6.026   7.080   7.275  0.8076  0.6533  0.5373
   55MOL   C37120999   6.371   7.153   7.182 -0.2521  0.1525  0.0485
   55MOL   H37221000   6.263   7.133   7.377 -1.7492 -1.8221  1.2409
   55MOL   H37321001   6.235   6.955   7.036  0.9547 -0.2090  2.0646
   55MOL   H37421002   6.029   6.844   6.966  1.7468  1.6305 -2.5196
   55MOL   H37521003   5.700   6.867   7.150 -1.4668 -0.0381 -0.4252
   55MOL   H37621004   5.735   6.898   6.990 -0.1628  1.8357  0.6493
   55MOL   H37721005   5.801   6.750   7.058  0.1869  0.0491  0.1942
   55MOL   H37821006   5.813   7.031   7.297 -1.0790  0.8061 -0.0915
   55MOL   H37921007   6.031   7.148   7.359 -0.0773  0.2389  0.9329
   55MOL   H38021008   6.309   7.230   7.137 -0.9637 -0.3558  0.1591
   55MOL   H38121009   6.411   7.081   7.110 -0.1514 -0.4332  0.6921
   55MOL   H38221010   6.450   7.206   7.236  2.2460 -2.9196 -0.4116
   56MOL     C121011   3.529   1.322   4.553  0.6275 -0.3112  0.1567
   56MOL     C221012   3.563   1.329   4.703  0.1648  1.3182  0.1396
   56MOL     C321013   3.480   1.270   4.806  0.0846 -0.7800 -0.1216
   56MOL     C421014   3.515   1.289   4.944  0.1258 -0.1699  0.4236
   56MOL     C521015   3.637   1.348   4.977  0.3344  0.3170  0.6959
   56MOL     C621016   3.677   1.371   5.118 -0.3322  0.3119 -0.1846
   56MOL     C721017   3.721   1.402   4.870 -0.0728  0.0636 -0.6206
   56MOL     C821018   3.685   1.394   4.734  0.1511 -0.6648 -0.4847
   56MOL     C921019   3.538   1.454   4.475 -0.0022 -0.8467  0.2870
   56MOL    H1021020   3.593   1.242   4.517  0.6026 -0.5537  0.6607
   56MOL    H1121021   3.384   1.223   4.791  1.0336 -3.2247  1.2670
   56MOL    H1221022   3.445   1.254   5.018  1.0365 -0.4014  1.1924
   56MOL    H1321023   3.639   1.463   5.162  1.4863  0.7536  0.5451
   56MOL    H1421024   3.655   1.297   5.195 -0.9780 -0.9882 -1.6027
   56MOL    H1521025   3.785   1.388   5.122 -0.4100  0.8652 -0.4544
   56MOL    H1621026   3.806   1.461   4.901  0.3181 -0.4056 -0.7945
   56MOL    H1721027   3.745   1.435   4.654 -1.1997 -0.6840 -1.5179
   56MOL    H1821028   3.522   1.423   4.372  0.7861  1.0596 -0.4413
   56MOL    H1921029   3.633   1.507   4.471  0.6804 -2.1646 -2.1142
   56MOL    H2021030   3.433   1.277   4.530 -0.2459  0.0179  2.9437
   56MOL    C2121031   3.442   1.559   4.536  0.4660 -1.4307  0.0384
   56MOL    C2221032   3.301   1.507   4.584  0.0173  0.3500 -0.2642
   56MOL    C2321033   3.258   1.540   4.716 -0.0011  0.7729 -0.5903
   56MOL    C2421034   3.141   1.486   4.759 -0.3874  0.4140 -0.9613
   56MOL    C2521035   3.055   1.414   4.672 -0.6476  0.5058 -0.2693
   56MOL    C2621036   2.926   1.351   4.724  0.0630  0.5002  0.1788
   56MOL    C2721037   3.095   1.389   4.540  0.4453  0.0582 -0.0880
   56MOL    C2821038   3.220   1.435   4.496 -0.1056 -0.3600  0.5701
   56MOL    C2921039   3.425   1.691   4.457 -0.0642 -0.2119  0.2047
   56MOL    H3021040   3.493   1.586   4.628  1.8933  0.2027 -1.1987
   56MOL    H3121041   3.320   1.596   4.784  0.7133  0.0689 -0.6468
   56MOL    H3221042   3.113   1.504   4.861  0.3249 -1.4970 -0.4196
   56MOL    H3321043   2.855   1.348   4.642  0.4227  1.1518 -0.1620
   56MOL    H3421044   2.950   1.252   4.763  0.2433  0.9893  1.3226
   56MOL    H3521045   2.898   1.415   4.808  0.1381  2.5715 -1.3267
   56MOL    H3621046   3.041   1.336   4.463 -2.2816  0.9600  1.1417
   56MOL    H3721047   3.256   1.432   4.395  1.0678 -0.6667  0.9908
   56MOL    H3821048   3.347   1.755   4.499 -0.9662 -1.3405  0.2801
   56MOL    H3921049   3.399   1.669   4.354  0.5898  0.5909 -0.1453
   56MOL    C4021050   3.551   1.777   4.460 -0.0611 -0.1210  0.5804
   56MOL    C4121051   3.613   1.791   4.603 -0.8240 -0.6896 -0.0255
   56MOL    C4221052   3.733   1.731   4.639 -0.5744  0.2252 -0.1694
   56MOL    C4321053   3.778   1.744   4.774 -0.6299 -0.2982 -0.0389
   56MOL    C4421054   3.698   1.812   4.870  0.3273 -0.0872 -0.2738
   56MOL    C4521055   3.756   1.816   5.003  0.9026  0.2936  0.2353
   56MOL    C4621056   3.574   1.864   4.841  0.1148 -0.4668 -0.2134
   56MOL    C4721057   3.536   1.854   4.703 -0.6547  0.1105 -0.2246
   56MOL    C4821058   3.524   1.910   4.389 -0.6461 -0.1226  0.1145
   56MOL    H4921059   3.627   1.734   4.393 -0.7076  0.8829 -0.8257
   56MOL    H5021060   3.797   1.683   4.566  0.4119 -0.6082  1.2214
   56MOL    H5121061   3.878   1.709   4.794  0.3465  1.5094 -1.5856
   56MOL    H5221062   3.845   1.879   5.004  0.8609  0.3608 -0.0987
   56MOL    H5321063   3.675   1.849   5.067 -0.1566 -0.4721 -0.6969
   56MOL    H5421064   3.776   1.713   5.031  0.0739  0.1516  0.3211
   56MOL    H5521065   3.510   1.915   4.912 -0.0124  0.6044 -1.0844
   56MOL    H5621066   3.449   1.902   4.661  1.4720  3.9359 -0.5638
   56MOL    H5721067   3.428   1.943   4.429 -0.9870 -0.5456 -0.3484
   56MOL    H5821068   3.510   1.894   4.282 -0.1271  1.3293 -0.1876
   56MOL    C5921069   3.622   2.029   4.400 -0.1892 -0.1342  0.4598
   56MOL    C6021070   3.547   2.147   4.348 -0.2263  0.1459 -0.0634
   56MOL    C6121071   3.546   2.176   4.207 -0.1942 -0.5923  0.1228
   56MOL    C6221072   3.455   2.271   4.151 -0.5268 -0.8783  0.6685
   56MOL    C6321073   3.358   2.321   4.241  0.3971 -0.2230  0.4553
   56MOL    C6421074   3.248   2.410   4.192 -0.0181  0.0262 -0.4715
   56MOL    C6521075   3.356   2.291   4.379  0.0925  0.1948  0.5191
   56MOL    C6621076   3.448   2.202   4.428  0.2491  0.1569 -0.3301
   56MOL    C6721077   3.758   1.997   4.334  0.9093 -0.1222  0.1867
   56MOL    H6821078   3.640   2.050   4.506  0.0593 -1.8071  0.7678
   56MOL    H6921079   3.609   2.117   4.142  1.4265 -0.5425  1.6153
   56MOL    H7021080   3.460   2.304   4.049 -1.8955  1.8009  1.4305
   56MOL    H7121081   3.183   2.352   4.127 -0.8634  0.7409 -0.2709
   56MOL    H7221082   3.193   2.449   4.277 -0.2486  2.2545 -1.5884
   56MOL    H7321083   3.290   2.494   4.136  0.2432 -0.7745 -1.4911
   56MOL    H7421084   3.292   2.353   4.440 -0.7764  0.0114 -0.1908
   56MOL    H7521085   3.446   2.179   4.534 -1.5062  0.9450 -0.1710
   56MOL    H7621086   3.750   1.950   4.236  0.2265 -2.9235  1.5336
   56MOL    H7721087   3.803   1.913   4.387  1.8287  1.0010  1.2041
   56MOL    C7821088   3.869   2.106   4.326 -0.3386 -0.7640  0.2089
   56MOL    C7921089   3.866   2.192   4.192 -0.5380 -0.0406  0.5908
   56MOL    C8021090   3.829   2.327   4.181 -0.4016  0.1139  0.0704
   56MOL    C8121091   3.821   2.390   4.057  0.1460  0.3489  0.0729
   56MOL    C8221092   3.853   2.323   3.942  0.0419 -0.4061  0.6364
   56MOL    C8321093   3.849   2.386   3.801 -0.1053 -0.0297 -0.3048
   56MOL    C8421094   3.897   2.187   3.948  0.1723 -0.0609  0.3468
   56MOL    C8521095   3.900   2.126   4.072  0.2173  0.2288  0.4616
   56MOL    C8621096   4.012   2.067   4.358 -0.9037  0.4840  0.2839
   56MOL    H8721097   3.855   2.186   4.398  2.0847 -1.0996  1.1045
   56MOL    H8821098   3.792   2.375   4.270 -2.3385  0.3460 -0.8257
   56MOL    H8921099   3.774   2.487   4.062  2.5676  1.6297 -1.4252
   56MOL    H9021100   3.748   2.383   3.760  0.0061  0.1225 -0.5883
   56MOL    H9121101   3.901   2.480   3.783  1.7000 -0.6293  1.6395
   56MOL    H9221102   3.912   2.325   3.737  0.4689 -2.1097  2.1670
   56MOL    H9321103   3.932   2.138   3.859  0.0342 -0.3790  0.4655
   56MOL    H9421104   3.932   2.023   4.066 -0.6053  0.0353 -0.7585
   56MOL    H9521105   4.076   2.153   4.340 -0.9898  0.1509 -1.6636
   56MOL    H9621106   4.038   1.988   4.287 -2.0753  2.5635 -2.5221
   56MOL    C9721107   4.026   2.006   4.503  0.2778 -0.3824 -0.1473
   56MOL    C9821108   3.982   2.109   4.621 -1.1149 -0.5864  0.3146
   56MOL    C9921109   4.010   2.247   4.610  0.2181  0.3740 -0.0050
   56MOL   C10021110   3.973   2.334   4.712  0.4097  0.0109  0.1156
   56MOL   C10121111   3.904   2.284   4.821  0.7952 -0.4430 -0.6278
   56MOL   C10221112   3.867   2.374   4.933 -0.1058 -0.9133 -0.3000
   56MOL   C10321113   3.889   2.141   4.836  0.3810  0.3660  0.0357
   56MOL   C10421114   3.926   2.055   4.730 -0.2693 -0.0365 -0.0179
   56MOL   C10521115   4.177   1.958   4.526 -0.3779  0.2519 -0.3349
   56MOL   H10621116   3.956   1.924   4.518  1.8723 -2.1645 -2.1383
   56MOL   H10721117   4.052   2.289   4.521  0.1037  0.9133  0.1951
   56MOL   H10821118   4.000   2.437   4.696  2.9212 -0.9126 -1.9197
   56MOL   H10921119   3.834   2.310   5.015  1.7182  0.4118  1.5360
   56MOL   H11021120   3.954   2.430   4.969 -0.1602  0.0632 -1.6778
   56MOL   H11121121   3.785   2.438   4.904  1.0341 -0.3999 -2.5413
   56MOL   H11221122   3.858   2.097   4.930 -0.5861  0.6360 -0.1565
   56MOL   H11321123   3.894   1.952   4.733 -2.2048  0.5424  0.1690
   56MOL   H11421124   4.192   1.938   4.632  1.4736 -1.7957 -0.9293
   56MOL   H11521125   4.247   2.030   4.483 -0.1487  1.3849  1.8447
   56MOL   C11621126   4.201   1.824   4.449 -0.5814 -0.0537 -0.6125
   56MOL   C11721127   4.154   1.693   4.520 -0.1743  0.9600 -0.7438
   56MOL   C11821128   4.186   1.684   4.662 -0.1606 -0.0216  0.2396
   56MOL   C11921129   4.150   1.569   4.736 -0.4650 -0.3882  0.5350
   56MOL   C12021130   4.093   1.457   4.671  0.1851  0.3307 -0.1420
   56MOL   C12121131   4.059   1.333   4.741 -0.0353 -0.5211 -0.3161
   56MOL   C12221132   4.043   1.478   4.543  0.2000 -0.4049  0.0674
   56MOL   C12321133   4.081   1.587   4.464 -0.5623  0.1133  0.1601
   56MOL   C12421134   4.351   1.803   4.418  0.3854 -0.6372 -0.0848
   56MOL   H12521135   4.151   1.813   4.353 -0.0942 -3.1244 -0.5804
   56MOL   H12621136   4.241   1.758   4.720  1.9773 -0.1028 -1.6033
   56MOL   H12721137   4.165   1.561   4.843 -2.0472 -4.2051  0.5428
   56MOL   H12821138   4.042   1.337   4.848  1.7015  0.6962 -0.0597
   56MOL   H12921139   3.978   1.281   4.689 -0.9488  1.6909 -1.1765
   56MOL   H13021140   4.142   1.262   4.737  1.8374  1.2061  4.3292
   56MOL   H13121141   3.989   1.394   4.501 -0.4677  0.0707 -0.0439
   56MOL   H13221142   4.060   1.583   4.358  0.5823  0.3566 -0.0813
   56MOL   H13321143   4.356   1.706   4.368  3.0530 -0.4518 -0.2672
   56MOL   H13421144   4.400   1.788   4.514  2.6803  0.3577 -1.0611
   56MOL   C13521145   4.413   1.920   4.330 -0.3728 -0.1555  0.1558
   56MOL   C13621146   4.350   1.920   4.191  0.1327  0.1667 -0.4212
   56MOL   C13721147   4.275   2.032   4.143  0.2788 -0.2410  0.1501
   56MOL   C13821148   4.214   2.038   4.015 -0.1269  0.0593 -0.1850
   56MOL   C13921149   4.231   1.926   3.934 -0.9761  0.7143 -0.0193
   56MOL   C14021150   4.172   1.914   3.791 -0.2505 -0.4392 -0.5381
   56MOL   C14121151   4.303   1.811   3.985 -0.2040 -0.1893  0.6988
   56MOL   C14221152   4.368   1.808   4.107 -0.7402 -0.2447 -0.6164
   56MOL   C14321153   4.565   1.888   4.318  0.8909 -0.2696  0.6552
   56MOL   H14421154   4.410   2.020   4.374 -1.1083  0.8582 -2.1213
   56MOL   H14521155   4.285   2.125   4.197 -1.4026  0.2762 -0.4007
   56MOL   H14621156   4.168   2.128   3.977 -1.3697 -0.4236  0.1545
   56MOL   H14721157   4.247   1.911   3.712  2.4251  1.1097  1.8651
   56MOL   H14821158   4.131   1.813   3.794 -1.7537  0.1665 -0.4191
   56MOL   H14921159   4.091   1.982   3.764 -1.6649 -0.9755  2.1746
   56MOL   H15021160   4.318   1.727   3.919 -1.7210  1.4250 -1.8076
   56MOL   H15121161   4.419   1.719   4.142 -1.1561 -1.0463 -2.0391
   56MOL   H15221162   4.590   1.939   4.225  0.4923 -0.4648  0.4352
   56MOL   H15321163   4.576   1.781   4.302 -2.6608 -0.6271  0.0989
   56MOL   C15421164   4.654   1.935   4.436 -0.4290  0.2361 -0.1647
   56MOL   C15521165   4.718   2.068   4.398  0.1264 -0.7208 -0.1794
   56MOL   C15621166   4.692   2.181   4.472  0.5838  0.3159 -0.1117
   56MOL   C15721167   4.753   2.297   4.442  0.3487 -0.4984 -0.3226
   56MOL   C15821168   4.813   2.315   4.318 -0.5445  0.0600 -0.9541
   56MOL   C15921169   4.869   2.449   4.284 -0.2320 -0.4619 -0.1073
   56MOL   C16021170   4.843   2.200   4.241  0.3319 -0.2667  0.4630
   56MOL   C16121171   4.799   2.076   4.281  0.2154 -0.0932 -0.5864
   56MOL   C16221172   4.766   1.837   4.466  0.7349  0.5786 -0.5760
   56MOL   H16321173   4.585   1.952   4.519 -1.0449 -0.4264 -0.5358
   56MOL   H16421174   4.636   2.178   4.564  1.8347 -0.1116  0.6458
   56MOL   H16521175   4.743   2.376   4.515 -2.3370  1.6331 -2.8849
   56MOL   H16621176   4.948   2.437   4.209 -1.4978 -1.4230 -1.2989
   56MOL   H16721177   4.798   2.525   4.253  1.1159  0.6853 -0.4760
   56MOL   H16821178   4.904   2.480   4.383 -1.6262 -0.9961  0.5681
   56MOL   H16921179   4.904   2.206   4.152 -3.0278 -0.2905 -1.9875
   56MOL   H17021180   4.830   1.989   4.226  3.5625  1.2262 -0.8848
   56MOL   H17121181   4.853   1.883   4.513  0.3614 -1.9400  2.7485
   56MOL   H17221182   4.800   1.803   4.368  1.0293  1.5552 -0.8237
   56MOL   C17321183   4.709   1.715   4.554  0.1779  0.3090 -0.4728
   56MOL   C17421184   4.691   1.755   4.700 -0.4065 -0.4034  0.2752
   56MOL   C17521185   4.800   1.824   4.770  0.2744 -0.1709 -0.6359
   56MOL   C17621186   4.794   1.843   4.904  0.7029 -0.6679 -0.8743
   56MOL   C17721187   4.678   1.793   4.976  0.4386 -0.2685 -0.0580
   56MOL   C17821188   4.669   1.803   5.129 -0.1258  0.4605 -0.4547
   56MOL   C17921189   4.574   1.731   4.905  0.1970 -0.1482 -0.5947
   56MOL   C18021190   4.576   1.715   4.768 -0.4858 -0.0961 -0.2244
   56MOL   C18121191   4.794   1.585   4.540 -0.1713 -0.2903 -0.1853
   56MOL   H18221192   4.609   1.686   4.520 -0.6494  1.2828  1.0669
   56MOL   H18321193   4.891   1.850   4.719 -0.5979 -1.2600 -2.8165
   56MOL   H18421194   4.875   1.890   4.957  0.4336 -0.5093 -0.6068
   56MOL   H18521195   4.566   1.808   5.164  0.7378  2.9532  2.0042
   56MOL   H18621196   4.733   1.734   5.183 -0.8243 -0.9142 -1.3640
   56MOL   H18721197   4.724   1.896   5.147  2.6441 -1.0600 -0.7182
   56MOL   H18821198   4.482   1.703   4.955 -0.1080  1.0325 -0.4825
   56MOL   H18921199   4.494   1.677   4.708 -0.6385  0.7519 -0.5642
   56MOL   H19021200   4.747   1.511   4.606 -1.8054  1.5377  0.7705
   56MOL   H19121201   4.892   1.606   4.581  0.4348  4.0058 -3.4867
   56MOL   C19221202   4.807   1.527   4.401  0.1929 -0.3745  0.6945
   56MOL   C19321203   4.679   1.448   4.355  0.8397  0.2804 -0.3869
   56MOL   C19421204   4.630   1.468   4.227  0.2705  0.8729  0.4101
   56MOL   C19521205   4.533   1.382   4.167  0.7401 -0.0910  0.9799
   56MOL   C19621206   4.481   1.274   4.242 -0.5529  0.2248 -0.1162
   56MOL   C19721207   4.388   1.170   4.173  0.2750  0.1791 -0.3219
   56MOL   C19821208   4.526   1.263   4.377 -0.5984  0.1800 -0.7430
   56MOL   C19921209   4.615   1.354   4.439  0.3557 -0.2973  0.1040
   56MOL   C20021210   4.937   1.427   4.388 -0.3441  0.3525 -1.4949
   56MOL   H20121211   4.828   1.606   4.328  0.7691 -0.1415  1.1070
   56MOL   H20221212   4.654   1.558   4.172  0.8755  1.3823  1.5057
   56MOL   H20321213   4.501   1.393   4.065  1.3406  5.0934  1.1873
   56MOL   H20421214   4.384   1.070   4.216  0.5103 -0.0053 -0.7249
   56MOL   H20521215   4.283   1.200   4.183 -0.1062 -0.9252 -0.8971
   56MOL   H20621216   4.405   1.169   4.065 -1.1862  0.9544 -0.5767
   56MOL   H20721217   4.501   1.184   4.446 -1.1819  0.9347 -0.0850
   56MOL   H20821218   4.646   1.333   4.540  0.2896  1.1998  0.4462
   56MOL   H20921219   4.919   1.369   4.297  0.1223 -2.1440 -0.0517
   56MOL   H21021220   4.941   1.351   4.466  2.3469  0.8996 -1.0770
   56MOL   C21121221   5.078   1.497   4.401 -0.2506 -0.5048  0.0515
   56MOL   C21221222   5.091   1.619   4.314 -0.3115 -0.1052  0.2584
   56MOL   C21321223   5.080   1.600   4.175  0.8138 -0.5262  0.2756
   56MOL   C21421224   5.078   1.715   4.096  0.6248 -0.7102 -0.6187
   56MOL   C21521225   5.094   1.851   4.146  0.2528  0.9448 -0.3215
   56MOL   C21621226   5.100   1.972   4.061 -0.8462 -0.5445  0.5496
   56MOL   C21721227   5.109   1.863   4.287  0.4613 -0.0881  0.0858
   56MOL   C21821228   5.105   1.748   4.366  0.4710  0.0094  0.1765
   56MOL   C21921229   5.189   1.395   4.374 -0.5366 -0.2620 -1.1253
   56MOL   H22021230   5.088   1.522   4.506  1.6006 -0.8285 -0.0219
   56MOL   H22121231   5.061   1.505   4.128  0.0137  0.9758 -2.5022
   56MOL   H22221232   5.076   1.716   3.988 -1.3319  3.2143 -0.6237
   56MOL   H22321233   5.183   2.037   4.089 -0.3993 -1.1941  0.7339
   56MOL   H22421234   5.113   1.946   3.956  0.8405  1.8156  0.1276
   56MOL   H22521235   5.005   2.015   4.091 -1.4444 -1.1033 -0.5067
   56MOL   H22621236   5.126   1.963   4.325  2.0653 -0.5598  0.6579
   56MOL   H22721237   5.123   1.757   4.473  0.1444 -0.1733  0.2452
   56MOL   H22821238   5.160   1.364   4.274 -1.3038  0.4315 -1.1235
   56MOL   H22921239   5.173   1.306   4.435  0.7909  0.4097  0.2424
   56MOL   C23021240   5.337   1.447   4.366 -0.1755  0.4793 -0.3369
   56MOL   C23121241   5.414   1.352   4.272 -0.0053 -0.6188 -0.7266
   56MOL   C23221242   5.398   1.371   4.136 -0.2349  0.8222 -0.6228
   56MOL   C23321243   5.449   1.272   4.045  0.2652  0.6000 -0.3960
   56MOL   C23421244   5.516   1.156   4.093  0.2971  0.1908  0.2137
   56MOL   C23521245   5.571   1.050   3.996  0.1907 -0.6314 -0.1244
   56MOL   C23621246   5.555   1.150   4.232 -0.0321  0.3902 -0.0786
   56MOL   C23721247   5.497   1.244   4.322  0.6448  0.7804  0.6829
   56MOL   C23821248   5.388   1.450   4.511  0.2387  0.1857  0.0329
   56MOL   H23921249   5.344   1.548   4.326 -2.5225  0.6218 -0.4288
   56MOL   H24021250   5.342   1.452   4.092 -1.4130  1.1110  1.3239
   56MOL   H24121251   5.449   1.297   3.940  0.5911  2.2774 -0.0130
   56MOL   H24221252   5.673   1.072   3.964 -0.2904  0.3104 -1.0461
   56MOL   H24321253   5.568   0.949   4.038 -0.3997 -1.5145 -2.2237
   56MOL   H24421254   5.508   1.038   3.908 -0.6280 -0.7724  0.4784
   56MOL   H24521255   5.623   1.073   4.265  0.6519  1.0289  0.0197
   56MOL   H24621256   5.515   1.226   4.426  0.8481 -0.7946  0.3827
   56MOL   H24721257   5.367   1.353   4.557  3.1106 -0.3070  0.3999
   56MOL   H24821258   5.323   1.524   4.558 -0.1741  0.3840 -0.8455
   56MOL   C24921259   5.530   1.496   4.535  0.3783  0.4416  0.0648
   56MOL   C25021260   5.588   1.417   4.652  0.1043 -0.2850 -0.2346
   56MOL   C25121261   5.549   1.437   4.787 -0.5124  0.6872 -0.5025
   56MOL   C25221262   5.612   1.365   4.892  0.3623 -0.0212 -0.3149
   56MOL   C25321263   5.722   1.282   4.860  0.7928  0.7326  0.7111
   56MOL   C25421264   5.795   1.197   4.966 -0.5196 -0.2056 -0.4272
   56MOL   C25521265   5.771   1.268   4.729  0.5277 -1.3397 -0.3243
   56MOL   C25621266   5.698   1.333   4.626 -0.1317  0.2925 -0.3972
   56MOL   C25721267   5.550   1.648   4.558 -0.9019  0.0819 -0.0152
   56MOL   H25821268   5.589   1.469   4.448  0.4974  0.8281  0.0240
   56MOL   H25921269   5.477   1.514   4.812 -0.2887  0.3792  1.1382
   56MOL   H26021270   5.581   1.375   4.995 -1.6418  0.3759 -0.9320
   56MOL   H26121271   5.893   1.162   4.933  0.0830 -0.0039  1.1083
   56MOL   H26221272   5.808   1.250   5.061 -0.4352 -1.3880  0.2343
   56MOL   H26321273   5.737   1.108   4.987  0.2533 -0.4582  0.6860
   56MOL   H26421274   5.849   1.201   4.695 -1.0897 -2.4955 -1.8857
   56MOL   H26521275   5.744   1.318   4.530  1.5613  0.7998  0.3049
   56MOL   H26621276   5.514   1.670   4.658 -0.1377 -2.0849  0.7651
   56MOL   H26721277   5.491   1.700   4.482 -0.8183 -0.3405 -0.3719
   56MOL   C26821278   5.688   1.701   4.517 -0.5076 -1.1132 -0.5552
   56MOL   C26921279   5.779   1.710   4.641  0.3691 -0.7619  0.5070
   56MOL   C27021280   5.902   1.638   4.654 -0.8794  0.1612 -0.2261
   56MOL   C27121281   5.987   1.658   4.766 -0.0453 -0.0966 -0.0983
   56MOL   C27221282   5.965   1.771   4.851  0.5933  0.3398  0.0283
   56MOL   C27321283   6.067   1.816   4.949  0.6834  0.1404 -0.8068
   56MOL   C27421284   5.844   1.841   4.838  0.1460 -0.5954  0.1963
   56MOL   C27521285   5.757   1.813   4.737  0.1072 -0.2289 -0.0286
   56MOL   C27621286   5.699   1.825   4.423  0.1258 -0.3980 -0.5847
   56MOL   H27721287   5.739   1.628   4.454 -0.3184  0.6171 -2.4692
   56MOL   H27821288   5.923   1.563   4.579  0.3287  0.6724 -0.4095
   56MOL   H27921289   6.076   1.598   4.774  0.6469  0.9846  0.4581
   56MOL   H28021290   6.166   1.818   4.903  0.4726  1.0590 -1.2493
   56MOL   H28121291   6.045   1.909   5.002 -1.4530 -0.6618 -0.2347
   56MOL   H28221292   6.079   1.743   5.029  0.3690  2.5423  1.5196
   56MOL   H28321293   5.824   1.932   4.893 -0.2526 -0.1580 -0.6727
   56MOL   H28421294   5.672   1.880   4.733  0.2433 -0.1076 -1.0894
   56MOL   H28521295   5.795   1.872   4.442  0.1178 -1.0693  1.2326
   56MOL   H28621296   5.631   1.902   4.458 -0.4401 -1.5653  0.9473
   56MOL   C28721297   5.679   1.799   4.272  0.0451  0.7809  0.0968
   56MOL   C28821298   5.757   1.678   4.223 -0.8145  0.1728  0.2621
   56MOL   C28921299   5.702   1.559   4.176 -0.0801  0.0277 -0.1651
   56MOL   C29021300   5.776   1.450   4.136  0.7606 -0.8477  0.3302
   56MOL   C29121301   5.918   1.448   4.145  0.9842 -0.6488  0.8895
   56MOL   C29221302   6.000   1.331   4.103 -0.1036 -0.2596  0.1477
   56MOL   C29321303   5.979   1.572   4.188 -0.0306  0.9352 -0.0714
   56MOL   C29421304   5.901   1.685   4.221 -0.1520 -0.0585 -1.0513
   56MOL   C29521305   5.716   1.927   4.194  0.8126  0.6983 -0.2112
   56MOL   H29621306   5.573   1.775   4.259  0.2921 -0.0316 -0.4552
   56MOL   H29721307   5.594   1.552   4.176 -0.0733 -0.1508  1.1197
   56MOL   H29821308   5.720   1.361   4.112  0.3684 -0.6148  0.3842
   56MOL   H29921309   6.047   1.344   4.005 -0.1306 -0.3521  0.1226
   56MOL   H30021310   6.083   1.319   4.173  0.8280 -1.3905 -1.1320
   56MOL   H30121311   5.949   1.235   4.094 -1.2429  0.1638  1.8726
   56MOL   H30221312   6.085   1.579   4.209 -0.1121  1.9371  0.0448
   56MOL   H30321313   5.961   1.770   4.252 -0.2323  0.2717 -1.7971
   56MOL   H30421314   5.778   1.898   4.109  0.4908  0.4078 -0.3483
   56MOL   H30521315   5.790   1.972   4.260 -0.5995 -1.6850  3.1534
   56MOL   C30621316   5.597   2.024   4.160  0.0690  0.0823 -0.5635
   56MOL   C30721317   5.544   2.089   4.289 -0.8952  0.3039 -0.0872
   56MOL   C30821318   5.631   2.179   4.355 -0.4998 -0.1955 -0.6673
   56MOL   C30921319   5.590   2.241   4.481  0.4586 -0.5606  0.5167
   56MOL   C31021320   5.466   2.203   4.534 -0.3780 -0.0445  0.1842
   56MOL   C31121321   5.421   2.279   4.656 -0.4622  0.0193 -0.4466
   56MOL   C31221322   5.385   2.113   4.473  0.1499  0.3033  0.0348
   56MOL   C31321323   5.419   2.055   4.349  0.8870 -0.3191  0.3035
   56MOL   C31421324   5.485   1.954   4.080 -0.7090 -0.1224 -0.9728
   56MOL   H31521325   5.638   2.108   4.103  0.4526  0.4837  0.2914
   56MOL   H31621326   5.721   2.215   4.306  0.8201 -0.6634  1.3466
   56MOL   H31721327   5.647   2.315   4.537  3.1825  0.0746 -2.9064
   56MOL   H31821328   5.355   2.232   4.730 -0.0789 -1.5025 -1.0443
   56MOL   H31921329   5.502   2.292   4.729 -0.6292  0.5373 -0.3546
   56MOL   H32021330   5.380   2.372   4.618  2.0475  0.9234 -0.9966
   56MOL   H32121331   5.286   2.092   4.509  0.5855 -2.8091 -0.4189
   56MOL   H32221332   5.351   1.988   4.299 -0.4229  1.5861 -0.4941
   56MOL   H32321333   5.405   2.025   4.062 -0.6900 -0.2398 -1.5371
   56MOL   H32421334   5.435   1.876   4.138  2.0290 -0.4735  1.0262
   56MOL   C32521335   5.541   1.892   3.952 -0.6664 -0.4201 -0.6681
   56MOL   C32621336   5.611   1.997   3.863  0.2258 -1.0045  0.4245
   56MOL   C32721337   5.549   2.116   3.825 -0.2698  0.5618  0.2210
   56MOL   C32821338   5.616   2.209   3.743  0.2705 -0.3006 -0.4046
   56MOL   C32921339   5.749   2.181   3.696 -0.1611  0.7407  0.4088
   56MOL   C33021340   5.832   2.280   3.606 -0.4947 -0.0191 -0.8472
   56MOL   C33121341   5.814   2.059   3.729 -0.2530  0.6144 -0.6142
   56MOL   C33221342   5.740   1.976   3.818 -1.1444  0.6053  0.2943
   56MOL   C33321343   5.425   1.829   3.869  0.4316  0.4744  0.6834
   56MOL   H33421344   5.605   1.809   3.981 -1.9646 -1.2792 -0.2130
   56MOL   H33521345   5.449   2.139   3.858 -0.6813 -0.5412 -0.2238
   56MOL   H33621346   5.565   2.303   3.729  1.2678  0.0760 -1.6816
   56MOL   H33721347   5.936   2.285   3.637 -1.1856 -1.4833  1.8318
   56MOL   H33821348   5.834   2.233   3.507 -1.4323  1.6306 -1.6782
   56MOL   H33921349   5.788   2.379   3.593  0.4588  0.4941 -0.1801
   56MOL   H34021350   5.912   2.029   3.693  0.5081  3.1114 -0.7535
   56MOL   H34121351   5.790   1.885   3.847  1.7412  1.9434 -0.2512
   56MOL   H34221352   5.361   1.912   3.841  1.5758  1.1436 -0.0076
   56MOL   H34321353   5.371   1.764   3.937  0.1857 -1.5154 -1.3493
   56MOL   C34421354   5.460   1.749   3.739  0.6967  0.4162 -0.5163
   56MOL   C34521355   5.342   1.734   3.642  0.7677 -0.0694  0.4516
   56MOL   C34621356   5.217   1.698   3.708  0.6311  0.0468  0.0167
   56MOL   C34721357   5.101   1.697   3.634 -0.2258  0.0906  0.3519
   56MOL   C34821358   5.100   1.724   3.494 -0.6162  0.1194  0.6898
   56MOL   C34921359   4.976   1.749   3.407  0.3726  0.0903 -0.9915
   56MOL   C35021360   5.223   1.744   3.433 -0.0484  0.5427  0.6245
   56MOL   C35121361   5.345   1.755   3.503  0.2561 -0.0414  0.2022
   56MOL   C35221362   5.559   1.635   3.758  0.4961  0.2778  0.2103
   56MOL   H35321363   5.518   1.832   3.700  2.5177 -1.2587 -1.4416
   56MOL   H35421364   5.217   1.668   3.811  0.3630  1.1518  0.3399
   56MOL   H35521365   5.010   1.685   3.691  1.5159 -3.1604  2.5813
   56MOL   H35621366   4.967   1.665   3.338 -0.5774 -1.4613  0.9702
   56MOL   H35721367   4.886   1.758   3.468  1.9188  1.0344  1.2358
   56MOL   H35821368   4.987   1.842   3.350  1.5383  0.5306 -0.0650
   56MOL   H35921369   5.219   1.757   3.326 -0.0007  0.3864  0.6038
   56MOL   H36021370   5.433   1.777   3.444  0.4177 -0.4529  0.2899
   56MOL   H36121371   5.490   1.562   3.800  0.0519  1.2130  1.1240
   56MOL   H36221372   5.632   1.666   3.833  0.6713 -1.4868  0.7946
   56MOL   C36321373   5.639   1.591   3.632 -0.6532  0.1983 -0.2405
   56MOL   C36421374   5.702   1.457   3.640  0.4408 -0.1162  0.0248
   56MOL   C36521375   5.774   1.412   3.759 -0.6247 -1.1653 -0.7774
   56MOL   C36621376   5.821   1.279   3.763 -0.0831  0.6960  0.5090
   56MOL   C36721377   5.807   1.193   3.651  0.4928  0.3427  0.3068
   56MOL   C36821378   5.869   1.053   3.651 -0.1290  0.3339 -0.5424
   56MOL   C36921379   5.740   1.241   3.538 -0.0770 -0.2494  0.6071
   56MOL   C37021380   5.689   1.371   3.529  0.5315  0.5830  0.4622
   56MOL   C37121381   5.749   1.688   3.602 -0.7506  0.2257  0.2457
   56MOL   H37221382   5.579   1.585   3.541  1.4002  1.8221 -1.7596
   56MOL   H37321383   5.780   1.484   3.839  0.0442 -0.9631 -1.0126
   56MOL   H37421384   5.888   1.255   3.845  0.2541 -2.3167 -0.5910
   56MOL   H37521385   5.974   1.058   3.621  0.9786 -2.1151  2.5375
   56MOL   H37621386   5.861   1.004   3.749  0.0809  0.8671 -0.2566
   56MOL   H37721387   5.833   0.984   3.575 -2.3590 -1.8047  2.3481
   56MOL   H37821388   5.736   1.182   3.447  0.8622 -0.0819  0.4548
   56MOL   H37921389   5.641   1.404   3.438 -1.4085  0.4171  1.4176
   56MOL   H38021390   5.793   1.647   3.511  0.6201 -0.8122  1.3493
   56MOL   H38121391   5.832   1.700   3.672  1.8193 -0.5003 -2.5823
   56MOL   H38221392   5.713   1.788   3.579  1.0586  0.6483 -0.8620
   57MOL     C121393   7.744   5.199   5.883  0.2684 -0.2483  0.6426
   57MOL     C221394   7.744   5.128   6.022  0.2202 -0.6413  0.1378
   57MOL     C321395   7.620   5.076   6.072  0.1561 -0.4509 -0.0824
   57MOL     C421396   7.614   5.023   6.200 -0.8388  0.1195 -0.2829
   57MOL     C521397   7.735   5.030   6.286  0.0969 -0.2037 -0.4204
   57MOL     C621398   7.727   4.980   6.425 -0.9146  0.4413  0.2972
   57MOL     C721399   7.858   5.076   6.235  0.3548  0.7822 -0.3623
   57MOL     C821400   7.860   5.128   6.103  0.5270  0.3577  0.0788
   57MOL     C921401   7.665   5.334   5.891  0.0258 -0.1111 -0.3835
   57MOL    H1021402   7.848   5.219   5.858 -0.1698  0.2264 -0.8669
   57MOL    H1121403   7.537   5.079   6.003  1.1936 -1.6428 -1.4099
   57MOL    H1221404   7.519   4.979   6.228 -1.3554 -1.1101 -3.7840
   57MOL    H1321405   7.813   5.020   6.479 -0.7798  0.3787  0.1285
   57MOL    H1421406   7.644   5.021   6.481 -0.7321  1.6871 -0.3286
   57MOL    H1521407   7.745   4.873   6.433  1.1502  0.7665  0.4856
   57MOL    H1621408   7.945   5.079   6.298  1.3903 -1.2750 -1.6493
   57MOL    H1721409   7.954   5.155   6.057  0.4283  1.3847  0.4747
   57MOL    H1821410   7.698   5.383   5.982 -1.3891  1.8100 -0.8676
   57MOL    H1921411   7.561   5.302   5.898  1.0116 -3.3945  0.4035
   57MOL    H2021412   7.686   5.156   5.801 -0.8870  2.2676  0.0560
   57MOL    C2121413   7.688   5.419   5.766  0.1790 -0.1495  0.8680
   57MOL    C2221414   7.834   5.438   5.736 -0.5724 -0.4134 -0.2298
   57MOL    C2321415   7.929   5.484   5.836 -0.2017  0.4594 -0.3168
   57MOL    C2421416   8.057   5.513   5.790 -0.1331  0.1414  0.5864
   57MOL    C2521417   0.025   5.484   5.663  0.0791 -0.7147 -0.4982
   57MOL    C2621418   0.171   5.507   5.628 -0.3490 -0.0686  0.1785
   57MOL    C2721419   8.016   5.432   5.567  0.6187  0.3205 -0.0500
   57MOL    C2821420   7.883   5.412   5.607  0.6156 -0.4598 -0.6034
   57MOL    C2921421   7.606   5.549   5.777  0.2234 -0.6409  0.1321
   57MOL    H3021422   7.643   5.360   5.686  0.0880 -0.5134  1.1835
   57MOL    H3121423   7.896   5.505   5.936  1.3373  0.1491  0.2661
   57MOL    H3221424   0.043   5.566   5.858 -0.2175  0.5641  0.3402
   57MOL    H3321425   0.242   5.456   5.693  1.3395 -1.2448 -2.4735
   57MOL    H3421426   0.194   5.480   5.525 -2.9109  0.5285 -0.5864
   57MOL    H3521427   0.195   5.614   5.633 -2.0882  0.3558 -0.5074
   57MOL    H3621428   8.048   5.392   5.472  2.0232 -1.6045  1.2033
   57MOL    H3721429   7.804   5.381   5.541  0.0559 -0.4327  0.0446
   57MOL    H3821430   7.633   5.608   5.689 -0.1372 -0.5880  0.0569
   57MOL    H3921431   7.644   5.603   5.864  0.3876  1.2829 -1.1095
   57MOL    C4021432   7.452   5.539   5.790 -1.0103 -0.7644 -0.2811
   57MOL    C4121433   7.394   5.474   5.665  0.0439 -0.4525 -0.0788
   57MOL    C4221434   7.364   5.338   5.669  0.9060  0.9685  0.3283
   57MOL    C4321435   7.316   5.272   5.552  0.2555 -0.2116 -0.8890
   57MOL    C4421436   7.289   5.348   5.438 -0.4323  0.1652 -0.2956
   57MOL    C4521437   7.244   5.274   5.313  0.4461 -0.4110  0.9685
   57MOL    C4621438   7.300   5.490   5.443 -0.0973  0.4125 -0.4411
   57MOL    C4721439   7.358   5.550   5.554  0.1215  0.5250 -0.6239
   57MOL    C4821440   7.399   5.688   5.813 -0.3774  0.8538 -0.6609
   57MOL    H4921441   7.429   5.478   5.877  0.1929  1.1503  1.4281
   57MOL    H5021442   7.390   5.284   5.758  0.1365 -1.5575 -0.9322
   57MOL    H5121443   7.304   5.166   5.536 -1.7893  0.3379 -3.4298
   57MOL    H5221444   7.238   5.335   5.222  1.5280 -0.7977  0.6315
   57MOL    H5321445   7.303   5.188   5.282  0.7094  0.0078  0.2678
   57MOL    H5421446   7.139   5.245   5.322  0.0809 -0.2883 -2.0660
   57MOL    H5521447   7.267   5.546   5.356 -0.7014  1.9756  0.7649
   57MOL    H5621448   7.385   5.654   5.559 -0.1640  0.5260  1.1681
   57MOL    H5721449   7.292   5.686   5.793 -0.9670 -1.5349  2.3657
   57MOL    H5821450   7.443   5.753   5.738  1.3125 -1.0138 -1.3076
   57MOL    C5921451   7.415   5.753   5.954  0.1354 -0.6853  0.4748
   57MOL    C6021452   7.408   5.658   6.077  0.8233 -0.2868 -1.1286
   57MOL    C6121453   7.530   5.618   6.139  1.0253  0.1666  0.3678
   57MOL    C6221454   7.521   5.513   6.238  0.8313 -0.0195  0.2518
   57MOL    C6321455   7.393   5.459   6.279 -0.1020 -0.3902 -0.0546
   57MOL    C6421456   7.383   5.361   6.396 -0.2713 -0.3390 -0.1959
   57MOL    C6521457   7.275   5.508   6.221 -0.1834 -0.9198 -0.5470
   57MOL    C6621458   7.279   5.606   6.119 -0.1191  0.4287 -0.3883
   57MOL    C6721459   7.307   5.871   5.973 -0.2381  0.5259 -0.3153
   57MOL    H6821460   7.514   5.798   5.961  0.0112 -0.4438  0.6469
   57MOL    H6921461   7.626   5.653   6.105  2.8379 -2.7119  2.3175
   57MOL    H7021462   7.608   5.477   6.291  0.7157 -0.1710  0.3391
   57MOL    H7121463   7.296   5.362   6.462 -0.3574  0.8180 -0.3335
   57MOL    H7221464   7.409   5.268   6.345 -0.9995 -0.6731  0.0332
   57MOL    H7321465   7.462   5.393   6.464  0.8112 -0.2969 -1.4495
   57MOL    H7421466   7.178   5.478   6.258 -1.2908  2.8472 -0.1519
   57MOL    H7521467   7.186   5.636   6.072 -1.9058 -2.6398  1.0602
   57MOL    H7621468   7.327   5.910   6.073  1.4986 -1.2981  0.0654
   57MOL    H7721469   7.208   5.825   5.973 -0.6072  1.3050  0.7262
   57MOL    C7821470   7.308   5.975   5.868 -0.1693 -0.6921 -0.3602
   57MOL    C7921471   7.434   6.061   5.865  0.8185 -0.3520 -0.0431
   57MOL    C8021472   7.480   6.140   5.972 -0.4333  0.4777 -0.6702
   57MOL    C8121473   7.603   6.205   5.965  0.4109 -0.5604  0.0697
   57MOL    C8221474   7.674   6.204   5.844 -0.0110  0.0130 -0.3173
   57MOL    C8321475   7.801   6.289   5.827 -0.1859  0.0146 -0.4612
   57MOL    C8421476   7.618   6.132   5.738  0.5830 -0.7151  0.3076
   57MOL    C8521477   7.503   6.057   5.742 -0.5365 -0.3240 -0.0896
   57MOL    C8621478   7.179   6.062   5.888  0.4912 -0.2085  0.2178
   57MOL    H8721479   7.285   5.926   5.773  0.9757  0.1427 -1.0758
   57MOL    H8821480   7.416   6.138   6.060  1.5837 -1.7026  0.8125
   57MOL    H8921481   7.630   6.270   6.046  0.5302  1.2882 -1.4110
   57MOL    H9021482   7.851   6.300   5.730  2.1147  0.7105  0.7645
   57MOL    H9121483   7.782   6.391   5.860  1.8933  0.3404 -0.2457
   57MOL    H9221484   7.877   6.254   5.896  0.1243 -2.2655 -1.9195
   57MOL    H9321485   7.680   6.118   5.650 -0.5030 -2.1746 -0.2375
   57MOL    H9421486   7.480   5.991   5.660  0.6455 -2.3239  1.1582
   57MOL    H9521487   7.190   6.157   5.835  2.0573 -0.7089 -0.3788
   57MOL    H9621488   7.177   6.097   5.992  0.7078  3.0594 -0.8173
   57MOL    C9721489   7.048   5.998   5.848  0.0016  0.4974 -0.1384
   57MOL    C9821490   7.047   5.935   5.713 -0.2585  0.0767 -0.4252
   57MOL    C9921491   7.087   6.019   5.608  0.0608 -0.2090  0.7378
   57MOL   C10021492   7.100   5.978   5.477 -0.6601  0.1082 -0.7840
   57MOL   C10121493   7.064   5.844   5.450 -0.5509 -0.7038 -0.1345
   57MOL   C10221494   7.063   5.801   5.309 -0.1496 -0.5166  0.3227
   57MOL   C10321495   7.026   5.756   5.552  0.1721 -0.4080  0.0673
   57MOL   C10421496   7.015   5.799   5.686  0.8383  0.1608  0.4251
   57MOL   C10521497   6.938   6.103   5.865 -0.1348 -0.8717  0.0648
   57MOL   H10621498   7.034   5.904   5.901  0.2109  0.1278 -0.7368
   57MOL   H10721499   7.107   6.123   5.632  1.5986 -0.2207 -0.3577
   57MOL   H10821500   7.140   6.041   5.399 -0.1911 -0.4336 -0.9842
   57MOL   H10921501   7.027   5.700   5.292  0.7906 -0.7990  0.0022
   57MOL   H11021502   6.999   5.871   5.254 -0.0171 -1.5343 -1.1548
   57MOL   H11121503   7.164   5.805   5.269  0.5927  0.3699  2.2394
   57MOL   H11221504   6.999   5.653   5.531 -1.4122  0.0026  0.0879
   57MOL   H11321505   6.993   5.727   5.764  1.9709 -2.9497 -2.0284
   57MOL   H11421506   6.956   6.181   5.792 -0.3045  2.6201  3.5593
   57MOL   H11521507   6.946   6.158   5.959  0.3108  3.9254 -2.6286
   57MOL   C11621508   6.790   6.051   5.854  0.0202 -0.2051 -0.5859
   57MOL   C11721509   6.734   6.064   5.712  0.3160 -0.6622 -0.4427
   57MOL   C11821510   6.712   5.951   5.635  0.1129  0.7357  0.5251
   57MOL   C11921511   6.673   5.969   5.497 -0.0584  0.1924  0.1801
   57MOL   C12021512   6.662   6.098   5.437  0.5117  0.4155  0.2830
   57MOL   C12121513   6.647   6.122   5.293 -0.2299  0.0735 -0.4146
   57MOL   C12221514   6.692   6.215   5.520  0.4737  0.0112 -0.2057
   57MOL   C12321515   6.721   6.194   5.658  0.3850  0.2197 -0.0162
   57MOL   C12421516   6.689   6.104   5.958  0.7258 -1.2320 -0.6721
   57MOL   H12521517   6.796   5.943   5.869 -0.0235 -0.4717 -2.3599
   57MOL   H12621518   6.739   5.854   5.674 -0.6701  0.0168 -0.6648
   57MOL   H12721519   6.670   5.880   5.436  0.3704  0.5353 -0.3507
   57MOL   H12821520   6.547   6.159   5.272  0.3863  1.1324 -1.5417
   57MOL   H12921521   6.728   6.189   5.263 -0.5425  0.4091 -0.5138
   57MOL   H13021522   6.661   6.027   5.241  0.3022 -0.6409  1.0096
   57MOL   H13121523   6.700   6.307   5.465 -0.9173 -0.4691 -1.2459
   57MOL   H13221524   6.744   6.277   5.723  2.6896  0.7921 -1.5155
   57MOL   H13321525   6.584   6.079   5.950 -0.2862  1.8179  1.8097
   57MOL   H13421526   6.702   6.212   5.953 -0.0037 -1.1862 -1.6572
   57MOL   C13521527   6.732   6.065   6.105 -0.4855 -0.2740 -0.1180
   57MOL   C13621528   6.754   5.921   6.119  0.3834 -0.0366  0.7483
   57MOL   C13721529   6.883   5.866   6.116 -0.4308  0.0482  0.5287
   57MOL   C13821530   6.908   5.735   6.159 -0.2790 -0.1678  0.0996
   57MOL   C13921531   6.797   5.651   6.177  0.4676  0.2606  0.4987
   57MOL   C14021532   6.811   5.504   6.215  0.6396  0.2688  0.4492
   57MOL   C14121533   6.665   5.697   6.149 -0.3583 -0.9752 -0.3805
   57MOL   C14221534   6.647   5.833   6.139  0.5246 -0.6673 -0.4837
   57MOL   C14321535   6.644   6.122   6.220 -0.5779 -0.4799  0.6775
   57MOL   H14421536   6.830   6.105   6.133 -0.1828 -1.6959  0.9513
   57MOL   H14521537   6.969   5.930   6.100 -0.5862  0.6895  2.1708
   57MOL   H14621538   7.008   5.700   6.181 -0.0718 -0.8454 -1.8533
   57MOL   H14721539   6.734   5.453   6.158  1.8621 -2.9328  1.5561
   57MOL   H14821540   6.912   5.466   6.201  0.3693  0.3252 -1.8148
   57MOL   H14921541   6.783   5.485   6.319  0.5051  0.0095  0.3644
   57MOL   H15021542   6.580   5.631   6.159 -0.0744 -1.4106 -0.8369
   57MOL   H15121543   6.543   5.863   6.136 -0.0303 -2.5328 -0.4162
   57MOL   H15221544   6.668   6.077   6.316  0.1043  3.3083  2.3574
   57MOL   H15321545   6.541   6.089   6.205 -0.5781 -0.2206  0.0980
   57MOL   C15421546   6.642   6.280   6.224  0.6629  0.1080 -0.1222
   57MOL   C15521547   6.782   6.336   6.207 -0.4201  0.3705 -0.1819
   57MOL   C15621548   6.898   6.299   6.279 -0.1558  0.2430 -0.4128
   57MOL   C15721549   7.020   6.360   6.251  0.3147 -0.1334  0.1038
   57MOL   C15821550   7.033   6.442   6.136 -0.5718 -0.4487 -0.4175
   57MOL   C15921551   7.170   6.486   6.086  0.1759  0.0178 -0.6036
   57MOL   C16021552   6.918   6.479   6.066  0.0997 -0.2077 -0.3461
   57MOL   C16121553   6.798   6.422   6.097 -0.6160 -0.3304 -0.2651
   57MOL   C16221554   6.566   6.338   6.349 -0.3136 -2.1247  0.3716
   57MOL   H16321555   6.588   6.316   6.137 -1.3316  1.6019  1.6671
   57MOL   H16421556   6.896   6.235   6.366 -0.2414  0.3847 -0.3105
   57MOL   H16521557   7.109   6.340   6.308 -0.2228  0.4552  1.1637
   57MOL   H16621558   7.250   6.427   6.130 -2.5447 -3.2033  0.2143
   57MOL   H16721559   7.181   6.467   5.980  0.7971 -0.5784 -0.4389
   57MOL   H16821560   7.187   6.594   6.083  0.4059  0.0177  0.5358
   57MOL   H16921561   6.923   6.549   5.983  1.7788 -1.6491 -1.4878
   57MOL   H17021562   6.709   6.458   6.048 -0.8693 -1.1044 -0.3770
   57MOL   H17121563   6.609   6.309   6.445 -1.3562  1.2674  1.9341
   57MOL   H17221564   6.466   6.298   6.335 -0.4492 -2.0180  1.0362
   57MOL   C17321565   6.563   6.492   6.365 -0.4217  0.7070 -0.0156
   57MOL   C17421566   6.490   6.533   6.496 -0.3741 -0.5715  0.3623
   57MOL   C17521567   6.546   6.634   6.577  0.7333 -0.2473  0.1500
   57MOL   C17621568   6.471   6.682   6.683  0.1408 -0.4684 -0.2464
   57MOL   C17721569   6.340   6.639   6.703 -0.5773  0.9660 -0.5602
   57MOL   C17821570   6.267   6.688   6.822 -0.3402 -0.1662  0.3627
   57MOL   C17921571   6.276   6.549   6.615  0.1502 -0.1713 -0.1022
   57MOL   C18021572   6.354   6.494   6.512  0.5443  0.5802  0.5369
   57MOL   C18121573   6.490   6.565   6.249  0.0611 -0.3237  0.5600
   57MOL   H18221574   6.663   6.533   6.382  0.0298 -0.3339 -0.1098
   57MOL   H18321575   6.649   6.665   6.562  0.6007  0.2894  0.3488
   57MOL   H18421576   6.519   6.746   6.755 -0.3163 -0.4855  0.0751
   57MOL   H18521577   6.242   6.606   6.889  1.8268 -2.6309 -1.7328
   57MOL   H18621578   6.315   6.767   6.880 -1.3203  3.2203 -3.2026
   57MOL   H18721579   6.183   6.745   6.781  0.3957  1.4659  1.0791
   57MOL   H18821580   6.171   6.527   6.623  0.1767 -0.6062 -0.9178
   57MOL   H18921581   6.298   6.424   6.451  0.8012  1.6761 -0.9932
   57MOL   H19021582   6.386   6.533   6.242  0.0930 -0.5445  1.1633
   57MOL   H19121583   6.525   6.536   6.150 -1.1083  0.0360  0.0276
   57MOL   C19221584   6.476   6.722   6.258  0.4738 -0.2113 -0.1388
   57MOL   C19321585   6.329   6.760   6.248 -0.5928  0.1062 -0.9948
   57MOL   C19421586   6.252   6.749   6.132 -0.3943 -0.9566 -0.1078
   57MOL   C19521587   6.112   6.775   6.124  0.1223  0.7528 -0.9879
   57MOL   C19621588   6.046   6.829   6.239 -0.0492 -0.2086 -0.5572
   57MOL   C19721589   5.898   6.865   6.238  0.5618 -0.9598 -0.2997
   57MOL   C19821590   6.124   6.853   6.352  0.0190 -0.5924  0.2875
   57MOL   C19921591   6.255   6.811   6.360 -0.5816  0.3700 -0.5917
   57MOL   C20021592   6.552   6.799   6.149 -0.8880 -0.2609  0.0794
   57MOL   H20121593   6.514   6.758   6.354 -1.2947  3.5648 -0.7680
   57MOL   H20221594   6.293   6.709   6.041 -2.5735 -1.2724 -0.9761
   57MOL   H20321595   6.059   6.764   6.031 -2.2610  0.3542  0.3674
   57MOL   H20421596   5.841   6.777   6.267  0.4374 -0.3914  1.2317
   57MOL   H20521597   5.888   6.946   6.311  3.9131 -0.1451 -0.6324
   57MOL   H20621598   5.876   6.886   6.133 -1.7169  0.4302  0.4155
   57MOL   H20721599   6.078   6.913   6.429  1.3147  1.2870 -0.3748
   57MOL   H20821600   6.304   6.843   6.451  2.0307 -1.3162 -1.3334
   57MOL   H20921601   6.523   6.904   6.148 -1.2904 -0.3721 -0.2287
   57MOL   H21021602   6.520   6.755   6.054 -0.4133  1.7945 -1.0589
   57MOL   C21121603   6.702   6.804   6.148 -0.0708  0.4757  1.2212
   57MOL   C21221604   6.758   6.817   6.286  0.0328  0.4060  0.6662
   57MOL   C21321605   6.721   6.921   6.375  0.3747 -1.0599  0.1205
   57MOL   C21421606   6.787   6.929   6.502  0.0915  0.2787  0.1885
   57MOL   C21521607   6.880   6.836   6.545  0.8338  0.1993  0.0354
   57MOL   C21621608   6.957   6.856   6.670  0.4882 -0.4394  0.3487
   57MOL   C21721609   6.913   6.727   6.453  0.3207 -0.0017 -0.8612
   57MOL   C21821610   6.851   6.720   6.333 -0.5221  0.0332 -0.3650
   57MOL   C21921611   6.761   6.921   6.073 -0.4708 -0.0163 -0.3951
   57MOL   H22021612   6.738   6.710   6.106  0.6294  0.3169  2.1664
   57MOL   H22121613   6.647   6.997   6.359 -0.3414 -1.8330 -0.2903
   57MOL   H22221614   6.756   7.017   6.558 -1.3137 -1.4998  2.2874
   57MOL   H22321615   6.938   6.771   6.735  1.9532 -0.5387  0.6625
   57MOL   H22421616   7.063   6.866   6.648  0.2734  1.9826  0.2855
   57MOL   H22521617   6.927   6.945   6.725 -2.9908 -2.4445  1.8594
   57MOL   H22621618   6.979   6.647   6.485  0.4363  0.1744 -0.6633
   57MOL   H22721619   6.862   6.632   6.271 -0.0261  1.5907 -2.5283
   57MOL   H22821620   6.870   6.923   6.081 -0.4437 -0.0150 -0.7561
   57MOL   H22921621   6.725   7.010   6.124  2.0652  1.3680 -0.9588
   57MOL   C23021622   6.714   6.925   5.922 -0.5279 -0.7752 -0.3185
   57MOL   C23121623   6.784   6.807   5.846 -0.7806  0.3761 -0.4022
   57MOL   C23221624   6.711   6.704   5.795  0.5070  0.2551 -0.3032
   57MOL   C23321625   6.765   6.593   5.727  0.2529  0.3788  0.4297
   57MOL   C23421626   6.906   6.590   5.711 -0.7460 -0.2296 -0.6792
   57MOL   C23521627   6.968   6.483   5.624 -0.0069 -0.4224 -0.2192
   57MOL   C23621628   6.984   6.690   5.769  1.0835 -1.0660 -0.3224
   57MOL   C23721629   6.923   6.802   5.837  0.2445 -0.0253  0.2889
   57MOL   C23821630   6.767   7.066   5.885  0.3887  0.1065  0.1662
   57MOL   H23921631   6.605   6.919   5.915 -0.6159 -1.4058  1.4178
   57MOL   H24021632   6.605   6.689   5.806  0.6851  0.5101  2.0334
   57MOL   H24121633   6.711   6.519   5.670  2.0757 -1.2226  0.7271
   57MOL   H24221634   6.912   6.390   5.623  0.8363 -0.9697  1.6498
   57MOL   H24321635   6.976   6.533   5.527  0.5412  2.6655  1.3379
   57MOL   H24421636   7.066   6.458   5.663 -0.3195 -2.6052 -0.7928
   57MOL   H24521637   7.091   6.702   5.756  0.6228  1.7303 -1.8999
   57MOL   H24621638   6.969   6.896   5.864  0.1478 -0.1349  0.8458
   57MOL   H24721639   6.777   7.070   5.776 -0.0715  3.1948  0.1930
   57MOL   H24821640   6.869   7.074   5.922  0.7398 -0.4459 -0.6628
   57MOL   C24921641   6.667   7.189   5.907  0.3774  0.6825  0.4330
   57MOL   C25021642   6.532   7.161   5.838  0.3363  0.4843 -0.0232
   57MOL   C25121643   6.422   7.113   5.915 -0.0183 -0.6050 -0.2834
   57MOL   C25221644   6.303   7.070   5.850 -0.3064  0.8028  0.1261
   57MOL   C25321645   6.286   7.075   5.712  0.0430  0.2599 -0.0180
   57MOL   C25421646   6.157   7.027   5.654  0.0129  0.5043 -0.2652
   57MOL   C25521647   6.402   7.104   5.632  0.5954 -0.3231  0.0531
   57MOL   C25621648   6.523   7.153   5.698 -0.0267  0.3250  0.1422
   57MOL   C25721649   6.740   7.320   5.859  0.9459  0.4353 -0.4617
   57MOL   H25821650   6.644   7.198   6.013  3.8615 -1.6618  1.4890
   57MOL   H25921651   6.423   7.125   6.022 -1.1245 -0.8019 -0.2415
   57MOL   H26021652   6.215   7.045   5.907 -0.4419 -2.0738 -1.2921
   57MOL   H26121653   6.071   7.056   5.715 -0.6834  1.1524 -1.5442
   57MOL   H26221654   6.137   7.076   5.559 -0.1752  0.3506 -0.3057
   57MOL   H26321655   6.153   6.918   5.646 -2.4023  0.4807  0.8883
   57MOL   H26421656   6.394   7.102   5.524 -3.2896  1.4249  0.2143
   57MOL   H26521657   6.604   7.187   5.635 -1.6521  2.9658 -0.6408
   57MOL   H26621658   6.655   7.384   5.880  0.5006 -0.0568 -0.7300
   57MOL   H26721659   6.750   7.326   5.750  1.2045 -1.8978 -0.6009
   57MOL   C26821660   6.871   7.365   5.932  0.0843  0.8502  0.6825
   57MOL   C26921661   6.858   7.364   6.085 -0.2711  0.0177 -0.1857
   57MOL   C27021662   6.933   7.268   6.162  0.5683  0.1611  0.1045
   57MOL   C27121663   6.925   7.258   6.300  0.0806 -0.7093 -0.7323
   57MOL   C27221664   6.850   7.359   6.366 -0.0201  0.4631  0.0313
   57MOL   C27321665   6.831   7.347   6.512  1.2843  0.1118  0.5902
   57MOL   C27421666   6.785   7.460   6.294 -0.4098  0.1392 -0.3646
   57MOL   C27521667   6.792   7.465   6.154  0.4561 -0.3311  0.2161
   57MOL   C27621668   6.923   7.502   5.873  0.3730 -0.1050  0.1434
   57MOL   H27721669   6.936   7.292   5.885 -0.3871  1.4502 -0.9278
   57MOL   H27821670   6.986   7.194   6.105  0.3811 -0.2217  0.4260
   57MOL   H27921671   6.963   7.172   6.353 -0.1297 -0.4255 -0.1155
   57MOL   H28021672   6.860   7.441   6.559  1.0251 -0.6106  2.2219
   57MOL   H28121673   6.727   7.326   6.538  1.4928 -1.0338  0.5139
   57MOL   H28221674   6.899   7.271   6.551  1.0756 -0.7356 -0.6417
   57MOL   H28321675   6.709   7.518   6.345  0.9107  1.1195  0.5174
   57MOL   H28421676   6.735   7.541   6.102  1.0572 -0.8459 -1.2259
   57MOL   H28521677   6.872   7.577   5.933  0.8896 -0.2663  0.7910
   57MOL   H28621678   6.901   7.522   5.768 -1.9152  0.5143  0.7122
   57MOL   C28721679   7.079   7.506   5.905  0.0813  0.3119  0.7247
   57MOL   C28821680   7.131   7.646   5.945 -0.2378  0.2591 -0.1080
   57MOL   C28921681   7.160   7.673   6.080 -0.2002 -0.2198  0.4884
   57MOL   C29021682   7.214   7.799   6.112  0.0839 -0.3923  0.2170
   57MOL   C29121683   7.232   7.900   6.014  0.0080  0.4655 -0.4133
   57MOL   C29221684   7.277   8.038   6.049  0.3513  0.0315  1.1170
   57MOL   C29321685   7.197   7.872   5.878  0.3666 -0.3901 -0.5144
   57MOL   C29421686   7.140   7.748   5.846  0.4596  0.7395 -0.2348
   57MOL   C29521687   7.166   7.439   5.796 -0.4302 -0.3666  0.8210
   57MOL   H29621688   7.097   7.451   5.998 -0.6492 -0.6422  0.3089
   57MOL   H29721689   7.146   7.597   6.155  1.0883 -0.2150  0.7410
   57MOL   H29821690   7.224   7.829   6.215  0.9467  0.3297 -0.0755
   57MOL   H29921691   7.381   8.048   6.020 -0.4820 -0.7838 -2.5295
   57MOL   H30021692   7.224   0.037   5.996 -0.8648 -0.1936  1.9653
   57MOL   H30121693   7.251   8.050   6.154  0.4750 -0.2697  1.1839
   57MOL   H30221694   7.212   7.950   5.805  4.4793 -0.1038  0.5331
   57MOL   H30321695   7.112   7.721   5.746  1.8361  3.7524 -1.4957
   57MOL   H30421696   7.262   7.488   5.804  0.7327 -2.1073 -1.5953
   57MOL   H30521697   7.134   7.476   5.698 -0.4865 -0.4478  0.8081
   57MOL   C30621698   7.174   7.284   5.787 -0.3203  0.0453  0.5838
   57MOL   C30721699   7.215   7.219   5.922 -0.4362 -0.8517  1.0606
   57MOL   C30821700   7.188   7.081   5.938 -0.0439  0.0513  0.4191
   57MOL   C30921701   7.220   7.019   6.063 -0.0152  0.2236 -0.5398
   57MOL   C31021702   7.302   7.087   6.164  0.0946  0.2841  0.2650
   57MOL   C31121703   7.327   7.017   6.301 -0.7335  0.0289  0.3237
   57MOL   C31221704   7.334   7.219   6.137 -0.6833 -0.1177 -0.0373
   57MOL   C31321705   7.289   7.289   6.021 -0.4112 -0.1435 -0.1381
   57MOL   C31421706   7.273   7.235   5.682  0.2939 -0.2556 -0.9724
   57MOL   H31521707   7.082   7.235   5.756 -0.6394 -0.0962  1.7202
   57MOL   H31621708   7.136   7.032   5.857 -1.2208  0.3973  0.9563
   57MOL   H31721709   7.193   6.917   6.088  2.0001 -0.5720 -1.4722
   57MOL   H31821710   7.232   6.999   6.351  0.3434 -1.5229  1.8634
   57MOL   H31921711   7.372   6.918   6.300  0.8831  0.7420  0.3875
   57MOL   H32021712   7.353   7.080   6.386 -1.6202 -1.4649  1.7214
   57MOL   H32121713   7.397   7.268   6.210  0.6607 -0.2341 -1.0961
   57MOL   H32221714   7.307   7.396   6.022  0.5104 -0.2891 -0.0080
   57MOL   H32321715   7.298   7.131   5.705  0.5698 -0.1486 -0.7830
   57MOL   H32421716   7.364   7.294   5.694  0.2467 -0.0196 -1.7138
   57MOL   C32521717   7.231   7.234   5.540 -0.3366  0.0574  0.0390
   57MOL   C32621718   7.102   7.152   5.520 -0.1595 -0.7371 -0.1098
   57MOL   C32721719   7.094   7.014   5.522  0.1526  0.5222  0.2736
   57MOL   C32821720   6.969   6.944   5.506 -0.1176  0.2603 -0.0214
   57MOL   C32921721   6.855   7.022   5.485  0.5560 -0.6291  0.3597
   57MOL   C33021722   6.717   6.957   5.479  0.0197 -0.7849 -0.6062
   57MOL   C33121723   6.861   7.166   5.473  0.1104  0.0299  0.5645
   57MOL   C33221724   6.986   7.229   5.486  0.1424 -0.0077 -0.2601
   57MOL   C33321725   7.340   7.201   5.431 -0.4062 -0.2109  0.2062
   57MOL   H33421726   7.193   7.333   5.515  1.2239  1.4486  2.9796
   57MOL   H33521727   7.181   6.953   5.542 -0.7553 -0.3428  1.6744
   57MOL   H33621728   6.959   6.836   5.504 -1.2179  0.3518 -2.5090
   57MOL   H33721729   6.637   6.999   5.418 -0.0650 -0.0764 -0.0164
   57MOL   H33821730   6.726   6.855   5.441  0.6454 -1.2468  0.7417
   57MOL   H33921731   6.661   6.948   5.573  1.2196  1.7003  0.3992
   57MOL   H34021732   6.775   7.226   5.448 -0.9815 -1.8619 -0.3909
   57MOL   H34121733   6.986   7.336   5.473 -0.8514  0.2993  2.0209
   57MOL   H34221734   7.291   7.185   5.335 -0.6273 -0.2567  0.3269
   57MOL   H34321735   7.394   7.110   5.456 -0.2850 -0.4592 -0.9164
   57MOL   C34421736   7.444   7.312   5.411 -0.7296 -0.3843  0.1005
   57MOL   C34521737   7.375   7.450   5.393 -0.9191 -0.1789  0.0687
   57MOL   C34621738   7.383   7.552   5.491  0.0420 -0.3183 -0.3206
   57MOL   C34721739   7.312   7.669   5.483 -0.3394 -0.1537  0.3456
   57MOL   C34821740   7.223   7.686   5.373 -0.3416 -0.5103 -0.2475
   57MOL   C34921741   7.143   7.812   5.360  0.1178  0.2815  0.1487
   57MOL   C35021742   7.222   7.589   5.273 -0.0372  0.4730  0.2191
   57MOL   C35121743   7.298   7.468   5.278  0.5485 -0.8708 -0.5995
   57MOL   C35221744   7.548   7.278   5.303 -0.2609 -0.5504  0.2720
   57MOL   H35321745   7.506   7.317   5.501  0.3173  0.2032 -0.6487
   57MOL   H35421746   7.449   7.548   5.576  0.2147  1.0985 -0.3765
   57MOL   H35521747   7.316   7.750   5.554 -3.6462  2.1442 -1.9749
   57MOL   H35621748   7.105   7.823   5.461  0.2224  1.6862  0.0441
   57MOL   H35721749   7.214   7.890   5.331  1.7227 -1.1909  0.0440
   57MOL   H35821750   7.059   7.805   5.290  1.1847  1.4918 -1.2995
   57MOL   H35921751   7.166   7.595   5.181  0.4003 -1.0902 -0.1651
   57MOL   H36021752   7.284   7.396   5.199 -1.2686 -1.0300 -0.1602
   57MOL   H36121753   7.517   7.317   5.206 -1.7203 -1.9133  0.1803
   57MOL   H36221754   7.542   7.173   5.276 -0.2230 -0.2494 -0.9210
   57MOL   C36321755   7.705   7.314   5.337 -0.4044  0.4533 -0.7969
   57MOL   C36421756   7.718   7.451   5.393  0.0987  1.0195  0.3791
   57MOL   C36521757   7.759   7.467   5.526 -0.1407  0.1509 -0.1441
   57MOL   C36621758   7.774   7.594   5.579 -0.6342 -0.4929 -0.0865
   57MOL   C36721759   7.743   7.709   5.498  0.2784  0.2015  0.1365
   57MOL   C36821760   7.765   7.848   5.559  0.5502 -0.4843 -0.4617
   57MOL   C36921761   7.706   7.702   5.366  0.3755 -0.3273  0.3464
   57MOL   C37021762   7.693   7.569   5.314 -0.2282  0.0001 -0.0903
   57MOL   C37121763   7.809   7.285   5.233  0.5968  0.3612  0.2499
   57MOL   H37221764   7.732   7.251   5.422  3.1842  0.5149 -1.8010
   57MOL   H37321765   7.781   7.379   5.586  0.5139 -0.7165 -1.6406
   57MOL   H37421766   7.818   7.614   5.675 -1.7613  0.2162  0.2959
   57MOL   H37521767   7.865   7.885   5.536 -0.6825  2.9294 -0.7169
   57MOL   H37621768   7.694   7.925   5.528  1.7134 -0.2634 -2.6622
   57MOL   H37721769   7.757   7.838   5.667  0.7082  0.4363 -0.3540
   57MOL   H37821770   7.686   7.785   5.300  2.2638  0.7509  1.0955
   57MOL   H37921771   7.655   7.555   5.214  1.9849 -1.1538 -0.7948
   57MOL   H38021772   7.795   7.350   5.146  1.6372 -2.5458 -2.2076
   57MOL   H38121773   7.797   7.180   5.208 -2.5096  1.3420 -2.8063
   57MOL   H38221774   7.913   7.292   5.265  1.2749 -0.4868 -1.6798
   58MOL     C121775   3.424   5.496   2.701  0.4342  0.0565  0.2427
   58MOL     C221776   3.384   5.368   2.631  0.1793  1.1340  0.0402
   58MOL     C321777   3.257   5.350   2.578 -0.6113  0.5466 -0.2404
   58MOL     C421778   3.229   5.243   2.490 -0.1986  0.3224 -0.2706
   58MOL     C521779   3.325   5.147   2.468 -0.5446  0.1472  0.5063
   58MOL     C621780   3.287   5.023   2.384 -0.0399 -0.7746 -0.2704
   58MOL     C721781   3.452   5.165   2.519  0.2628 -0.0934 -0.4995
   58MOL     C821782   3.480   5.274   2.603 -0.6066  0.4217  0.5933
   58MOL     C921783   3.416   5.493   2.857  0.1081  0.6081  0.2419
   58MOL    H1021784   3.527   5.518   2.671  0.5235 -2.6037 -1.5893
   58MOL    H1121785   3.187   5.431   2.590 -0.1730  0.6994  1.3875
   58MOL    H1221786   3.129   5.230   2.452  0.3827  1.1143 -2.1001
   58MOL    H1321787   3.347   5.026   2.293  0.3496 -0.4582 -0.0074
   58MOL    H1421788   3.305   4.925   2.430 -0.0084 -0.3582  0.6201
   58MOL    H1521789   3.181   5.026   2.363  0.0690  1.4751 -0.6168
   58MOL    H1621790   3.527   5.096   2.484 -0.1568  0.0572 -1.7267
   58MOL    H1721791   3.581   5.284   2.642 -0.4963 -0.2565  0.4962
   58MOL    H1821792   3.433   5.598   2.883  1.1346  0.4411  0.2527
   58MOL    H1921793   3.495   5.430   2.897  0.0801 -0.8287 -1.8915
   58MOL    H2021794   3.367   5.578   2.658 -3.3072 -2.3572  0.4086
   58MOL    C2121795   3.280   5.467   2.919  0.0033 -0.6287 -0.9885
   58MOL    C2221796   3.233   5.566   3.021 -0.4416 -0.2363 -0.9452
   58MOL    C2321797   3.184   5.693   2.983  0.3451 -0.2382  0.0868
   58MOL    C2421798   3.153   5.788   3.081  0.6842 -0.2663  0.6567
   58MOL    C2521799   3.167   5.752   3.218 -0.0245  0.5004 -0.0257
   58MOL    C2621800   3.132   5.855   3.319  0.1239  0.5728  0.1543
   58MOL    C2721801   3.228   5.633   3.257  0.4818  0.0250 -0.1630
   58MOL    C2821802   3.246   5.535   3.159  0.0148 -0.0023  0.3988
   58MOL    C2921803   3.271   5.316   2.953  0.4184 -0.4279 -0.2569
   58MOL    H3021804   3.201   5.492   2.848  0.0364  0.0388 -0.7919
   58MOL    H3121805   3.161   5.721   2.881  0.2877 -1.7862 -0.3476
   58MOL    H3221806   3.114   5.886   3.060  1.0686 -0.3596 -0.5372
   58MOL    H3321807   3.194   5.869   3.408 -1.4237  2.2756  1.0083
   58MOL    H3421808   3.107   5.950   3.273 -0.8692 -1.2759 -3.2164
   58MOL    H3521809   3.043   5.806   3.357 -0.2343  2.2560  1.6014
   58MOL    H3621810   3.242   5.611   3.362  0.6838  0.7371 -0.0378
   58MOL    H3721811   3.285   5.440   3.192  0.0577  0.3375  1.3448
   58MOL    H3821812   3.349   5.296   3.027  0.4399 -0.7268 -0.3597
   58MOL    H3921813   3.302   5.259   2.865  0.3856 -0.4276 -0.2691
   58MOL    C4021814   3.131   5.267   3.009  0.3049 -0.1473  0.2072
   58MOL    C4121815   3.153   5.158   3.115  0.0837  0.5488 -0.1359
   58MOL    C4221816   3.224   5.036   3.091  0.0538 -0.2780 -0.5409
   58MOL    C4321817   3.234   4.940   3.191  0.0916 -0.1096  0.5299
   58MOL    C4421818   3.191   4.964   3.325 -0.0637 -0.1699  0.6260
   58MOL    C4521819   3.193   4.862   3.432  0.0405  0.6627 -0.1264
   58MOL    C4621820   3.126   5.086   3.353  0.1745 -0.2484  0.0386
   58MOL    C4721821   3.097   5.176   3.247  0.6043  0.2795  1.0884
   58MOL    C4821822   3.043   5.218   2.892  0.0090  0.0006 -0.8814
   58MOL    H4921823   3.086   5.347   3.067  0.5576 -1.6629  2.5495
   58MOL    H5021824   3.263   5.010   2.994  1.7471 -2.0600  0.5852
   58MOL    H5121825   3.268   4.841   3.165  0.0003  0.6628 -2.8813
   58MOL    H5221826   3.203   4.763   3.385  1.4576  1.6503 -1.9904
   58MOL    H5321827   3.292   4.862   3.477  0.5884 -0.8925 -1.2535
   58MOL    H5421828   3.115   4.869   3.507 -0.4690 -0.7494 -0.4971
   58MOL    H5521829   3.096   5.108   3.454  0.6416  2.9364 -0.4675
   58MOL    H5621830   3.048   5.267   3.279 -0.0677  0.9325 -1.6694
   58MOL    H5721831   3.075   5.118   2.865 -1.3881 -0.9058  0.6946
   58MOL    H5821832   3.071   5.278   2.805 -0.9235  3.0731  0.8278
   58MOL    C5921833   2.887   5.227   2.910  0.3195  0.1262 -0.4118
   58MOL    C6021834   2.836   5.148   3.031 -0.2718  0.6396  0.1386
   58MOL    C6121835   2.838   5.007   3.043 -0.0422  0.0136  0.0855
   58MOL    C6221836   2.791   4.936   3.155  0.4914 -0.3644 -0.6595
   58MOL    C6321837   2.760   5.015   3.270 -0.3486 -0.8380 -0.3762
   58MOL    C6421838   2.721   4.951   3.394 -0.1899 -0.2013 -0.3217
   58MOL    C6521839   2.752   5.155   3.265  0.0228 -0.3961  0.2994
   58MOL    C6621840   2.778   5.219   3.140  0.0352 -0.3656  0.5219
   58MOL    C6721841   2.822   5.207   2.771 -0.1993 -0.4129 -0.1540
   58MOL    H6821842   2.870   5.333   2.931  0.2395  0.4164 -1.9000
   58MOL    H6921843   2.874   4.958   2.954  0.9279  0.3219  0.3017
   58MOL    H7021844   2.786   4.828   3.153 -2.0545 -0.3861  3.2322
   58MOL    H7121845   2.762   4.853   3.419 -0.8880 -0.8642 -1.7706
   58MOL    H7221846   2.758   5.001   3.484 -0.5594 -2.0277  0.8900
   58MOL    H7321847   2.614   4.943   3.409 -0.4278  0.1530 -1.7513
   58MOL    H7421848   2.728   5.220   3.348 -0.3256 -0.3609  0.1702
   58MOL    H7521849   2.789   5.326   3.138 -0.8977 -0.2733 -0.1592
   58MOL    H7621850   2.857   5.107   2.744 -0.9069 -0.3942 -1.1730
   58MOL    H7721851   2.861   5.263   2.686  2.4406 -1.1531  0.5329
   58MOL    C7821852   2.670   5.210   2.766  0.3306 -0.7093 -0.0900
   58MOL    C7921853   2.603   5.152   2.641  0.0511  0.1080  0.1727
   58MOL    C8021854   2.528   5.035   2.648  0.0395  0.1400 -0.5923
   58MOL    C8121855   2.475   4.972   2.530 -0.4396  0.2094 -0.6473
   58MOL    C8221856   2.509   5.025   2.404 -0.1137 -0.0667 -0.7703
   58MOL    C8321857   2.475   4.950   2.280  0.0300 -0.1880 -0.5253
   58MOL    C8421858   2.577   5.142   2.397  0.2541  0.4380  0.6427
   58MOL    C8521859   2.626   5.200   2.514 -0.3848  0.5675 -0.8055
   58MOL    C8621860   2.625   5.347   2.776 -0.1394  0.3080 -0.3811
   58MOL    H8721861   2.633   5.150   2.850 -1.7448  0.8711  0.1736
   58MOL    H8821862   2.521   4.997   2.749 -1.5348  0.8722 -0.4115
   58MOL    H8921863   2.435   4.874   2.550  0.8846 -0.3559 -0.7072
   58MOL    H9021864   2.535   4.980   2.194 -0.6073 -0.4262 -1.0634
   58MOL    H9121865   2.498   4.846   2.305  1.4011  0.6429  1.8272
   58MOL    H9221866   2.369   4.952   2.255  0.0874 -1.3043 -0.9289
   58MOL    H9321867   2.602   5.177   2.298 -0.2385 -1.7407 -0.2696
   58MOL    H9421868   2.692   5.286   2.515  0.0313  0.2332  0.7267
   58MOL    H9521869   2.571   5.388   2.690 -1.2865 -0.8211 -0.2140
   58MOL    H9621870   2.709   5.417   2.783 -1.6246  2.1870 -0.8500
   58MOL    C9721871   2.525   5.360   2.893 -0.4055  0.5240 -0.3764
   58MOL    C9821872   2.405   5.262   2.890  0.6303  0.1031  0.2023
   58MOL    C9921873   2.307   5.282   2.786  0.3216  0.6498  0.5048
   58MOL   C10021874   2.219   5.179   2.751 -0.2596  0.4263 -0.4964
   58MOL   C10121875   2.213   5.060   2.826 -0.3280 -0.1243 -0.2101
   58MOL   C10221876   2.104   4.953   2.792 -0.0503  0.6835 -0.7652
   58MOL   C10321877   2.299   5.053   2.937  0.3372  0.0441  0.1034
   58MOL   C10421878   2.397   5.145   2.967  0.0398  0.0560 -0.4921
   58MOL   C10521879   2.479   5.510   2.910 -0.0081  0.4721  0.0342
   58MOL   H10621880   2.586   5.340   2.980 -0.2583 -0.7909 -0.7728
   58MOL   H10721881   2.310   5.372   2.726 -1.2369 -0.0454 -0.6588
   58MOL   H10821882   2.159   5.200   2.664 -0.9504  1.6279  0.2563
   58MOL   H10921883   2.080   4.959   2.686  2.2062  1.6124 -1.2535
   58MOL   H11021884   2.143   4.854   2.816  1.2075  0.9921 -1.4858
   58MOL   H11121885   2.018   4.970   2.858 -0.8821 -1.4166 -1.2637
   58MOL   H11221886   2.299   4.963   2.997 -0.4561  0.7284  1.1534
   58MOL   H11321887   2.470   5.131   3.045 -0.8197 -1.0005  0.1280
   58MOL   H11421888   2.391   5.517   2.974 -0.7806 -0.6837 -0.8996
   58MOL   H11521889   2.451   5.555   2.814  0.7971 -3.7929 -2.3262
   58MOL   C11621890   2.580   5.608   2.980  0.0287 -0.4188  0.8943
   58MOL   C11721891   2.624   5.583   3.130  1.0030 -0.6071  0.7118
   58MOL   C11821892   2.748   5.624   3.174 -0.1633 -0.4666 -0.8482
   58MOL   C11921893   2.787   5.601   3.308  0.3812  0.5672 -0.1701
   58MOL   C12021894   2.705   5.516   3.387  0.0706 -0.4177 -0.2917
   58MOL   C12121895   2.744   5.493   3.530  0.6453  0.7457  0.0039
   58MOL   C12221896   2.580   5.471   3.336  0.5377 -0.2687 -0.0197
   58MOL   C12321897   2.539   5.510   3.212 -0.3633 -0.1140 -0.1934
   58MOL   C12421898   2.572   5.764   2.938  0.2252 -0.3302  0.6784
   58MOL   H12521899   2.675   5.592   2.929 -0.3200 -0.4174  0.2421
   58MOL   H12621900   2.820   5.671   3.108 -0.1432 -0.0400 -0.5262
   58MOL   H12721901   2.884   5.634   3.341  0.6715 -1.0213  0.6397
   58MOL   H12821902   2.677   5.422   3.578 -0.1628  1.9506  0.6808
   58MOL   H12921903   2.842   5.445   3.530  0.4468  0.3460  0.8316
   58MOL   H13021904   2.742   5.588   3.584  2.2567 -0.2198  1.7931
   58MOL   H13121905   2.513   5.416   3.399 -0.1799  0.8515  0.2095
   58MOL   H13221906   2.439   5.491   3.177 -0.3215 -1.3416  0.3354
   58MOL   H13321907   2.530   5.768   2.837  0.0688  0.0517  0.7606
   58MOL   H13421908   2.670   5.809   2.927  0.5625 -1.3232 -0.6075
   58MOL   C13521909   2.498   5.844   3.038  0.1087 -0.9916 -0.2512
   58MOL   C13621910   2.347   5.811   3.046  0.5700  0.8703 -0.1662
   58MOL   C13721911   2.288   5.757   3.160 -0.7409  0.1871  0.1636
   58MOL   C13821912   2.149   5.727   3.162  0.4109  0.0559  0.1380
   58MOL   C13921913   2.068   5.756   3.051 -0.5270 -0.3936  0.4264
   58MOL   C14021914   1.927   5.719   3.042  0.5638 -0.4003  0.1726
   58MOL   C14121915   2.124   5.814   2.933 -0.3677  0.0954 -0.3048
   58MOL   C14221916   2.265   5.836   2.932 -0.5060  0.3170  0.4417
   58MOL   C14321917   2.512   5.997   3.027 -0.1138 -0.6362 -0.2406
   58MOL   H14421918   2.535   5.836   3.140  0.3349  1.1694 -0.1336
   58MOL   H14521919   2.356   5.726   3.238 -1.6172 -1.8662  0.1495
   58MOL   H14621920   2.106   5.689   3.254  1.5677 -0.8866  0.3149
   58MOL   H14721921   1.888   5.736   3.142 -0.7059 -4.8899  0.5450
   58MOL   H14821922   1.880   5.779   2.964  0.3026  0.3737  0.9130
   58MOL   H14921923   1.909   5.613   3.027  1.6329 -0.7035  0.9628
   58MOL   H15021924   2.068   5.847   2.847 -0.2580  2.3069  0.4207
   58MOL   H15121925   2.319   5.884   2.851  3.4244  0.6915  3.1256
   58MOL   H15221926   2.427   6.040   3.080  0.1861  0.8740 -0.9562
   58MOL   H15321927   2.506   6.014   2.919  0.8427 -1.0419 -0.3660
   58MOL   C15421928   2.646   6.064   3.073 -0.0634  0.7968  0.3452
   58MOL   C15521929   2.666   6.066   3.227 -0.6597 -0.4407  0.6248
   58MOL   C15621930   2.585   6.142   3.314  0.2812  0.4348 -0.2528
   58MOL   C15721931   2.605   6.141   3.452  0.6998 -0.6872  0.5396
   58MOL   C15821932   2.698   6.057   3.509  0.1615  0.5228  0.1923
   58MOL   C15921933   2.711   6.048   3.663  0.3540  0.5141 -0.0391
   58MOL   C16021934   2.778   5.980   3.420 -0.3305 -0.4458 -0.1338
   58MOL   C16121935   2.766   5.990   3.278  0.2325 -0.5819  0.1116
   58MOL   C16221936   2.673   6.194   3.008  0.1325  0.0418  0.2485
   58MOL   H16321937   2.723   6.006   3.023 -1.7388  0.1248 -1.5037
   58MOL   H16421938   2.499   6.200   3.283  0.5551  2.0331  1.8719
   58MOL   H16521939   2.529   6.194   3.507  0.9971 -0.6253  0.8932
   58MOL   H16621940   2.741   5.954   3.709  1.2081  0.8091  0.0107
   58MOL   H16721941   2.769   6.132   3.702 -2.0281  0.5815  3.5455
   58MOL   H16821942   2.608   6.076   3.686 -0.4209 -0.0579 -2.5460
   58MOL   H16921943   2.858   5.921   3.464 -1.2846 -1.2406  0.5656
   58MOL   H17021944   2.831   5.943   3.207 -0.1596 -0.5591 -0.2666
   58MOL   H17121945   2.751   6.243   3.066 -0.7869  1.1153  0.6079
   58MOL   H17221946   2.592   6.266   3.021  1.1001  0.9105  1.5682
   58MOL   C17321947   2.718   6.197   2.865  0.4134 -0.1646  0.8200
   58MOL   C17421948   2.858   6.148   2.850 -0.5773  0.0124  0.2874
   58MOL   C17521949   2.964   6.213   2.916 -0.1546  0.0007 -0.3764
   58MOL   C17621950   3.097   6.175   2.904  0.2389  0.0125  0.2216
   58MOL   C17721951   3.130   6.067   2.824  0.8459  0.3371 -0.1347
   58MOL   C17821952   3.274   6.013   2.806  0.3191 -0.1906 -0.0818
   58MOL   C17921953   3.024   5.997   2.765 -0.0645 -0.5913  0.1892
   58MOL   C18021954   2.892   6.035   2.775  0.2336  0.4534 -0.3183
   58MOL   C18121955   2.698   6.333   2.808  0.1048  0.4333 -0.3667
   58MOL   H18221956   2.657   6.128   2.807 -2.1937  2.7034 -0.0036
   58MOL   H18321957   2.948   6.301   2.977 -0.6835 -0.9771  0.9026
   58MOL   H18421958   3.171   6.242   2.947  0.8758  0.1222 -1.0180
   58MOL   H18521959   3.287   5.905   2.803  4.4855  0.1633  1.4212
   58MOL   H18621960   3.320   6.061   2.720 -4.0234  2.0017 -1.3123
   58MOL   H18721961   3.340   6.034   2.891  1.0382 -1.0568 -0.4211
   58MOL   H18821962   3.047   5.906   2.712  0.8960 -1.1137  1.4602
   58MOL   H18921963   2.811   5.980   2.728 -0.8575  1.5431  0.2539
   58MOL   H19021964   2.738   6.409   2.876 -0.8979  0.2350  0.4592
   58MOL   H19121965   2.593   6.357   2.824  0.6939  2.5529  0.5372
   58MOL   C19221966   2.734   6.348   2.655 -0.3397 -0.3084 -0.0768
   58MOL   C19321967   2.870   6.416   2.630  0.1251  0.5244  0.6802
   58MOL   C19421968   2.973   6.350   2.556  1.2445  0.2883 -0.5545
   58MOL   C19521969   3.102   6.405   2.546 -0.5678  1.1283 -0.7554
   58MOL   C19621970   3.126   6.530   2.602  0.1308  0.2355 -0.1415
   58MOL   C19721971   3.262   6.594   2.601  0.1344 -0.0040 -0.2472
   58MOL   C19821972   3.018   6.609   2.653 -0.8152 -0.0185  0.2203
   58MOL   C19921973   2.894   6.549   2.671 -0.1827  0.0978 -0.2325
   58MOL   C20021974   2.627   6.409   2.564  0.3086 -1.1239  0.0152
   58MOL   H20121975   2.737   6.245   2.620 -0.8420 -0.5884  0.6889
   58MOL   H20221976   2.965   6.250   2.516  1.1415  0.1172 -0.1149
   58MOL   H20321977   3.183   6.358   2.493  0.5989  0.4248  1.6028
   58MOL   H20421978   3.313   6.548   2.516  1.0845  0.0729  0.2812
   58MOL   H20521979   3.248   6.701   2.584 -0.9939  0.3921  2.9981
   58MOL   H20621980   3.306   6.574   2.698  0.2625  1.3895 -0.0036
   58MOL   H20721981   3.051   6.709   2.675  0.2329 -0.1647 -0.6121
   58MOL   H20821982   2.812   6.612   2.703 -0.3258 -0.7060  1.0116
   58MOL   H20921983   2.656   6.414   2.460  0.2152  0.6159  0.0579
   58MOL   H21021984   2.614   6.507   2.611  1.3814 -1.2392  0.5808
   58MOL   C21121985   2.479   6.340   2.577  0.6055  0.1428  0.4353
   58MOL   C21221986   2.482   6.193   2.531  0.1106 -0.3545  0.5534
   58MOL   C21321987   2.416   6.086   2.603 -0.3630 -0.0246 -0.4112
   58MOL   C21421988   2.438   5.950   2.567  0.2147  0.2953 -0.1302
   58MOL   C21521989   2.499   5.922   2.442  0.3751  0.3373 -0.7677
   58MOL   C21621990   2.505   5.776   2.409  0.0531  0.0631  0.5397
   58MOL   C21721991   2.555   6.023   2.362  0.1416  0.1159 -0.9550
   58MOL   C21821992   2.548   6.158   2.410 -0.5588  0.2578  0.3608
   58MOL   C21921993   2.363   6.415   2.501 -0.2790  0.2420  0.0562
   58MOL   H22021994   2.431   6.329   2.674  1.6364 -0.3118  0.9028
   58MOL   H22121995   2.370   6.115   2.696  3.0743  1.2429  0.9770
   58MOL   H22221996   2.405   5.871   2.633 -0.3162  0.9963  0.4606
   58MOL   H22321997   2.425   5.716   2.451  0.2530 -0.2145  0.5330
   58MOL   H22421998   2.509   5.762   2.300  2.9558  1.0993  0.4589
   58MOL   H22521999   2.602   5.732   2.434 -0.2927 -2.0416 -1.5614
   58MOL   H22622000   2.607   6.002   2.270  2.3180  0.1178  0.2516
   58MOL   H22722001   2.579   6.237   2.344  0.4855 -0.4060  0.0345
   58MOL   H22822002   2.279   6.345   2.501 -0.6220  0.6278 -1.5250
   58MOL   H22922003   2.396   6.433   2.398  0.2352 -0.7503  0.0380
   58MOL   C23022004   2.299   6.549   2.549  0.5916  0.1601  0.0324
   58MOL   C23122005   2.360   6.598   2.682 -0.0527 -0.2860  0.1405
   58MOL   C23222006   2.329   6.541   2.804 -0.2715  0.1010 -0.2389
   58MOL   C23322007   2.393   6.569   2.923  0.3762  0.6159  0.0910
   58MOL   C23422008   2.501   6.659   2.922  0.5481  0.3358  0.7399
   58MOL   C23522009   2.575   6.673   3.053 -0.0050  0.0262  0.1679
   58MOL   C23622010   2.529   6.727   2.805 -0.7275  0.1882  0.1777
   58MOL   C23722011   2.464   6.695   2.688 -0.2208  0.0958 -0.0436
   58MOL   C23822012   2.148   6.556   2.529 -0.0015 -0.1621  0.1555
   58MOL   H23922013   2.332   6.614   2.468 -1.7194 -0.8551 -1.7582
   58MOL   H24022014   2.252   6.465   2.805 -2.1977  1.9956  1.5914
   58MOL   H24122015   2.367   6.518   3.015 -0.4564 -0.2718 -0.6246
   58MOL   H24222016   2.646   6.755   3.057 -1.4128  1.1866  2.1252
   58MOL   H24322017   2.501   6.686   3.131 -0.2110  3.4060 -0.5213
   58MOL   H24422018   2.628   6.578   3.063  1.7876  0.8729 -0.9544
   58MOL   H24522019   2.613   6.794   2.802 -0.6194  0.0990  1.1317
   58MOL   H24622020   2.495   6.731   2.591  1.3972  0.4907  0.5927
   58MOL   H24722021   2.088   6.521   2.613  0.5962  0.0046  0.6535
   58MOL   H24822022   2.130   6.496   2.440 -0.0009 -0.5253  0.4010
   58MOL   C24922023   2.100   6.708   2.490 -0.0213  0.0974 -0.8996
   58MOL   C25022024   2.171   6.821   2.570  0.1073 -0.1878  0.9003
   58MOL   C25122025   2.140   6.853   2.707  0.5826 -0.2543  0.0846
   58MOL   C25222026   2.206   6.957   2.773  0.5659  0.1406  0.1281
   58MOL   C25322027   2.308   7.020   2.704  0.2919  0.2855 -0.5220
   58MOL   C25422028   2.398   7.116   2.770 -0.8294 -0.0356 -0.1240
   58MOL   C25522029   2.335   6.997   2.566  0.4906  0.0224 -0.4137
   58MOL   C25622030   2.276   6.888   2.501 -0.3853  0.4034 -0.8037
   58MOL   C25722031   1.943   6.707   2.505  0.1070 -1.4153 -0.1808
   58MOL   H25822032   2.118   6.721   2.384 -1.1439 -2.0976 -1.3888
   58MOL   H25922033   2.071   6.797   2.769 -0.9606 -0.3128 -1.6352
   58MOL   H26022034   2.203   6.987   2.877 -1.0508  1.3258 -0.2411
   58MOL   H26122035   2.334   7.200   2.794 -2.0348 -1.1501  0.6698
   58MOL   H26222036   2.437   7.085   2.867 -0.6898  0.5183 -0.0043
   58MOL   H26322037   2.484   7.153   2.714 -0.5472  0.0672  0.3712
   58MOL   H26422038   2.408   7.055   2.511 -0.0878  0.2452 -0.9415
   58MOL   H26522039   2.289   6.869   2.395 -1.6446 -0.2493 -0.8494
   58MOL   H26622040   1.906   6.806   2.477  1.4859 -1.6395 -3.0294
   58MOL   H26722041   1.902   6.689   2.604  1.2039 -2.8820  0.0153
   58MOL   C26822042   1.866   6.608   2.415  0.2714 -0.2661 -0.1107
   58MOL   C26922043   1.906   6.633   2.268  0.1654  1.2061  0.1872
   58MOL   C27022044   1.988   6.538   2.197  0.4963  0.0845  0.2448
   58MOL   C27122045   2.023   6.565   2.066  0.4565  0.1046  0.1349
   58MOL   C27222046   1.970   6.681   2.003 -0.2004 -0.1441  0.0880
   58MOL   C27322047   2.004   6.702   1.857  0.2160 -0.0161 -0.0315
   58MOL   C27422048   1.887   6.767   2.070  0.4609  0.5160 -0.6111
   58MOL   C27522049   1.854   6.744   2.201 -0.8669 -0.4444 -1.4638
   58MOL   C27622050   1.712   6.610   2.436  0.5877 -0.5147  0.1960
   58MOL   H27722051   1.910   6.511   2.440  0.2180 -0.9236 -2.4590
   58MOL   H27822052   2.032   6.446   2.234  1.7659  1.5040  2.3135
   58MOL   H27922053   2.075   6.496   2.002  1.4320  1.1362 -0.2101
   58MOL   H28022054   2.079   6.630   1.824  0.6833 -0.2333  1.4631
   58MOL   H28122055   1.912   6.701   1.799  1.2588  0.6468 -1.7390
   58MOL   H28222056   2.033   6.806   1.839  0.6056  0.0424  0.8941
   58MOL   H28322057   1.846   6.857   2.026 -0.6021 -0.7070 -2.2185
   58MOL   H28422058   1.791   6.814   2.253  0.8174 -0.6852  0.9691
   58MOL   H28522059   1.679   6.565   2.342 -1.8778 -1.3948  1.4405
   58MOL   H28622060   1.662   6.706   2.435 -0.6703 -1.1319  1.6250
   58MOL   C28722061   1.657   6.521   2.546 -0.0002  0.1366 -0.3147
   58MOL   C28822062   1.672   6.375   2.512  0.1092  0.4051  0.0692
   58MOL   C28922063   1.611   6.324   2.392  0.0941 -0.5246 -0.1284
   58MOL   C29022064   1.619   6.188   2.361 -0.6504 -0.5895  0.0461
   58MOL   C29122065   1.681   6.095   2.453  0.4165  0.3392 -0.2766
   58MOL   C29222066   1.692   5.946   2.424  0.2120  0.4832 -0.4246
   58MOL   C29322067   1.756   6.146   2.561 -0.2559 -0.3225 -0.3461
   58MOL   C29422068   1.752   6.283   2.591  0.2787  0.0487 -0.0791
   58MOL   C29522069   1.509   6.561   2.563 -0.0161  0.2487  1.1393
   58MOL   H29622070   1.711   6.545   2.638 -0.6487  0.6105 -0.0500
   58MOL   H29722071   1.557   6.396   2.333  1.7337  1.8833  1.2447
   58MOL   H29822072   1.570   6.161   2.269 -2.5335  1.5827  0.3768
   58MOL   H29922073   1.612   5.901   2.482  1.2038  0.7543  1.1822
   58MOL   H30022074   1.665   5.932   2.319  0.8328  1.8726 -0.7906
   58MOL   H30122075   1.791   5.908   2.448 -0.9363 -1.7206  0.9748
   58MOL   H30222076   1.805   6.079   2.630 -1.5801 -0.3543  0.5711
   58MOL   H30322077   1.805   6.323   2.677  0.5802  2.6151 -1.4184
   58MOL   H30422078   1.452   6.553   2.470  2.5198  0.0690 -0.4357
   58MOL   H30522079   1.483   6.663   2.592 -0.3889  0.2353  0.8527
   58MOL   C30622080   1.427   6.472   2.666  0.0479 -0.6713 -0.0726
   58MOL   C30722081   1.287   6.447   2.616  0.1109  0.4489 -0.2993
   58MOL   C30822082   1.172   6.486   2.686 -0.1228 -0.3784 -0.0492
   58MOL   C30922083   1.041   6.436   2.657 -0.4218 -0.5750  0.3154
   58MOL   C31022084   1.025   6.353   2.542 -0.0429  0.0605  0.1822
   58MOL   C31122085   0.891   6.315   2.485 -0.2749  0.1264 -0.7923
   58MOL   C31222086   1.138   6.316   2.468  0.5421 -0.3763 -0.0599
   58MOL   C31322087   1.263   6.362   2.508  0.3672  0.5156  0.3229
   58MOL   C31422088   1.425   6.549   2.805  0.0293 -0.0303 -0.2404
   58MOL   H31522089   1.474   6.374   2.677 -2.1105 -1.8914 -1.2747
   58MOL   H31622090   1.171   6.556   2.769 -0.7219 -0.9946  0.4731
   58MOL   H31722091   0.951   6.476   2.702 -0.2843  1.6425 -1.2984
   58MOL   H31822092   0.876   6.209   2.503  1.6036 -0.4484 -2.4773
   58MOL   H31922093   0.814   6.382   2.523  1.3197  1.9796 -0.7497
   58MOL   H32022094   0.901   6.324   2.377 -0.2305  1.7516 -0.6629
   58MOL   H32122095   1.130   6.258   2.377  1.0910  0.2143 -0.4916
   58MOL   H32222096   1.348   6.344   2.444  1.7141  0.5289  2.0473
   58MOL   H32322097   1.355   6.489   2.864 -0.4356 -0.9333 -1.6693
   58MOL   H32422098   1.379   6.645   2.784 -3.8709 -1.7930 -0.2175
   58MOL   C32522099   1.556   6.581   2.869  0.4758 -0.0580  0.2136
   58MOL   C32622100   1.643   6.462   2.906  0.4561  0.0304  0.4045
   58MOL   C32722101   1.782   6.467   2.901 -0.1022  0.5957  0.4619
   58MOL   C32822102   1.864   6.355   2.939  0.0418  0.5911  0.2656
   58MOL   C32922103   1.805   6.235   2.976 -0.8062  0.3269 -0.3528
   58MOL   C33022104   1.884   6.111   2.999  0.4132 -0.3624  0.6939
   58MOL   C33122105   1.665   6.223   2.963  0.0553 -0.2699 -0.3695
   58MOL   C33222106   1.587   6.332   2.940 -0.1516  0.3320 -0.1362
   58MOL   C33322107   1.526   6.652   3.000 -0.3998 -0.1329 -0.6423
   58MOL   H33422108   1.612   6.651   2.807 -0.0851 -0.2914 -0.5769
   58MOL   H33522109   1.831   6.562   2.881  0.3601  0.0620 -1.0315
   58MOL   H33622110   1.972   6.354   2.937  0.0084 -0.3868 -2.4741
   58MOL   H33722111   1.970   6.097   2.933 -0.6534 -0.2578 -0.7313
   58MOL   H33822112   1.933   6.122   3.096 -1.4244 -3.1145  1.9898
   58MOL   H33922113   1.819   6.025   2.985 -1.0111  0.8953 -0.5359
   58MOL   H34022114   1.603   6.136   2.982  0.8856 -0.7859  0.0514
   58MOL   H34122115   1.481   6.315   2.946  0.1524 -1.9144 -0.6445
   58MOL   H34222116   1.623   6.651   3.049 -0.8463  0.2101  0.2431
   58MOL   H34322117   1.452   6.599   3.059  0.1177 -1.4290 -1.1522
   58MOL   C34422118   1.480   6.799   2.977  0.6400 -0.3786 -0.3462
   58MOL   C34522119   1.564   6.877   2.883  0.4857 -0.1469  0.5157
   58MOL   C34622120   1.703   6.887   2.907 -0.9849  0.5778  0.2336
   58MOL   C34722121   1.789   6.964   2.826  0.2535  0.0452 -0.8286
   58MOL   C34822122   1.733   7.027   2.712 -0.5875  0.0618  0.5642
   58MOL   C34922123   1.822   7.096   2.612  0.1437 -0.4091  0.2587
   58MOL   C35022124   1.596   7.014   2.681 -0.0993  0.0386 -0.0370
   58MOL   C35122125   1.510   6.943   2.767  0.2739  0.7663 -0.8954
   58MOL   C35222126   1.469   6.883   3.119  0.1037 -0.2522 -0.2183
   58MOL   H35322127   1.380   6.801   2.932 -0.0973  0.3448  1.2788
   58MOL   H35422128   1.747   6.829   2.987  2.3914 -0.2383 -2.0918
   58MOL   H35522129   1.897   6.960   2.838  0.2565  0.0295 -0.8631
   58MOL   H35622130   1.883   7.165   2.670  2.2690 -1.4791 -0.6542
   58MOL   H35722131   1.887   7.042   2.543 -1.1252 -1.3178 -0.2486
   58MOL   H35822132   1.755   7.153   2.546  1.8352  1.6248  0.2319
   58MOL   H35922133   1.546   7.064   2.599 -2.0901 -1.0970  0.4585
   58MOL   H36022134   1.405   6.930   2.745  0.0181  2.4388 -0.7037
   58MOL   H36122135   1.462   6.990   3.097  1.5555 -0.5572 -2.3527
   58MOL   H36222136   1.558   6.887   3.182 -0.4619 -2.5963  0.7805
   58MOL   C36322137   1.349   6.846   3.205 -0.1694 -0.4270  0.2948
   58MOL   C36422138   1.222   6.819   3.117  0.3931 -0.2982 -0.2546
   58MOL   C36522139   1.176   6.683   3.108 -0.0155 -0.2683  0.1451
   58MOL   C36622140   1.063   6.650   3.027  0.4098  0.2374 -0.4909
   58MOL   C36722141   1.008   6.740   2.941  0.1604 -0.3299 -0.2203
   58MOL   C36822142   0.895   6.701   2.850 -0.5506  0.0994  0.5753
   58MOL   C36922143   1.052   6.874   2.944  0.2362  0.8169 -0.4910
   58MOL   C37022144   1.156   6.914   3.034  0.5970  0.1275 -0.7414
   58MOL   C37122145   1.316   6.938   3.325  0.8279 -0.7025  0.1985
   58MOL   H37222146   1.371   6.753   3.257 -2.4771 -1.1569 -0.0162
   58MOL   H37322147   1.219   6.598   3.159 -1.5712 -2.1645 -1.5558
   58MOL   H37422148   1.036   6.546   3.019 -1.0192  0.2565  3.1612
   58MOL   H37522149   0.932   6.703   2.748  1.5408 -3.0958  1.2061
   58MOL   H37622150   0.848   6.604   2.864  0.3798 -0.3651  0.5415
   58MOL   H37722151   0.820   6.780   2.849 -0.1375  0.5327  1.9268
   58MOL   H37822152   1.011   6.947   2.877  1.7389  1.7110 -0.4582
   58MOL   H37922153   1.185   7.018   3.033 -0.8239  0.5310 -0.5885
   58MOL   H38022154   1.269   7.027   3.283  0.3632 -0.4174  1.2876
   58MOL   H38122155   1.401   6.972   3.385 -0.8161  3.2783  0.4538
   58MOL   H38222156   1.248   6.883   3.390 -0.0541  1.9446  1.5985
   59MOL     C122157   3.895   1.945   7.850  0.2756  0.1624  0.2168
   59MOL     C222158   3.988   1.912   7.967 -0.3684  0.4961  0.4611
   59MOL     C322159   3.925   1.894   0.011  0.2106 -0.5028  0.1298
   59MOL     C422160   4.000   1.860   0.127 -0.6076 -0.3592 -0.3764
   59MOL     C522161   4.140   1.859   0.122 -0.4090  0.0667 -0.1753
   59MOL     C622162   4.229   1.828   0.246 -0.2679 -0.7087 -0.4458
   59MOL     C722163   4.206   1.881   8.079  0.0655 -0.3638 -0.0788
   59MOL     C822164   4.131   1.897   7.961  0.3534  0.1627 -0.6330
   59MOL     C922165   3.844   1.822   7.778  0.1564 -0.2992 -0.1139
   59MOL    H1022166   3.813   2.008   7.885  0.9207  0.7751  0.6269
   59MOL    H1122167   3.817   1.902   0.015  0.1868 -0.7148 -0.1175
   59MOL    H1222168   3.944   1.848   0.219 -1.4972 -1.5968 -1.0583
   59MOL    H1322169   4.248   1.723   0.263  1.3927 -0.7190 -2.1763
   59MOL    H1422170   4.327   1.874   0.232 -1.0970  0.8208 -1.4329
   59MOL    H1522171   4.187   1.874   0.335  1.3608 -1.5987  0.8067
   59MOL    H1622172   4.314   1.883   8.078  0.0919 -1.6668 -2.7643
   59MOL    H1722173   4.174   1.901   7.862 -1.6312 -0.1861 -1.5319
   59MOL    H1822174   3.793   1.758   7.851 -0.7340  1.8350  1.1931
   59MOL    H1922175   3.929   1.767   7.740  1.3263  0.4131  1.4101
   59MOL    H2022176   3.953   2.007   7.782  1.0631 -1.5015 -0.6706
   59MOL    C2122177   3.747   1.846   7.661  0.8571 -0.0371 -0.1570
   59MOL    C2222178   3.624   1.929   7.696  0.2582 -0.0462  0.2046
   59MOL    C2322179   3.631   2.069   7.676 -0.0389 -0.8021  0.5507
   59MOL    C2422180   3.524   2.147   7.715  0.1852 -0.0433  0.0894
   59MOL    C2522181   3.403   2.087   7.757  0.1695 -0.1210 -0.3286
   59MOL    C2622182   3.290   2.181   7.811  0.2078  0.1501  0.0131
   59MOL    C2722183   3.396   1.945   7.775 -0.5489  0.2831 -0.0565
   59MOL    C2822184   3.510   1.867   7.741  0.1463  0.2500 -0.0719
   59MOL    C2922185   3.716   1.718   7.575 -0.0455  0.2547  0.6560
   59MOL    H3022186   3.806   1.909   7.594  2.0316 -1.2183 -0.2543
   59MOL    H3122187   3.726   2.109   7.645 -0.5045 -0.0353  0.1224
   59MOL    H3222188   3.527   2.255   7.718 -0.7651 -0.0315  0.8982
   59MOL    H3322189   3.321   2.218   7.909  0.5991 -1.0979  0.3723
   59MOL    H3422190   3.284   2.275   7.757 -0.5711 -1.4180 -2.7206
   59MOL    H3522191   3.189   2.139   7.810  0.4665 -0.5648 -3.2275
   59MOL    H3622192   3.312   1.898   7.823 -1.4739  2.2625  0.2882
   59MOL    H3722193   3.510   1.759   7.751  0.4168  0.2791  0.2468
   59MOL    H3822194   3.661   1.651   7.641  2.8759 -1.1862  1.7270
   59MOL    H3922195   3.808   1.668   7.543 -0.6019  0.0082 -0.5741
   59MOL    C4022196   3.616   1.743   7.457 -0.1321  0.9420  0.8234
   59MOL    C4122197   3.572   1.597   7.399 -0.0920 -0.0050  0.3478
   59MOL    C4222198   3.629   1.544   7.287  0.7194  0.3026  0.0312
   59MOL    C4322199   3.580   1.429   7.221 -0.1547 -0.8532 -0.1616
   59MOL    C4422200   3.466   1.367   7.279 -0.0529  0.1295 -0.7824
   59MOL    C4522201   3.384   1.260   7.201  0.0391 -0.3893  0.5288
   59MOL    C4622202   3.415   1.406   7.403 -0.5861 -0.2834 -0.2920
   59MOL    C4722203   3.460   1.527   7.459  0.8254  0.0785 -0.2168
   59MOL    C4822204   3.678   1.835   7.343 -0.3518  0.4988 -0.2390
   59MOL    H4922205   3.519   1.784   7.485 -0.7740 -0.7447  1.1821
   59MOL    H5022206   3.715   1.590   7.241  0.0940 -0.8949 -2.4410
   59MOL    H5122207   3.626   1.394   7.129 -1.7189 -0.1310 -1.2554
   59MOL    H5222208   3.359   1.176   7.265 -0.7421 -1.8405 -1.6408
   59MOL    H5322209   3.294   1.300   7.155  0.1720 -2.1956 -1.3792
   59MOL    H5422210   3.448   1.216   7.124  0.0041 -1.5718  1.1815
   59MOL    H5522211   3.326   1.353   7.434 -0.1246 -1.2515 -0.5791
   59MOL    H5622212   3.420   1.562   7.553 -1.7552 -2.5392 -0.2541
   59MOL    H5722213   3.754   1.784   7.285 -2.2598 -0.1719 -2.2051
   59MOL    H5822214   3.722   1.922   7.391 -0.1565 -0.1565  0.8093
   59MOL    C5922215   3.573   1.882   7.232 -0.5563  0.2492  0.1498
   59MOL    C6022216   3.653   1.922   7.112  0.2728 -0.9396  0.1550
   59MOL    C6122217   3.659   1.845   6.995 -0.3210 -0.1565 -0.5033
   59MOL    C6222218   3.731   1.876   6.882 -0.2788  0.0136 -0.0899
   59MOL    C6322219   3.815   1.989   6.883  0.1109 -0.5698 -0.2508
   59MOL    C6422220   3.894   2.027   6.759 -0.7812  0.3329 -0.1577
   59MOL    C6522221   3.813   2.075   6.996 -0.6029  0.1384 -0.6392
   59MOL    C6622222   3.733   2.045   7.114  0.1149 -0.0905 -0.1258
   59MOL    C6722223   3.481   1.994   7.280  0.3096 -0.8055  0.6769
   59MOL    H6822224   3.512   1.798   7.199 -0.4859  0.6247 -0.9543
   59MOL    H6922225   3.594   1.758   6.992  0.0030 -0.4614  0.9716
   59MOL    H7022226   3.742   1.800   6.807 -0.7939  1.6371 -1.8520
   59MOL    H7122227   3.841   2.000   6.668  0.7126 -0.6334 -0.7550
   59MOL    H7222228   3.911   2.135   6.765  0.9857  0.1272 -1.1559
   59MOL    H7322229   3.991   1.978   6.765 -0.8575  0.3773  2.2576
   59MOL    H7422230   3.878   2.161   6.994  0.9163 -1.0491 -2.6139
   59MOL    H7522231   3.733   2.109   7.201  0.7800  0.2862 -0.3954
   59MOL    H7622232   3.493   2.090   7.229  0.8554 -2.0700 -1.6615
   59MOL    H7722233   3.504   2.011   7.385  1.7462 -0.0645  0.2603
   59MOL    C7822234   3.325   1.974   7.270 -0.8862 -0.0682 -0.3953
   59MOL    C7922235   3.266   2.117   7.278 -0.1555 -0.2093 -0.1247
   59MOL    C8022236   3.199   2.172   7.165 -0.4248  0.2253 -1.1054
   59MOL    C8122237   3.132   2.291   7.177  0.5223 -0.2096  0.4377
   59MOL    C8222238   3.133   2.366   7.293  0.8361  0.1657  0.6678
   59MOL    C8322239   3.069   2.504   7.293 -0.8673  0.8086 -0.7762
   59MOL    C8422240   3.203   2.319   7.405 -0.4333  0.5582 -0.2976
   59MOL    C8522241   3.263   2.191   7.400  0.2742 -0.0845  0.4408
   59MOL    C8622242   3.279   1.871   7.373 -0.7847 -0.4206 -0.7815
   59MOL    H8722243   3.293   1.923   7.179 -0.3443  0.0468 -0.6583
   59MOL    H8822244   3.195   2.116   7.073 -0.8274 -0.1009 -0.8909
   59MOL    H8922245   3.097   2.322   7.080  1.1193 -0.3458  0.1744
   59MOL    H9022246   3.125   2.588   7.335  1.2016 -1.2688  0.7893
   59MOL    H9122247   3.064   2.531   7.188  0.4472 -0.4564 -1.1806
   59MOL    H9222248   2.969   2.485   7.333 -0.3156  1.3858  0.9622
   59MOL    H9322249   3.205   2.371   7.499 -0.6491  0.1736 -0.0758
   59MOL    H9422250   3.306   2.161   7.494  2.1218  1.3600  0.0815
   59MOL    H9522251   3.319   1.908   7.468  0.4987  0.8044 -1.7712
   59MOL    H9622252   3.320   1.773   7.350  0.6091  0.4605 -2.1660
   59MOL    C9722253   3.132   1.867   7.391  0.4380 -0.1713 -0.1911
   59MOL    C9822254   3.114   1.799   7.529 -0.0400 -0.0431  0.0470
   59MOL    C9922255   3.060   1.875   7.637 -0.1337  0.0101 -0.5753
   59MOL   C10022256   3.017   1.808   7.754  0.4879  0.5120  0.0404
   59MOL   C10122257   3.049   1.670   7.770 -0.0526 -0.8462 -0.6708
   59MOL   C10222258   3.003   1.596   7.890  0.2389  0.2187  0.2860
   59MOL   C10322259   3.126   1.602   7.671  0.0119 -0.0461 -0.2191
   59MOL   C10422260   3.154   1.662   7.550 -0.0925 -0.1138  0.2024
   59MOL   C10522261   3.041   1.792   7.291 -0.2387 -0.6518  0.2527
   59MOL   H10622262   3.097   1.970   7.402  0.5501 -0.0887 -0.5926
   59MOL   H10722263   3.030   1.978   7.625  0.1204  0.0342 -1.0137
   59MOL   H10822264   2.973   1.861   7.837 -0.5428  0.6413 -0.5708
   59MOL   H10922265   2.920   1.656   7.929 -1.1522 -2.3366  1.3871
   59MOL   H11022266   2.969   1.496   7.865  0.1921  0.3083 -0.0023
   59MOL   H11122267   3.087   1.606   7.958 -0.5362 -0.8871  1.4283
   59MOL   H11222268   3.154   1.498   7.678 -0.1697 -0.1449 -0.9696
   59MOL   H11322269   3.185   1.603   7.465  0.3044 -0.3355  0.4968
   59MOL   H11422270   2.985   1.718   7.348 -1.3986 -1.1918 -1.5343
   59MOL   H11522271   3.098   1.734   7.219  2.1071  0.2150  1.3832
   59MOL   C11622272   2.932   1.885   7.229 -0.6301 -0.6745  0.0109
   59MOL   C11722273   2.837   1.949   7.324  0.8349  0.0261  0.2076
   59MOL   C11822274   2.861   2.086   7.357 -0.1336 -1.1251  0.1254
   59MOL   C11922275   2.791   2.158   7.455 -0.0240  0.0605 -0.2310
   59MOL   C12022276   2.682   2.099   7.519  0.2010  1.1302  0.7237
   59MOL   C12122277   2.593   2.184   7.608 -0.0107 -0.2361  0.1861
   59MOL   C12222278   2.659   1.965   7.495  0.5438  0.3131  0.4252
   59MOL   C12322279   2.731   1.889   7.394 -0.4712 -0.3924  0.7001
   59MOL   C12422280   2.845   1.801   7.120 -0.2451 -0.0947  0.3784
   59MOL   H12522281   2.976   1.968   7.174 -2.7819 -0.0598 -0.8646
   59MOL   H12622282   2.944   2.130   7.304 -1.0515  1.3445  0.6468
   59MOL   H12722283   2.809   2.263   7.473  0.6484 -0.0433 -0.2885
   59MOL   H12822284   2.490   2.154   7.586 -1.3610  3.0488  1.5503
   59MOL   H12922285   2.615   2.175   7.715 -2.2357 -1.4336  0.5742
   59MOL   H13022286   2.600   2.288   7.576 -2.8830  0.3317  1.2522
   59MOL   H13122287   2.575   1.929   7.553  0.8373  1.0172  1.2879
   59MOL   H13222288   2.718   1.785   7.367 -1.9193  0.8007 -3.7405
   59MOL   H13322289   2.806   1.712   7.169 -0.8675 -1.2956 -2.1856
   59MOL   H13422290   2.902   1.755   7.039  0.1197  2.2663 -0.7517
   59MOL   C13522291   2.731   1.877   7.049  0.1402  0.5073  0.2305
   59MOL   C13622292   2.633   1.795   6.966  0.3212 -0.1656 -0.1159
   59MOL   C13722293   2.491   1.784   6.997 -0.2922  1.0990  0.1213
   59MOL   C13822294   2.409   1.703   6.920 -0.5760 -0.2599  0.3728
   59MOL   C13922295   2.458   1.633   6.805 -0.3806  0.0784  0.2785
   59MOL   C14022296   2.367   1.554   6.723 -0.4132  0.2877 -0.1405
   59MOL   C14122297   2.593   1.645   6.775  0.4534  0.4940 -0.1768
   59MOL   C14222298   2.678   1.726   6.854  0.3056 -0.2923  0.0253
   59MOL   C14322299   2.781   1.985   6.957  0.2912 -0.2138  0.1438
   59MOL   H14422300   2.667   1.906   7.132 -0.3602 -0.9861  0.3704
   59MOL   H14522301   2.456   1.834   7.086 -2.5840 -1.9493  1.0078
   59MOL   H14622302   2.306   1.703   6.953 -0.9341  0.5740 -0.7320
   59MOL   H14722303   2.403   1.536   6.622 -1.0179  2.0443 -0.6788
   59MOL   H14822304   2.359   1.453   6.765 -0.2604  0.0689 -0.6332
   59MOL   H14922305   2.273   1.608   6.718 -0.0014  1.0266  0.1329
   59MOL   H15022306   2.637   1.599   6.687 -1.7020 -0.7036 -0.6733
   59MOL   H15122307   2.782   1.719   6.827  0.1439 -0.7656 -0.4843
   59MOL   H15222308   2.734   1.968   6.860 -0.0394 -1.7161  0.5464
   59MOL   H15322309   2.890   1.990   6.947  0.1485  2.2253 -0.3326
   59MOL   C15422310   2.739   2.120   7.006  0.0435 -0.8133  0.3719
   59MOL   C15522311   2.580   2.122   7.026  0.0314  0.1768  0.0725
   59MOL   C15622312   2.530   2.141   7.158 -0.3850  0.2394  0.4689
   59MOL   C15722313   2.397   2.148   7.186  0.9004 -0.2533 -0.5507
   59MOL   C15822314   2.306   2.147   7.081 -0.0750  0.0553  0.8986
   59MOL   C15922315   2.150   2.170   7.099 -0.0058 -0.5695 -0.3805
   59MOL   C16022316   2.349   2.127   6.950  0.0774 -0.3819 -0.7336
   59MOL   C16122317   2.486   2.112   6.921  0.2097  0.2517  0.5934
   59MOL   C16222318   2.787   2.232   6.913  0.2303  0.6485 -0.0363
   59MOL   H16322319   2.788   2.124   7.104  1.2580 -0.8981 -0.2267
   59MOL   H16422320   2.606   2.138   7.235 -0.0464  1.5692  0.1977
   59MOL   H16522321   2.349   2.169   7.280  0.1642  1.3054 -1.2505
   59MOL   H16622322   2.126   2.188   7.204  2.1485 -3.7438  0.7333
   59MOL   H16722323   2.115   2.258   7.044 -1.2474 -0.9433 -0.1915
   59MOL   H16822324   2.100   2.081   7.061 -1.8319  0.0855  0.4400
   59MOL   H16922325   2.279   2.121   6.868 -1.1054 -0.2206  0.2536
   59MOL   H17022326   2.516   2.106   6.818 -2.7102  0.1921 -0.3027
   59MOL   H17122327   2.750   2.196   6.817  0.8827 -1.9919  0.6580
   59MOL   H17222328   2.893   2.232   6.888  0.1597 -1.5698 -0.4409
   59MOL   C17322329   2.731   2.375   6.934 -0.6213  0.6594 -0.4146
   59MOL   C17422330   2.761   2.470   6.821  0.7192 -0.7424  0.2394
   59MOL   C17522331   2.660   2.550   6.761  0.0996 -0.2813 -0.3851
   59MOL   C17622332   2.686   2.651   6.666 -0.0881  0.1824 -0.4310
   59MOL   C17722333   2.819   2.676   6.620 -0.3237 -0.3981 -0.6675
   59MOL   C17822334   2.845   2.778   6.517  0.4675  0.0099  0.1164
   59MOL   C17922335   2.925   2.597   6.675 -0.3974 -0.3904 -0.7970
   59MOL   C18022336   2.895   2.499   6.777  0.3063 -0.8732 -0.8337
   59MOL   C18122337   2.779   2.439   7.072 -0.4301  0.1448  0.0667
   59MOL   H18222338   2.624   2.362   6.952 -0.4873  4.0126  3.5418
   59MOL   H18322339   2.562   2.524   6.798  0.3563  0.8063  1.1099
   59MOL   H18422340   2.597   2.699   6.629 -1.5216 -3.9685 -2.6894
   59MOL   H18522341   2.930   2.838   6.550  0.7755 -0.9669  1.1158
   59MOL   H18622342   2.881   2.726   6.428 -1.2213 -2.5866  0.9000
   59MOL   H18722343   2.758   2.840   6.496 -0.1853 -1.3543 -1.3009
   59MOL   H18822344   3.023   2.640   6.665 -0.9663  1.4022  1.0286
   59MOL   H18922345   2.974   2.447   6.830  0.9065 -1.1791 -1.9943
   59MOL   H19022346   2.875   2.488   7.056 -0.6577  0.1574 -1.3119
   59MOL   H19122347   2.782   2.359   7.145 -1.0647 -0.6301 -0.7479
   59MOL   C19222348   2.688   2.556   7.132  0.1439 -0.5801 -0.3650
   59MOL   C19322349   2.777   2.661   7.205 -0.7281 -0.6489 -0.3369
   59MOL   C19422350   2.781   2.680   7.342 -0.5601  0.5787  0.1034
   59MOL   C19522351   2.863   2.770   7.401 -0.2540 -0.8876 -0.2796
   59MOL   C19622352   2.950   2.847   7.323  0.1713 -0.1326 -0.3628
   59MOL   C19722353   3.048   2.942   7.389  0.7216  0.3169  0.8452
   59MOL   C19822354   2.947   2.837   7.184  0.2654 -0.3863 -0.0487
   59MOL   C19922355   2.863   2.741   7.121  0.6100 -0.0281  0.0961
   59MOL   C20022356   2.568   2.491   7.205  0.2683 -0.6717 -0.0934
   59MOL   H20122357   2.640   2.614   7.054  1.3368 -1.7192 -1.9854
   59MOL   H20222358   2.711   2.623   7.402  0.4844  0.5616  1.3443
   59MOL   H20322359   2.863   2.777   7.508  4.5686  0.2844 -0.2186
   59MOL   H20422360   3.122   2.974   7.316  0.1773  2.0290  1.0197
   59MOL   H20522361   3.004   3.029   7.439 -0.9542 -0.0621  0.0820
   59MOL   H20622362   3.094   2.875   7.462 -0.0951 -0.5615  0.5677
   59MOL   H20722363   3.021   2.887   7.124  1.1043 -0.2412  1.0720
   59MOL   H20822364   2.870   2.734   7.014 -0.9582 -1.5607  0.0743
   59MOL   H20922365   2.604   2.434   7.290 -0.6235  0.1380  0.8425
   59MOL   H21022366   2.516   2.420   7.141 -0.5972 -1.7044  1.7139
   59MOL   C21122367   2.457   2.595   7.253 -0.8917  0.1121  0.0282
   59MOL   C21222368   2.419   2.578   7.397  0.7651  0.0728  0.2891
   59MOL   C21322369   2.330   2.469   7.431  0.2985  0.1788  0.4316
   59MOL   C21422370   2.297   2.450   7.568  0.1706 -0.7696 -0.8771
   59MOL   C21522371   2.341   2.539   7.671 -0.3839 -0.3239  0.3988
   59MOL   C21622372   2.298   2.528   7.814 -0.0722 -0.1489 -0.1555
   59MOL   C21722373   2.420   2.647   7.633 -0.3456 -0.2105 -0.8236
   59MOL   C21822374   2.464   2.658   7.502  0.8052 -0.0741 -1.0270
   59MOL   C21922375   2.340   2.612   7.157 -0.1555  0.5664 -0.6600
   59MOL   H22022376   2.507   2.692   7.249 -0.9074  0.0466 -2.4658
   59MOL   H22122377   2.296   2.405   7.352 -1.3472  1.6592 -0.0822
   59MOL   H22222378   2.232   2.366   7.589 -1.7669  0.8593 -0.1606
   59MOL   H22322379   2.349   2.600   7.878  2.5732 -1.6754 -0.4775
   59MOL   H22422380   2.195   2.556   7.835 -0.1787 -1.8991  1.7819
   59MOL   H22522381   2.318   2.425   7.842 -0.2664 -0.5996 -1.6189
   59MOL   H22622382   2.465   2.715   7.704  0.5711  0.1075 -1.7067
   59MOL   H22722383   2.537   2.736   7.486 -0.3258  1.7165  2.1193
   59MOL   H22822384   2.253   2.564   7.201  0.5494 -0.7169 -0.6332
   59MOL   H22922385   2.363   2.555   7.067  0.4135 -0.6508  0.2483
   59MOL   C23022386   2.298   2.761   7.126  0.5604  0.2789  0.3322
   59MOL   C23122387   2.149   2.776   7.097 -0.5921  0.1090 -0.1199
   59MOL   C23222388   2.074   2.826   7.196 -0.3416  0.1778  0.0765
   59MOL   C23322389   1.932   2.837   7.182 -0.8042 -0.5026  0.1694
   59MOL   C23422390   1.873   2.802   7.056 -0.2902  0.0725 -0.2354
   59MOL   C23522391   1.725   2.816   7.033 -0.3296 -0.6720 -0.4625
   59MOL   C23622392   1.955   2.743   6.952  0.2512 -0.0885 -0.0493
   59MOL   C23722393   2.094   2.731   6.975  0.2193 -0.0002 -0.6894
   59MOL   C23822394   2.379   2.826   7.014  0.2980 -0.2833  0.4325
   59MOL   H23922395   2.320   2.817   7.218 -0.6836 -0.2019  0.9303
   59MOL   H24022396   2.115   2.861   7.290 -1.8632  2.2860  0.0096
   59MOL   H24122397   1.874   2.885   7.259  0.2265 -0.4482  0.9332
   59MOL   H24222398   1.680   2.717   7.022  0.0505 -0.7728 -1.1255
   59MOL   H24322399   1.674   2.879   7.107  0.2438 -1.6137  0.7498
   59MOL   H24422400   1.701   2.877   6.946  0.2776  0.2312 -0.0009
   59MOL   H24522401   1.910   2.711   6.859  1.0231  0.4082 -0.6012
   59MOL   H24622402   2.155   2.704   6.890  0.5464  5.6414 -2.4742
   59MOL   H24722403   2.381   2.756   6.931 -1.7635  1.0422 -0.8098
   59MOL   H24822404   2.479   2.839   7.054 -0.1192  4.4040  0.2705
   59MOL   C24922405   2.329   2.964   6.952 -0.2258 -0.3600 -0.1615
   59MOL   C25022406   2.416   3.002   6.835  0.8345  0.1700 -0.3609
   59MOL   C25122407   2.540   3.062   6.858 -0.2571  0.1630  0.4880
   59MOL   C25222408   2.610   3.113   6.749 -0.6109  0.0322 -0.0884
   59MOL   C25322409   2.572   3.093   6.616  0.1281  0.4347  0.5068
   59MOL   C25422410   2.637   3.154   6.501  0.3620  0.1616  0.5459
   59MOL   C25522411   2.446   3.026   6.594 -0.2812  0.0088 -0.1574
   59MOL   C25622412   2.365   2.986   6.702  0.3100 -0.3785  0.0437
   59MOL   C25722413   2.318   3.060   7.073  0.1980  0.6900  0.1061
   59MOL   H25822414   2.230   2.965   6.907 -1.4120  3.1618  2.3081
   59MOL   H25922415   2.572   3.084   6.959 -1.1317  2.7536  0.2355
   59MOL   H26022416   2.702   3.166   6.772 -1.1801  1.1094 -0.2373
   59MOL   H26122417   2.652   3.257   6.537 -0.3254 -0.8106  3.8227
   59MOL   H26222418   2.733   3.106   6.482  0.3001  0.9163 -1.8041
   59MOL   H26322419   2.575   3.156   6.412  1.0250 -3.5696 -0.0773
   59MOL   H26422420   2.419   3.000   6.492 -0.7830  2.1984 -0.6076
   59MOL   H26522421   2.275   2.933   6.673  0.2372  0.1779 -0.7517
   59MOL   H26622422   2.417   3.080   7.115  0.9267  2.0978 -2.1383
   59MOL   H26722423   2.268   3.005   7.151 -0.5637 -0.4903 -1.1937
   59MOL   C26822424   2.251   3.195   7.063 -0.2548 -0.3895  0.0724
   59MOL   C26922425   2.255   3.257   7.207  0.7962 -0.2963  0.2571
   59MOL   C27022426   2.164   3.210   7.305 -0.2688 -0.1588 -0.4590
   59MOL   C27122427   2.174   3.257   7.439  0.3252  0.2826  0.0706
   59MOL   C27222428   2.261   3.365   7.474 -0.2741  0.3258 -0.5359
   59MOL   C27322429   2.293   3.406   7.617 -0.0471 -0.0091  0.3533
   59MOL   C27422430   2.340   3.417   7.369 -0.4502  0.5572 -0.4198
   59MOL   C27522431   2.342   3.362   7.235  0.1344  0.4397 -0.3383
   59MOL   C27622432   2.108   3.179   7.011 -0.3954  0.4525 -0.0839
   59MOL   H27722433   2.314   3.252   6.995 -0.4358  0.8532  0.9117
   59MOL   H27822434   2.107   3.119   7.293  1.1544 -1.2846  1.0669
   59MOL   H27922435   2.119   3.203   7.515  1.5848 -0.2354  0.6220
   59MOL   H28022436   2.235   3.488   7.660  0.9757  0.1706  1.3994
   59MOL   H28122437   2.282   3.321   7.684  0.4082 -2.1272 -2.2003
   59MOL   H28222438   2.399   3.431   7.617  0.1825 -0.9511  1.2836
   59MOL   H28322439   2.409   3.496   7.395 -0.0218 -0.5680  2.0155
   59MOL   H28422440   2.410   3.404   7.163  1.6937 -1.8206 -0.2288
   59MOL   H28522441   2.055   3.110   7.077 -1.0791  2.7732  1.9140
   59MOL   H28622442   2.110   3.139   6.910 -0.5543 -1.2467  0.5811
   59MOL   C28722443   2.026   3.311   6.994 -0.1382 -0.6867 -0.2008
   59MOL   C28822444   1.910   3.330   7.092 -0.1412  0.6542  0.5443
   59MOL   C28922445   1.889   3.449   7.166  0.1962  0.0068  0.1072
   59MOL   C29022446   1.781   3.466   7.253 -0.1583  0.1713 -0.3348
   59MOL   C29122447   1.697   3.358   7.280  0.8790 -0.4879  1.2947
   59MOL   C29222448   1.582   3.375   7.374 -0.1945 -0.1598  0.7770
   59MOL   C29322449   1.719   3.238   7.214  0.5426 -0.2043  0.1215
   59MOL   C29422450   1.831   3.219   7.130 -0.2307  0.4793  0.9689
   59MOL   C29522451   1.971   3.323   6.848 -0.7482  0.7987 -0.8510
   59MOL   H29622452   2.101   3.388   7.009 -1.7341  0.8105  0.2657
   59MOL   H29722453   1.956   3.532   7.149  0.4810 -0.3102 -0.3254
   59MOL   H29822454   1.768   3.557   7.310 -0.9331  1.1923 -2.1120
   59MOL   H29922455   1.597   3.469   7.428 -2.7930 -1.6177  4.2227
   59MOL   H30022456   1.493   3.372   7.312  0.0227 -3.2350  0.5815
   59MOL   H30122457   1.569   3.300   7.452  0.2750  0.3807  1.3772
   59MOL   H30222458   1.667   3.145   7.234 -1.7869  1.1678  0.5091
   59MOL   H30322459   1.856   3.120   7.094 -1.0581  1.0208 -1.1947
   59MOL   H30422460   1.892   3.250   6.829 -0.3301  0.2319 -0.4264
   59MOL   H30522461   2.044   3.310   6.768  1.1480 -0.0272  0.9493
   59MOL   C30622462   1.889   3.456   6.814  0.1997  0.6251 -0.3622
   59MOL   C30722463   1.796   3.447   6.692  0.2869 -0.2072  0.3539
   59MOL   C30822464   1.849   3.412   6.570 -0.4135 -0.3063  0.0504
   59MOL   C30922465   1.758   3.385   6.467  0.5861  0.1775  0.5735
   59MOL   C31022466   1.622   3.413   6.475  0.6738  0.3474  0.1753
   59MOL   C31122467   1.535   3.385   6.357  0.4438  0.3144  0.9532
   59MOL   C31222468   1.573   3.455   6.595  0.2705 -0.2239  0.3784
   59MOL   C31322469   1.657   3.473   6.709  0.6344 -0.0706 -0.4059
   59MOL   C31422470   1.973   3.581   6.804  0.2500  0.9573 -0.6593
   59MOL   H31522471   1.818   3.465   6.895  0.4097 -1.2366  0.0480
   59MOL   H31622472   1.955   3.402   6.555 -0.1226  1.3046  0.9292
   59MOL   H31722473   1.803   3.344   6.378  0.0914  0.7771  0.0341
   59MOL   H31822474   1.575   3.298   6.305 -0.8980  0.6549 -0.7164
   59MOL   H31922475   1.435   3.351   6.382 -0.4613  2.9506  1.0534
   59MOL   H32022476   1.528   3.475   6.296 -0.4921 -1.3864 -1.5690
   59MOL   H32122477   1.467   3.470   6.613  0.0877  0.5444 -1.2347
   59MOL   H32222478   1.608   3.501   6.801  1.5123  0.3213 -0.0503
   59MOL   H32322479   2.043   3.571   6.721  1.1099 -0.6337  0.2275
   59MOL   H32422480   2.044   3.593   6.886 -1.1326 -1.5171  0.9736
   59MOL   C32522481   1.890   3.719   6.788 -0.2652  1.4133  0.0112
   59MOL   C32622482   1.985   3.827   6.738  0.1702 -0.0137  0.2694
   59MOL   C32722483   1.962   3.886   6.612 -0.2521 -0.3487 -0.1886
   59MOL   C32822484   2.048   3.988   6.565  0.2245  0.3030  0.2206
   59MOL   C32922485   2.161   4.025   6.643 -0.0947 -0.0521 -0.9320
   59MOL   C33022486   2.254   4.134   6.583 -0.1569 -0.1526  0.1206
   59MOL   C33122487   2.183   3.962   6.766  0.2002 -0.2927 -0.3292
   59MOL   C33222488   2.094   3.863   6.812 -0.4542  0.3658  0.2370
   59MOL   C33322489   1.797   3.752   6.910  0.4603  0.6050 -0.1032
   59MOL   H33422490   1.821   3.717   6.704  2.4970 -1.0198 -2.3137
   59MOL   H33522491   1.884   3.845   6.549  0.1786 -1.9240  0.2824
   59MOL   H33622492   2.037   4.039   6.470 -0.8516 -2.2085 -1.0346
   59MOL   H33722493   2.249   4.227   6.640  0.9553 -1.2119  1.9934
   59MOL   H33822494   2.359   4.106   6.579  0.1091  0.5168  1.7293
   59MOL   H33922495   2.218   4.153   6.482  0.1038  0.2933  0.1067
   59MOL   H34022496   2.270   3.980   6.827 -0.3016 -2.3822  1.0511
   59MOL   H34122497   2.118   3.818   6.907 -2.3329  0.2737  0.6888
   59MOL   H34222498   1.840   3.762   7.010  3.6658 -1.8516 -1.1826
   59MOL   H34322499   1.748   3.656   6.929  0.3905  0.9393  1.4915
   59MOL   C34422500   1.685   3.854   6.886 -0.0415  0.1002  0.2467
   59MOL   C34522501   1.634   3.907   7.016  0.5238 -0.2684 -0.1497
   59MOL   C34622502   1.622   4.045   7.037  0.0666  0.8908  0.6308
   59MOL   C34722503   1.558   4.094   7.150 -0.3560  0.2300 -0.5612
   59MOL   C34822504   1.524   4.005   7.251  0.9451  0.8566 -0.1635
   59MOL   C34922505   1.482   4.054   7.388 -0.0448 -0.5774 -0.2855
   59MOL   C35022506   1.527   3.863   7.234  0.0132 -0.0646 -0.2081
   59MOL   C35122507   1.585   3.819   7.111 -0.4444 -0.0673 -0.0723
   59MOL   C35222508   1.569   3.810   6.790 -0.0349  0.0100  0.4772
   59MOL   H35322509   1.732   3.937   6.834 -0.7194  0.9513  0.9615
   59MOL   H35422510   1.643   4.113   6.956 -0.6768  2.0669  1.4030
   59MOL   H35522511   1.541   4.200   7.165 -0.5291  0.2970 -1.1920
   59MOL   H35622512   1.494   3.975   7.461 -1.7852 -0.5197  0.1034
   59MOL   H35722513   1.535   4.139   7.430  1.5901 -1.5286 -0.4141
   59MOL   H35822514   1.374   4.073   7.388  0.3346  1.8745  0.5635
   59MOL   H35922515   1.514   3.792   7.314  1.3363 -2.7338 -2.2832
   59MOL   H36022516   1.605   3.713   7.100 -0.5042 -0.2912  1.8347
   59MOL   H36122517   1.509   3.730   6.832 -1.4686  0.0956 -1.3462
   59MOL   H36222518   1.608   3.755   6.704  0.1340 -0.1139  0.6314
   59MOL   C36322519   1.464   3.913   6.738  0.2019 -0.4368 -0.2242
   59MOL   C36422520   1.328   3.860   6.708 -0.5382 -1.0365  0.1968
   59MOL   C36522521   1.308   3.782   6.592  0.2576 -0.8244 -0.2307
   59MOL   C36622522   1.188   3.712   6.571 -0.0606  0.3543  0.1258
   59MOL   C36722523   1.082   3.736   6.658 -1.1202  0.0780  0.1457
   59MOL   C36822524   0.949   3.672   6.634 -0.1478  0.7178  0.1657
   59MOL   C36922525   1.098   3.818   6.770 -0.4609 -0.3493  0.3740
   59MOL   C37022526   1.221   3.888   6.791 -0.2018  0.2624  0.6599
   59MOL   C37122527   1.532   3.972   6.614  0.5263 -0.4262 -0.5065
   59MOL   H37222528   1.460   3.994   6.811 -0.6976 -1.1633  0.5385
   59MOL   H37322529   1.386   3.774   6.518  0.5589 -0.3646  0.0391
   59MOL   H37422530   1.186   3.657   6.479  0.7360  1.3549 -0.5113
   59MOL   H37522531   0.932   3.665   6.526 -3.9742 -2.0407  0.8434
   59MOL   H37622532   0.952   3.581   6.694  2.8009  0.0498 -0.9010
   59MOL   H37722533   0.859   3.724   6.666 -1.9744 -2.8660  1.1151
   59MOL   H37822534   1.009   3.824   6.831 -1.7587  1.5172 -1.6200
   59MOL   H37922535   1.232   3.957   6.873 -2.5983 -1.5046  2.5620
   59MOL   H38022536   1.633   4.001   6.642 -0.7546  2.0361  1.8186
   59MOL   H38122537   1.478   4.061   6.580 -1.4345 -0.3241  2.6604
   59MOL   H38222538   1.551   3.910   6.526 -1.1691  0.7791 -1.7659
   60MOL     C122539   5.043   1.503   1.675  0.9592  0.2106  0.4460
   60MOL     C222540   4.942   1.592   1.599  0.3039 -0.6668  0.6675
   60MOL     C322541   4.917   1.729   1.636  0.2565 -0.0669 -0.0889
   60MOL     C422542   4.814   1.811   1.573  0.2497  0.0148 -0.1645
   60MOL     C522543   4.753   1.762   1.456  1.0628 -0.8648 -0.2035
   60MOL     C622544   4.653   1.848   1.382  0.2088  0.5244 -0.1342
   60MOL     C722545   4.779   1.633   1.414 -0.6647  0.6635 -0.4594
   60MOL     C822546   4.881   1.553   1.478  0.3852 -0.9233  0.4015
   60MOL     C922547   4.958   1.418   1.772 -0.4572 -0.1373 -0.0145
   60MOL    H1022548   5.089   1.434   1.603 -0.5126 -0.6909  0.3405
   60MOL    H1122549   4.961   1.761   1.730  1.0218 -0.2705 -0.3766
   60MOL    H1222550   4.792   1.910   1.611  1.6336  0.6323 -0.9224
   60MOL    H1322551   4.557   1.854   1.434 -0.6478  1.5488 -1.7879
   60MOL    H1422552   4.693   1.948   1.365  2.0377 -0.3954 -1.3843
   60MOL    H1522553   4.640   1.825   1.277  0.8481  1.5710 -0.4558
   60MOL    H1622554   4.736   1.598   1.321  0.9769  1.1918 -1.4284
   60MOL    H1722555   4.900   1.455   1.436 -1.1669 -1.0440 -0.0342
   60MOL    H1822556   4.863   1.396   1.723 -0.7788 -0.4647  0.7445
   60MOL    H1922557   4.929   1.473   1.861 -0.2337  0.0025 -0.0287
   60MOL    H2022558   5.121   1.567   1.715 -0.0541  1.0121  1.1691
   60MOL    C2122559   5.012   1.280   1.821 -0.1734  0.5105 -0.4075
   60MOL    C2222560   4.899   1.198   1.878  0.3158  0.4733 -0.5156
   60MOL    C2322561   4.854   1.087   1.812  0.8264 -0.4634 -0.3925
   60MOL    C2422562   4.740   1.017   1.865 -0.5071 -0.2801 -0.5096
   60MOL    C2522563   4.678   1.059   1.984 -0.3789 -0.3775  0.4699
   60MOL    C2622564   4.550   0.989   2.036  0.2540 -0.0580 -0.0352
   60MOL    C2722565   4.738   1.169   2.057  0.0823 -0.9105  1.0560
   60MOL    C2822566   4.842   1.243   1.999 -0.4552  0.7146  0.5430
   60MOL    C2922567   5.129   1.276   1.924 -0.2418  0.1444  0.5017
   60MOL    H3022568   5.050   1.220   1.738  2.0314 -0.1397  1.0117
   60MOL    H3122569   4.892   1.061   1.714  0.2314  1.2843 -1.1131
   60MOL    H3222570   4.695   0.938   1.808 -0.7135 -1.0328  0.6699
   60MOL    H3322571   4.542   1.011   2.142 -0.3100  2.0756 -0.4865
   60MOL    H3422572   4.464   1.030   1.983  0.2598  0.4774  0.3633
   60MOL    H3522573   4.556   0.883   2.013 -2.5243  0.2451 -2.4809
   60MOL    H3622574   4.701   1.203   2.152  1.9420  1.2896  1.0317
   60MOL    H3722575   4.882   1.330   2.050 -0.8937  0.7792  0.7812
   60MOL    H3822576   5.102   1.341   2.008  0.9876  1.8215 -0.3669
   60MOL    H3922577   5.216   1.326   1.882  0.9565 -1.4896  0.9727
   60MOL    C4022578   5.175   1.137   1.979  0.6288 -0.3439 -0.2130
   60MOL    C4122579   5.248   1.167   2.108 -0.3140  0.2758 -0.6423
   60MOL    C4222580   5.382   1.218   2.094  0.1904  0.1623  0.0323
   60MOL    C4322581   5.463   1.231   2.210 -0.1203 -0.0339  0.0499
   60MOL    C4422582   5.414   1.200   2.334  0.7658 -0.1350  0.2683
   60MOL    C4522583   5.494   1.225   2.459 -0.0441 -0.0179  0.2367
   60MOL    C4622584   5.279   1.158   2.353  0.0356 -0.0913  0.4285
   60MOL    C4722585   5.192   1.133   2.241 -0.1336  0.0462 -0.1444
   60MOL    C4822586   5.258   1.046   1.879  0.5439 -0.1424  0.5889
   60MOL    H4922587   5.084   1.085   2.010  1.5652 -1.4596  0.7270
   60MOL    H5022588   5.426   1.232   1.997 -0.9048 -1.3092 -0.7102
   60MOL    H5122589   5.565   1.267   2.199 -0.4728  0.6064 -1.2137
   60MOL    H5222590   5.444   1.295   2.527 -0.8710  3.0848 -3.3952
   60MOL    H5322591   5.508   1.132   2.514 -0.1284 -0.2141 -0.0733
   60MOL    H5422592   5.590   1.272   2.441 -0.4152  1.4900  2.0252
   60MOL    H5522593   5.245   1.139   2.454  0.0942  0.9877  0.6563
   60MOL    H5622594   5.097   1.082   2.246 -0.0987 -0.3710 -3.0677
   60MOL    H5722595   5.350   1.101   1.861  0.0470  0.7292  0.6269
   60MOL    H5822596   5.228   1.063   1.775  1.6078 -0.9333  0.1533
   60MOL    C5922597   5.288   0.902   1.917 -0.7792  0.4419 -0.0319
   60MOL    C6022598   5.411   0.859   1.836  1.1980 -0.8949  0.2691
   60MOL    C6122599   5.405   0.831   1.696  0.2944  0.8776 -1.0180
   60MOL    C6222600   5.519   0.767   1.639  0.3009 -0.1481  0.3011
   60MOL    C6322601   5.626   0.720   1.710  0.4900  0.9327  0.1542
   60MOL    C6422602   5.732   0.647   1.626 -0.2848 -0.5477  0.1477
   60MOL    C6522603   5.631   0.756   1.846 -0.1415  0.1997 -0.2584
   60MOL    C6622604   5.528   0.832   1.905 -0.4736  0.2181 -0.4682
   60MOL    C6722605   5.164   0.815   1.883  0.0676 -0.7155  0.0471
   60MOL    H6822606   5.312   0.895   2.023 -1.3377  2.0741  0.2186
   60MOL    H6922607   5.309   0.852   1.651 -0.1376  0.0186 -0.5178
   60MOL    H7022608   5.523   0.748   1.533 -1.1683  2.9757 -0.3555
   60MOL    H7122609   5.726   0.669   1.520  1.3508 -0.5360  0.0391
   60MOL    H7222610   5.835   0.670   1.656 -0.9029  1.0452  1.1121
   60MOL    H7322611   5.728   0.539   1.639  0.3185 -0.9495 -2.7804
   60MOL    H7422612   5.710   0.726   1.913 -1.4221  2.2675  2.2928
   60MOL    H7522613   5.533   0.839   2.013  0.3530  0.8990 -0.5464
   60MOL    H7622614   5.123   0.849   1.788 -0.0271 -0.4943  0.1652
   60MOL    H7722615   5.089   0.849   1.954  0.0374 -1.4263  0.3540
   60MOL    C7822616   5.186   0.661   1.874 -0.3434 -0.0506 -0.2171
   60MOL    C7922617   5.062   0.586   1.833  0.1246 -0.2902 -0.3066
   60MOL    C8022618   5.045   0.559   1.696  0.4605  1.5635 -0.7512
   60MOL    C8122619   4.929   0.485   1.655 -0.4567 -1.5456 -0.4624
   60MOL    C8222620   4.828   0.449   1.747 -0.0646  0.7945  0.3983
   60MOL    C8322621   4.708   0.371   1.709  0.2859 -0.1772 -0.3990
   60MOL    C8422622   4.855   0.478   1.886 -0.0976  0.1020  0.1778
   60MOL    C8522623   4.969   0.544   1.929  0.1965  0.5241  0.0689
   60MOL    C8622624   5.256   0.602   2.001  0.3997 -0.0292  0.6854
   60MOL    H8722625   5.262   0.649   1.797  2.2356 -0.5482  2.3126
   60MOL    H8822626   5.109   0.604   1.622  1.7486  0.5500 -0.2642
   60MOL    H8922627   4.914   0.460   1.551  4.1797  0.5514 -1.7221
   60MOL    H9022628   4.630   0.369   1.785 -0.1946 -2.0856 -0.9212
   60MOL    H9122629   4.663   0.401   1.615  0.5100  0.1890 -0.3893
   60MOL    H9222630   4.734   0.265   1.696  1.7434  0.0556  0.4379
   60MOL    H9322631   4.778   0.450   1.956 -0.8757  0.5291 -0.4993
   60MOL    H9422632   4.987   0.563   2.034 -1.5676 -0.3546  0.5581
   60MOL    H9522633   5.190   0.637   2.080 -3.1418 -0.1206 -2.0980
   60MOL    H9622634   5.351   0.652   2.019  2.0989 -2.8678 -0.0256
   60MOL    C9722635   5.279   0.450   1.994  0.0920 -0.1591 -0.7266
   60MOL    C9822636   5.251   0.401   2.136 -0.2361 -0.2285 -0.0530
   60MOL    C9922637   5.342   0.412   2.242 -0.3113  0.2968 -0.1870
   60MOL   C10022638   5.310   0.358   2.368  0.4424  0.3731 -1.2229
   60MOL   C10122639   5.187   0.288   2.385  0.1510  0.4920 -0.2217
   60MOL   C10222640   5.148   0.236   2.518  0.5630  0.2462 -0.5283
   60MOL   C10322641   5.103   0.266   2.273  0.5838  0.4161 -0.2041
   60MOL   C10422642   5.139   0.327   2.153 -0.8268  0.3946 -0.4418
   60MOL   C10522643   5.424   0.426   1.952  0.9829  0.2358 -0.1158
   60MOL   H10622644   5.213   0.400   1.922 -0.6256  0.3685 -0.4430
   60MOL   H10722645   5.423   0.483   2.230 -1.5001  1.6289 -0.5905
   60MOL   H10822646   5.370   0.364   2.457  0.1174 -2.3068 -0.7878
   60MOL   H10922647   5.068   0.162   2.508  1.5671 -0.9294  0.0175
   60MOL   H11022648   5.235   0.192   2.566 -0.2030 -0.9092 -0.1629
   60MOL   H11122649   5.110   0.322   2.574 -1.7329  0.3946 -2.2201
   60MOL   H11222650   5.019   0.198   2.282  0.1995  0.9522  0.3144
   60MOL   H11322651   5.081   0.314   2.063 -1.2635 -1.3390  0.0700
   60MOL   H11422652   5.502   0.443   2.027  3.6865 -2.0865 -2.3104
   60MOL   H11522653   5.440   0.490   1.865 -1.4916 -0.4174 -1.0724
   60MOL   C11622654   5.442   0.284   1.893  0.5804  0.2673 -0.5521
   60MOL   C11722655   5.409   0.171   1.990 -0.9112 -0.9613 -0.5375
   60MOL   C11822656   5.327   0.067   1.943 -0.0774  0.3995  0.1222
   60MOL   C11922657   5.298   8.044   2.035 -0.1831 -0.0440 -0.3095
   60MOL   C12022658   5.347   8.034   2.164 -0.4277 -1.1256  0.4788
   60MOL   C12122659   5.311   7.916   2.251  0.1997  0.8791  0.2685
   60MOL   C12222660   5.439   0.054   2.209  0.2286 -0.0786  0.4732
   60MOL   C12322661   5.476   0.156   2.117 -0.2689  0.2387  0.3805
   60MOL   C12422662   5.583   0.268   1.826 -0.4094  0.4336 -0.5914
   60MOL   H12522663   5.368   0.281   1.813 -0.1918 -1.2208  0.1843
   60MOL   H12622664   5.282   0.067   1.845  2.1437 -0.2047 -0.9233
   60MOL   H12722665   5.232   7.969   1.995 -0.0976 -1.2515  1.7486
   60MOL   H12822666   5.358   7.827   2.210 -0.9199  0.8085 -0.8673
   60MOL   H12922667   5.344   7.936   2.353 -3.0364 -1.5004  1.8388
   60MOL   H13022668   5.204   7.899   2.260  0.1982  0.0010 -1.4192
   60MOL   H13122669   5.478   0.055   2.310 -3.0544 -2.5958  1.8692
   60MOL   H13222670   5.548   0.228   2.154 -1.2421  0.6746  1.4458
   60MOL   H13322671   5.651   0.272   1.910  2.2029 -3.0005 -2.4066
   60MOL   H13422672   5.616   0.350   1.762  1.2534 -0.9669 -1.5737
   60MOL   C13522673   5.603   0.132   1.762  1.1325 -0.5614  0.8646
   60MOL   C13622674   5.752   0.097   1.773  0.4831  0.0054 -0.7430
   60MOL   C13722675   5.785   8.067   1.857 -0.2719  0.0629 -0.2323
   60MOL   C13822676   5.922   8.026   1.871  0.1221  0.0803  0.8109
   60MOL   C13922677   6.027   0.019   1.797  0.2713 -0.3584  0.1799
   60MOL   C14022678   6.171   8.063   1.815  0.4578 -0.2132  0.2995
   60MOL   C14122679   5.989   0.132   1.722 -0.6446  0.7660  0.7128
   60MOL   C14222680   5.859   0.173   1.719  0.1662 -0.2144  0.4300
   60MOL   C14322681   5.563   0.140   1.611  0.6335 -0.1997  1.0151
   60MOL   H14422682   5.544   0.061   1.820 -0.5832  1.2869  1.4624
   60MOL   H14522683   5.706   8.005   1.897 -0.3317  0.3470  0.0873
   60MOL   H14622684   5.940   7.931   1.920  0.9129  0.1820  0.7244
   60MOL   H14722685   6.174   7.962   1.856  0.1520  0.8434  3.0096
   60MOL   H14822686   6.231   0.009   1.728  0.5976 -1.7414 -0.0855
   60MOL   H14922687   6.206   0.054   1.889 -2.4123  2.8850 -1.1505
   60MOL   H15022688   6.062   0.189   1.668  0.8264 -0.3797  1.4363
   60MOL   H15122689   5.840   0.269   1.675  0.2188  0.5339  1.9882
   60MOL   H15222690   5.620   0.223   1.570 -1.3886  0.6977 -0.0343
   60MOL   H15322691   5.455   0.156   1.612  0.9986  2.7408 -0.4640
   60MOL   C15422692   5.582   0.012   1.526  0.0090 -0.0773 -0.3703
   60MOL   C15522693   5.507   0.035   1.397 -0.1156  0.3530  0.0238
   60MOL   C15622694   5.573   0.071   1.277  0.1793  0.2000 -0.0605
   60MOL   C15722695   5.497   0.093   1.163  0.2194  0.3625  0.4638
   60MOL   C15822696   5.355   0.084   1.169  0.6112 -0.4928  0.4465
   60MOL   C15922697   5.272   0.118   1.052  0.2638 -0.3382  0.3516
   60MOL   C16022698   5.289   0.051   1.289  0.7426 -0.1321 -0.5451
   60MOL   C16122699   5.367   0.037   1.404  0.6241  0.3410  0.1147
   60MOL   C16222700   5.544   7.952   1.584  0.4054 -0.4005 -0.0162
   60MOL   H16322701   5.689   0.001   1.507  0.0322  1.1320 -0.9209
   60MOL   H16422702   5.681   0.073   1.272  0.2598 -0.7831  1.0385
   60MOL   H16522703   5.549   0.116   1.071  1.2627 -2.4809  0.2834
   60MOL   H16622704   5.335   0.121   0.963 -0.6402 -0.9351 -0.3091
   60MOL   H16722705   5.192   0.048   1.029  1.0561 -1.7124  1.6431
   60MOL   H16822706   5.232   0.216   1.074 -1.6491 -0.7308 -1.2772
   60MOL   H16922707   5.181   0.049   1.281  0.6124  0.4950  0.8600
   60MOL   H17022708   5.322   0.008   1.498  0.7055 -1.4494 -0.3914
   60MOL   H17122709   5.437   7.960   1.600  0.5569  2.0799 -0.0120
   60MOL   H17222710   5.585   7.945   1.685 -2.9207 -0.4083  1.3779
   60MOL   C17322711   5.587   7.826   1.509  0.4120 -0.0293 -0.1190
   60MOL   C17422712   5.740   7.815   1.505 -0.2817 -0.3631  0.1790
   60MOL   C17522713   5.819   7.846   1.396 -0.1186 -0.2720 -0.7453
   60MOL   C17622714   5.955   7.819   1.405 -0.6068  0.2880 -0.1500
   60MOL   C17722715   6.021   7.781   1.524  0.2663 -0.5385 -0.3539
   60MOL   C17822716   6.172   7.774   1.530 -0.3121  0.2279 -0.1267
   60MOL   C17922717   5.940   7.762   1.634 -0.5057  0.6239  0.3212
   60MOL   C18022718   5.801   7.770   1.628 -0.1038  0.2607 -0.2119
   60MOL   C18122719   5.523   7.803   1.370 -0.1004 -0.7883 -0.6304
   60MOL   H18222720   5.547   7.749   1.576  1.9811  0.2460  1.1626
   60MOL   H18322721   5.769   7.886   1.310  0.3604  1.1691 -0.3596
   60MOL   H18422722   6.003   7.854   1.314 -0.7275  2.7712  0.7017
   60MOL   H18522723   6.218   7.844   1.600  0.9522 -0.6395 -0.0726
   60MOL   H18622724   6.192   7.671   1.559 -0.2947 -0.1917 -1.5590
   60MOL   H18722725   6.217   7.783   1.431  1.1313 -0.3960  0.4578
   60MOL   H18822726   5.996   7.734   1.722 -2.1252 -0.1497  1.1317
   60MOL   H18922727   5.733   7.756   1.711 -1.9276 -1.5767 -1.9614
   60MOL   H19022728   5.565   7.881   1.306  0.9606 -0.6359  0.2178
   60MOL   H19122729   5.417   7.825   1.379 -0.3231 -2.5331  1.2045
   60MOL   C19222730   5.547   7.672   1.286  0.3110 -0.0431 -1.0378
   60MOL   C19322731   5.519   7.704   1.140  0.4872 -0.6242  0.3159
   60MOL   C19422732   5.410   7.785   1.093  0.1021 -0.1659 -0.0914
   60MOL   C19522733   5.406   7.818   0.955  0.0793  0.9697  1.1886
   60MOL   C19622734   5.496   7.765   0.863  0.4114  0.6921  0.0850
   60MOL   C19722735   5.492   7.792   0.712  0.0027  0.0140 -0.4711
   60MOL   C19822736   5.603   7.681   0.907  0.3752  0.6413 -0.6753
   60MOL   C19922737   5.617   7.667   1.045 -0.0162  0.9451  0.4016
   60MOL   C20022738   5.456   7.558   1.335 -0.1162 -0.2779 -0.1764
   60MOL   H20122739   5.652   7.644   1.297  0.4312  0.7953 -0.0375
   60MOL   H20222740   5.342   7.836   1.159  0.0412 -0.0289 -0.2574
   60MOL   H20322741   5.338   7.894   0.917  0.4261  0.4195 -0.5581
   60MOL   H20422742   5.399   7.843   0.688 -0.5934 -1.6149 -1.7121
   60MOL   H20522743   5.569   7.863   0.685  0.0920 -0.0455 -0.3755
   60MOL   H20622744   5.491   7.699   0.655  1.6487 -1.4131  1.7508
   60MOL   H20722745   5.666   7.644   0.828  1.5404  2.0919 -0.4407
   60MOL   H20822746   5.702   7.609   1.077 -0.7755 -1.1798 -1.2732
   60MOL   H20922747   5.435   7.482   1.261  0.7601 -1.0509  0.3494
   60MOL   H21022748   5.358   7.596   1.363  0.2344 -0.3957  1.2545
   60MOL   C21122749   5.539   7.478   1.444  0.5028 -0.2352 -0.2540
   60MOL   C21222750   5.655   7.403   1.386  0.2093  0.2795 -0.1009
   60MOL   C21322751   5.627   7.291   1.308 -0.2512  0.5747  0.1355
   60MOL   C21422752   5.736   7.223   1.243  0.5397 -0.2400  0.4458
   60MOL   C21522753   5.868   7.270   1.266 -0.0882  0.1378  1.1907
   60MOL   C21622754   5.979   7.196   1.196  0.3764  0.5209 -0.2579
   60MOL   C21722755   5.890   7.378   1.351  0.0703  0.1328  0.9111
   60MOL   C21822756   5.785   7.445   1.409  0.6410 -0.9058  0.2090
   60MOL   C21922757   5.431   7.389   1.521 -0.0476  0.6143  0.1200
   60MOL   H22022758   5.577   7.546   1.520 -0.3068 -1.2977  1.1045
   60MOL   H22122759   5.526   7.252   1.305  0.7372 -2.0662 -0.4326
   60MOL   H22222760   5.713   7.143   1.175  0.3512 -0.2718  0.5464
   60MOL   H22322761   5.954   7.096   1.161  1.0034 -0.3128  1.6292
   60MOL   H22422762   6.005   7.248   1.104  2.7644 -2.2513 -1.2149
   60MOL   H22522763   6.060   7.203   1.268 -0.4783  3.9433  0.4619
   60MOL   H22622764   5.989   7.416   1.372 -0.5231  1.8412  0.7233
   60MOL   H22722765   5.800   7.535   1.465 -0.6886  0.3428 -1.3761
   60MOL   H22822766   5.486   7.317   1.582 -1.1714  0.4572  0.9631
   60MOL   H22922767   5.365   7.337   1.452  0.7300 -2.2170  1.4338
   60MOL   C23022768   5.358   7.480   1.624  0.1682  0.1606  0.9861
   60MOL   C23122769   5.442   7.541   1.742 -0.7248 -0.3533 -0.3951
   60MOL   C23222770   5.399   7.658   1.809 -0.1480  0.7568  0.0934
   60MOL   C23322771   5.475   7.719   1.910 -0.5009 -0.2308 -0.1908
   60MOL   C23422772   5.597   7.657   1.943  0.2512  0.7582  0.4457
   60MOL   C23522773   5.679   7.723   2.045 -0.4116  0.4575 -0.1613
   60MOL   C23622774   5.640   7.535   1.888 -0.2937 -0.2800  0.6145
   60MOL   C23722775   5.568   7.478   1.780  0.5038  0.5461  0.5388
   60MOL   C23822776   5.241   7.405   1.692 -0.4782  0.1412  0.3585
   60MOL   H23922777   5.319   7.563   1.566 -1.4276 -1.6650 -0.6177
   60MOL   H24022778   5.305   7.703   1.780 -1.2995 -1.3569  0.4863
   60MOL   H24122779   5.439   7.806   1.962  1.0057  0.8589 -0.9105
   60MOL   H24222780   5.671   7.685   2.147 -0.1535  3.5604  1.0401
   60MOL   H24322781   5.787   7.716   2.035 -0.5685 -1.0496 -1.0119
   60MOL   H24422782   5.655   7.828   2.054  0.5133  0.7796 -1.2485
   60MOL   H24522783   5.726   7.485   1.930 -1.2297 -2.7898 -0.3077
   60MOL   H24622784   5.610   7.394   1.727  0.6158  0.8498  0.1483
   60MOL   H24722785   5.228   7.439   1.794 -0.0119  2.5156 -0.3402
   60MOL   H24822786   5.271   7.301   1.702  2.9018  1.0790  0.4432
   60MOL   C24922787   5.103   7.424   1.621  0.0284  0.0513 -0.0054
   60MOL   C25022788   5.045   7.561   1.649  0.1235 -0.3024  0.3448
   60MOL   C25122789   5.004   7.584   1.784 -0.3079  0.2178 -0.1448
   60MOL   C25222790   4.984   7.719   1.830  0.3279  0.4199  0.8330
   60MOL   C25322791   5.008   7.831   1.738  0.2046 -0.5849  0.2873
   60MOL   C25422792   4.978   7.971   1.777  1.2904  0.7964  0.0542
   60MOL   C25522793   5.033   7.803   1.605 -0.3831  0.5202  0.3195
   60MOL   C25622794   5.056   7.667   1.562 -0.6182 -0.1550  1.1479
   60MOL   C25722795   5.008   7.302   1.641 -0.5995 -0.3813  0.5252
   60MOL   H25822796   5.129   7.427   1.515  1.0043 -1.7658  0.1572
   60MOL   H25922797   4.996   7.496   1.846  1.4800 -0.4725 -0.8709
   60MOL   H26022798   4.949   7.739   1.930  0.2189  1.9652  0.4896
   60MOL   H26122799   4.969   7.988   1.884 -0.6872  0.0420  0.0323
   60MOL   H26222800   5.043   8.049   1.735 -0.0535  1.5009 -0.7497
   60MOL   H26322801   4.881   7.982   1.730  0.6354  0.5149  1.3284
   60MOL   H26422802   5.038   7.886   1.537  0.1890  1.3593  1.3749
   60MOL   H26522803   5.097   7.654   1.463  0.0026 -0.1801  1.4053
   60MOL   H26622804   4.904   7.327   1.622 -1.3625 -1.1754  3.3950
   60MOL   H26722805   5.021   7.281   1.747 -0.6239 -0.1733  0.5679
   60MOL   C26822806   5.055   7.189   1.548 -0.8730  0.7575  0.0653
   60MOL   C26922807   5.026   7.209   1.402  0.8629  1.0071  0.1027
   60MOL   C27022808   5.126   7.177   1.310 -0.1516 -0.8705 -0.3351
   60MOL   C27122809   5.093   7.188   1.178 -0.7143  0.5021 -0.5568
   60MOL   C27222810   4.965   7.223   1.126  0.2492 -0.8406 -0.3997
   60MOL   C27322811   4.946   7.225   0.978  0.8978 -0.7097  0.1877
   60MOL   C27422812   4.865   7.249   1.222 -0.9594 -0.7109  0.3557
   60MOL   C27522813   4.893   7.252   1.360  0.3102  0.2062 -0.9844
   60MOL   C27622814   5.000   7.054   1.590  0.2438 -0.0817  0.3194
   60MOL   H27722815   5.164   7.190   1.552 -0.7942 -2.0421 -0.0328
   60MOL   H27822816   5.226   7.146   1.334  0.3435  0.2789 -0.8528
   60MOL   H27922817   5.172   7.148   1.117 -0.6501 -2.7685  1.5167
   60MOL   H28022818   5.030   7.188   0.919  2.1640  0.3752  1.2731
   60MOL   H28122819   4.862   7.159   0.955  2.3117 -1.9976 -1.3713
   60MOL   H28222820   4.921   7.321   0.933  0.3216 -0.6897  0.5555
   60MOL   H28322821   4.770   7.260   1.171 -1.0948 -2.6660  0.1348
   60MOL   H28422822   4.814   7.267   1.432  2.9997  1.5392  1.8017
   60MOL   H28522823   5.006   6.990   1.502  0.8496  0.1466  0.1904
   60MOL   H28622824   4.893   7.059   1.610  0.4005  0.0450  1.1336
   60MOL   C28722825   5.061   6.973   1.710 -0.6015 -0.1874  0.0998
   60MOL   C28822826   5.216   6.962   1.694 -0.7435 -0.0039 -0.2102
   60MOL   C28922827   5.275   6.887   1.592  0.8484 -0.0221 -0.4524
   60MOL   C29022828   5.412   6.889   1.571 -0.5748  0.2671 -0.2088
   60MOL   C29122829   5.493   6.958   1.660  0.3357 -0.3606  0.1798
   60MOL   C29222830   5.636   6.960   1.625 -0.6269 -0.0857  0.1884
   60MOL   C29322831   5.439   7.031   1.768  0.2555  0.5760 -0.1845
   60MOL   C29422832   5.301   7.037   1.781  0.3747 -0.9426 -0.3190
   60MOL   C29522833   4.999   6.833   1.729  0.3375 -0.1049  0.5295
   60MOL   H29622834   5.036   7.033   1.797  0.7761  0.3734  0.1130
   60MOL   H29722835   5.194   6.849   1.531  0.7491  0.4085 -0.5940
   60MOL   H29822836   5.456   6.837   1.487 -0.2986  2.8398 -1.7072
   60MOL   H29922837   5.690   6.916   1.708  3.3911 -0.7765 -2.6889
   60MOL   H30022838   5.660   6.899   1.539  2.7908 -0.1230  1.0957
   60MOL   H30122839   5.661   7.063   1.599  1.7039 -0.2001  1.8363
   60MOL   H30222840   5.508   7.076   1.838  0.2520  0.3306 -0.0237
   60MOL   H30322841   5.252   7.091   1.860 -0.5562 -0.8586 -0.9473
   60MOL   H30422842   5.007   6.776   1.636  0.8535  0.4354  0.2399
   60MOL   H30522843   4.895   6.857   1.749 -0.3720 -0.9300 -1.9902
   60MOL   C30622844   5.059   6.751   1.847  0.4037 -0.5243 -0.2689
   60MOL   C30722845   4.997   6.612   1.833 -0.0478 -0.9059  0.3827
   60MOL   C30822846   5.071   6.487   1.812 -0.4933 -0.1121  0.5044
   60MOL   C30922847   5.008   6.362   1.800  0.0155 -0.4492  0.3846
   60MOL   C31022848   4.865   6.361   1.804  0.3013 -0.5173 -0.1269
   60MOL   C31122849   4.789   6.236   1.771 -0.4056 -0.5419  0.4886
   60MOL   C31222850   4.790   6.474   1.817 -0.1932 -0.2230  0.6430
   60MOL   C31322851   4.856   6.595   1.831 -0.4249 -0.2733 -0.5022
   60MOL   C31422852   5.045   6.819   1.985 -0.7666 -0.2959  0.8419
   60MOL   H31522853   5.165   6.742   1.821  0.2693 -2.4555 -0.2108
   60MOL   H31622854   5.179   6.491   1.812 -0.4920 -0.1544  0.2127
   60MOL   H31722855   5.065   6.271   1.789  0.4332  0.1105 -2.8356
   60MOL   H31822856   4.857   6.168   1.719 -1.3172  0.0866 -1.5875
   60MOL   H31922857   4.757   6.192   1.866  1.5146 -0.6340  1.1004
   60MOL   H32022858   4.708   6.264   1.704 -0.8915  0.0616  1.3146
   60MOL   H32122859   4.684   6.463   1.802  0.5552 -1.3796 -4.9360
   60MOL   H32222860   4.796   6.683   1.845 -0.2742 -0.5406  1.9548
   60MOL   H32322861   4.940   6.840   2.006 -0.7618  2.5486 -1.6951
   60MOL   H32422862   5.103   6.909   2.005 -2.4260  0.2669  3.3736
   60MOL   C32522863   5.106   6.727   2.097  0.2849  0.5954 -0.0066
   60MOL   C32622864   4.993   6.660   2.188 -0.5032  0.6084  0.1137
   60MOL   C32722865   4.989   6.522   2.188 -0.6912  0.5640  0.1783
   60MOL   C32822866   4.908   6.448   2.276  0.4128  0.4678  0.9371
   60MOL   C32922867   4.818   6.514   2.363 -0.5116 -0.9635 -0.1011
   60MOL   C33022868   4.721   6.439   2.451 -0.5722 -0.3285  0.0456
   60MOL   C33122869   4.809   6.653   2.346 -0.0493 -0.0945 -0.5781
   60MOL   C33222870   4.892   6.724   2.262  0.0258  0.9003 -0.0578
   60MOL   C33322871   5.223   6.783   2.185  0.0192 -0.4905 -0.9752
   60MOL   H33422872   5.154   6.649   2.039  1.7507  1.6776 -0.2844
   60MOL   H33522873   5.058   6.468   2.125  0.6621  0.7326  1.4805
   60MOL   H33622874   4.915   6.340   2.273  0.3014  0.5060 -0.9964
   60MOL   H33722875   4.683   6.351   2.400 -0.8171 -0.3108  0.1968
   60MOL   H33822876   4.768   6.427   2.549  2.2591  0.4166 -1.1628
   60MOL   H33922877   4.635   6.502   2.473 -1.5183 -1.8174  0.6683
   60MOL   H34022878   4.728   6.707   2.394 -0.6649 -2.6899  1.4379
   60MOL   H34122879   4.871   6.830   2.258 -0.3223  0.9538  2.4613
   60MOL   H34222880   5.215   6.719   2.273 -1.4909  1.2005  0.1599
   60MOL   H34322881   5.189   6.880   2.223 -0.0580 -0.7022 -0.4961
   60MOL   C34422882   5.361   6.793   2.125  0.2660  0.1700  0.2180
   60MOL   C34522883   5.399   6.657   2.060  0.4802  0.0493 -0.4863
   60MOL   C34622884   5.372   6.536   2.128  0.1331 -0.0289 -0.5611
   60MOL   C34722885   5.408   6.409   2.071  0.8634  0.4611  0.1917
   60MOL   C34822886   5.451   6.410   1.938  0.0801  0.5989 -0.3292
   60MOL   C34922887   5.467   6.283   1.853 -0.0658  0.4533 -0.8040
   60MOL   C35022888   5.477   6.536   1.871 -0.4197  0.6532 -0.1038
   60MOL   C35122889   5.458   6.660   1.933 -0.2739  0.0638 -0.1398
   60MOL   C35222890   5.477   6.829   2.223  0.0402  0.1348 -0.6776
   60MOL   H35322891   5.358   6.868   2.045  0.6888 -0.5897 -0.5190
   60MOL   H35422892   5.316   6.531   2.220 -0.9908  1.2167 -1.1562
   60MOL   H35522893   5.390   6.312   2.114 -0.8825  2.1952  3.5688
   60MOL   H35622894   5.565   6.283   1.806  0.6950 -0.7637  0.7202
   60MOL   H35722895   5.446   6.198   1.917  0.4308  1.8515  1.2795
   60MOL   H35822896   5.396   6.261   1.773 -1.7962 -0.4861  0.9563
   60MOL   H35922897   5.530   6.533   1.777 -1.2342 -0.1599 -0.5473
   60MOL   H36022898   5.477   6.756   1.888  1.8584 -1.4471 -2.5723
   60MOL   H36122899   5.566   6.839   2.160 -1.2998  0.2941 -2.5941
   60MOL   H36222900   5.490   6.744   2.290 -3.2887 -0.5220 -0.7944
   60MOL   C36322901   5.452   6.954   2.309 -0.2212  0.1622 -0.9832
   60MOL   C36422902   5.407   7.079   2.239 -0.1206  0.1252  0.4505
   60MOL   C36522903   5.470   7.134   2.122  0.5970 -1.0487  0.2712
   60MOL   C36622904   5.441   7.266   2.073 -0.5694  0.1570 -0.1230
   60MOL   C36722905   5.333   7.339   2.136  0.3381 -0.3635 -0.4644
   60MOL   C36822906   5.294   7.477   2.096  0.3517 -0.2250 -0.2284
   60MOL   C36922907   5.269   7.284   2.249  0.6041  0.2081  0.1720
   60MOL   C37022908   5.308   7.157   2.301  0.1405  0.0599  0.4765
   60MOL   C37122909   5.579   6.984   2.393 -0.4506 -0.5294  0.4791
   60MOL   H37222910   5.378   6.935   2.387  0.2219  2.8626  0.1545
   60MOL   H37322911   5.540   7.068   2.074 -3.0453 -3.4503 -2.0380
   60MOL   H37422912   5.501   7.303   1.991 -2.2200  1.5017 -0.7592
   60MOL   H37522913   5.214   7.517   2.159 -0.5869 -1.4891 -0.6099
   60MOL   H37622914   5.381   7.538   2.119 -1.0802  1.1288  1.7784
   60MOL   H37722915   5.275   7.486   1.989 -1.1213  2.3138  0.1780
   60MOL   H37822916   5.189   7.346   2.286 -0.3714 -0.6363 -0.4803
   60MOL   H37922917   5.276   7.134   2.401  1.7196 -1.4689  0.6411
   60MOL   H38022918   5.611   6.898   2.450  2.3924  0.0064 -0.2521
   60MOL   H38122919   5.562   7.071   2.457 -1.3709  1.4247 -2.3046
   60MOL   H38222920   5.665   7.001   2.328 -0.9028 -0.5288 -0.1288
   61MOL     C122921   4.208   5.757   0.836 -0.1453  1.0093 -0.4052
   61MOL     C222922   4.090   5.701   0.753 -0.0231  0.3962 -0.2577
   61MOL     C322923   4.053   5.757   0.633 -0.0897 -0.2675 -0.2650
   61MOL     C422924   3.953   5.693   0.558 -0.1500 -0.2726  0.0456
   61MOL     C522925   3.893   5.570   0.597  0.1518 -0.1418 -0.2540
   61MOL     C622926   3.787   5.499   0.515 -0.3540 -0.0663  0.1427
   61MOL     C722927   3.940   5.509   0.712  0.1558 -0.3178  0.1593
   61MOL     C822928   4.039   5.573   0.795 -0.8524 -0.5654  0.0792
   61MOL     C922929   4.340   5.683   0.809  0.4221  0.2808  0.2998
   61MOL    H1022930   4.214   5.862   0.809 -0.4519  0.7552 -1.4779
   61MOL    H1122931   4.096   5.852   0.607 -0.9276  0.6278  1.5361
   61MOL    H1222932   3.908   5.733   0.468 -0.0044  0.1765  0.1739
   61MOL    H1322933   3.749   5.414   0.573 -3.6088  1.4080  0.2671
   61MOL    H1422934   3.707   5.573   0.508  1.5978  2.0348 -0.6416
   61MOL    H1522935   3.809   5.466   0.414  1.9098 -0.3113  0.6940
   61MOL    H1622936   3.892   5.416   0.740 -2.3460  1.2920  1.4035
   61MOL    H1722937   4.084   5.522   0.879 -2.0924 -0.6566  0.7043
   61MOL    H1822938   4.328   5.641   0.709 -1.0318 -0.8525  0.9378
   61MOL    H1922939   4.346   5.607   0.887  0.2021 -1.5358 -1.4021
   61MOL    H2022940   4.193   5.759   0.944  0.8232  0.5635 -0.2518
   61MOL    C2122941   4.459   5.776   0.804 -0.6250 -0.7689 -0.0488
   61MOL    C2222942   4.479   5.853   0.937  0.2660  0.0325 -0.1357
   61MOL    C2322943   4.422   5.977   0.970  0.1790 -0.3629 -0.4714
   61MOL    C2422944   4.448   6.037   1.093 -0.4162  0.3028 -0.0226
   61MOL    C2522945   4.517   5.969   1.198 -0.4546  0.1551  0.1948
   61MOL    C2622946   4.548   6.030   1.334  0.5032  0.2812 -0.3950
   61MOL    C2722947   4.571   5.842   1.167  0.0591 -0.5109  0.1896
   61MOL    C2822948   4.548   5.787   1.039  0.2339 -0.4843  0.5304
   61MOL    C2922949   4.483   5.864   0.677 -0.0798 -0.7395 -0.1283
   61MOL    H3022950   4.544   5.709   0.807 -0.7476 -0.8960  0.8331
   61MOL    H3122951   4.375   6.034   0.891  1.4854 -1.1137 -1.8053
   61MOL    H3222952   4.418   6.140   1.099  0.2637  0.5103 -0.2014
   61MOL    H3322953   4.455   6.042   1.389 -0.1407 -1.3478 -1.0820
   61MOL    H3422954   4.608   5.962   1.393  0.0466 -1.3051 -1.6913
   61MOL    H3522955   4.597   6.126   1.318 -0.2191  0.8699  0.8541
   61MOL    H3622956   4.623   5.783   1.241 -0.1101 -0.5846  0.2484
   61MOL    H3722957   4.585   5.687   1.021 -0.8492 -0.7794 -0.0596
   61MOL    H3822958   4.391   5.921   0.668  0.3986  0.1016  0.3126
   61MOL    H3922959   4.495   5.791   0.597 -1.3382  0.4280 -1.3960
   61MOL    C4022960   4.608   5.958   0.681 -0.1053 -0.0015 -0.0416
   61MOL    C4122961   4.603   6.043   0.553 -0.8144 -0.1690 -0.1551
   61MOL    C4222962   4.589   6.185   0.563 -0.2314 -0.2453  0.1660
   61MOL    C4322963   4.599   6.270   0.452  0.9732 -0.0327  0.6927
   61MOL    C4422964   4.629   6.215   0.325 -0.5459 -0.8610 -0.1040
   61MOL    C4522965   4.648   6.302   0.203  0.7487  0.8148 -0.1524
   61MOL    C4622966   4.644   6.076   0.312  0.1693 -0.0123 -0.2832
   61MOL    C4722967   4.639   5.994   0.425  0.0544 -0.3726 -0.3603
   61MOL    C4822968   4.740   5.880   0.701  0.1748 -0.0806  0.2041
   61MOL    H4922969   4.595   6.035   0.758  1.1390 -1.1087  1.3224
   61MOL    H5022970   4.565   6.235   0.656  0.1906  0.8232 -0.2851
   61MOL    H5122971   4.590   6.376   0.471  3.2827  0.0728  1.3852
   61MOL    H5222972   4.741   6.359   0.204 -0.3969  2.7395  0.2736
   61MOL    H5322973   4.646   6.238   0.115  1.8442  1.9377 -1.0133
   61MOL    H5422974   4.564   6.372   0.197 -1.1090 -1.1462  2.2856
   61MOL    H5522975   4.666   6.035   0.215 -1.0499  2.4080 -1.6207
   61MOL    H5622976   4.651   5.889   0.405  0.5565 -0.2720 -0.5765
   61MOL    H5722977   4.760   5.832   0.606  0.5176 -0.3284  0.4034
   61MOL    H5822978   4.740   5.803   0.777 -1.5245  1.1224  1.4858
   61MOL    C5922979   4.862   5.972   0.733  0.0038 -0.2551  0.2395
   61MOL    C6022980   4.993   5.907   0.680 -0.4372  0.1663 -0.4445
   61MOL    C6122981   5.039   5.949   0.556  0.3751  0.0020 -0.3119
   61MOL    C6222982   5.141   5.875   0.490 -0.4022 -0.4560 -0.2619
   61MOL    C6322983   5.210   5.775   0.565 -0.1067  0.3615 -0.0262
   61MOL    C6422984   5.321   5.697   0.506  0.1697  0.2938 -0.1546
   61MOL    C6522985   5.168   5.752   0.695 -0.0782 -0.1284  0.3165
   61MOL    C6622986   5.061   5.808   0.755 -0.2116  0.1448 -0.6954
   61MOL    C6722987   4.868   6.017   0.881 -1.3508  0.5047  0.2809
   61MOL    H6822988   4.858   6.067   0.679  0.9384  0.3785  1.2667
   61MOL    H6922989   4.987   6.023   0.498 -1.0407 -1.0593 -0.4117
   61MOL    H7022990   5.173   5.897   0.389  1.3484  3.6437  1.0584
   61MOL    H7122991   5.275   5.600   0.489  1.3456 -0.0741 -1.3075
   61MOL    H7222992   5.348   5.756   0.418 -0.0961 -1.0086 -1.1281
   61MOL    H7322993   5.409   5.673   0.565  0.0191  0.3947  0.1124
   61MOL    H7422994   5.219   5.677   0.754  0.2166  0.2442  0.5413
   61MOL    H7522995   5.035   5.764   0.850 -0.8956 -2.6115 -2.1185
   61MOL    H7622996   4.892   5.933   0.946 -0.6766  0.8602  0.4882
   61MOL    H7722997   4.771   6.055   0.915 -0.8658  1.7348  0.3290
   61MOL    C7822998   4.983   6.124   0.919  0.3113 -0.1536 -0.0186
   61MOL    C7922999   4.981   6.144   1.069  0.5774 -0.2901 -0.2083
   61MOL    C8023000   5.090   6.101   1.143 -0.2198 -0.2404 -0.3910
   61MOL    C8123001   5.097   6.127   1.282 -0.1887 -0.3609  0.6502
   61MOL    C8223002   4.995   6.210   1.344 -0.1711  0.2200 -0.6683
   61MOL    C8323003   5.003   6.257   1.488 -0.4031  0.3794 -0.2428
   61MOL    C8423004   4.888   6.254   1.265 -0.1765 -0.2979  0.0349
   61MOL    C8523005   4.879   6.218   1.130  0.3411 -0.4376 -0.3053
   61MOL    C8623006   4.968   6.259   0.839 -0.4232  0.6947 -0.4583
   61MOL    H8723007   5.080   6.084   0.887  0.4398 -0.0789  0.2788
   61MOL    H8823008   5.161   6.045   1.085 -0.5666 -0.1751 -0.8850
   61MOL    H8923009   5.183   6.091   1.337  1.0617  1.0955 -0.3095
   61MOL    H9023010   4.943   6.344   1.513 -0.3030 -0.3761  2.8798
   61MOL    H9123011   4.986   6.173   1.556 -0.4826  2.0064  1.7899
   61MOL    H9223012   5.103   6.296   1.506 -0.5376  1.1140 -1.1040
   61MOL    H9323013   4.816   6.320   1.310 -0.8399  0.5673 -2.1994
   61MOL    H9423014   4.790   6.256   1.080  0.6524 -1.7428 -1.8845
   61MOL    H9523015   4.873   6.301   0.873  0.2188  0.1687  2.0588
   61MOL    H9623016   4.966   6.233   0.733  0.5033 -1.7907  0.0987
   61MOL    C9723017   5.078   6.357   0.859  0.2548  0.0810 -0.3645
   61MOL    C9823018   5.022   6.491   0.914  0.2274 -0.1089  0.3696
   61MOL    C9923019   5.012   6.516   1.052 -0.4531 -0.2473 -0.2733
   61MOL   C10023020   4.947   6.635   1.102 -0.2196 -0.8892  0.7058
   61MOL   C10123021   4.895   6.731   1.012 -0.3335 -0.2999  0.7033
   61MOL   C10223022   4.837   6.856   1.063 -0.0091 -1.2598 -0.5813
   61MOL   C10323023   4.915   6.707   0.874  0.3989 -0.6698 -0.3500
   61MOL   C10423024   4.973   6.587   0.824 -0.3068 -0.6708  0.2864
   61MOL   C10523025   5.160   6.390   0.732  0.2611 -0.1396 -0.6930
   61MOL   H10623026   5.143   6.325   0.940 -0.7710 -0.6149  0.2042
   61MOL   H10723027   5.048   6.448   1.127 -0.4167  2.2554  2.0755
   61MOL   H10823028   4.933   6.653   1.207  0.1501 -0.8599  0.7507
   61MOL   H10923029   4.864   6.877   1.166 -0.8640 -1.4508 -0.3201
   61MOL   H11023030   4.868   6.938   0.997 -0.6730 -0.8171 -0.3476
   61MOL   H11123031   4.729   6.845   1.062 -0.2812  0.8794  1.4559
   61MOL   H11223032   4.883   6.789   0.811  0.1391 -0.2050  0.3751
   61MOL   H11323033   4.967   6.566   0.718  2.2663  0.3748 -0.1094
   61MOL   H11423034   5.230   6.469   0.757  0.4066 -0.6335  0.5016
   61MOL   H11523035   5.091   6.425   0.655  0.8615  0.9732 -0.7407
   61MOL   C11623036   5.243   6.276   0.675  0.7400  0.5429 -0.3708
   61MOL   C11723037   5.337   6.223   0.782  0.0156 -1.1330  0.1418
   61MOL   C11823038   5.332   6.087   0.810 -0.7095  0.3875 -0.1925
   61MOL   C11923039   5.402   6.031   0.920 -0.5409 -0.1080  0.1887
   61MOL   C12023040   5.474   6.109   1.002  0.2379 -0.6714  0.4941
   61MOL   C12123041   5.536   6.057   1.128  0.8020  0.1306 -0.8490
   61MOL   C12223042   5.488   6.242   0.971 -0.0380  0.5218 -0.6058
   61MOL   C12323043   5.426   6.307   0.859 -0.5094  0.8193  0.0105
   61MOL   C12423044   5.330   6.325   0.550  0.4401  0.4197 -0.2156
   61MOL   H12523045   5.190   6.190   0.633 -0.0098  0.4842  0.6993
   61MOL   H12623046   5.277   6.018   0.749  0.5406 -0.4059 -0.4352
   61MOL   H12723047   5.393   5.924   0.935  0.0273 -0.1873 -0.0228
   61MOL   H12823048   5.479   6.109   1.204  1.6889  0.4292 -0.3871
   61MOL   H12923049   5.523   5.949   1.139 -1.0016  0.5172  1.0442
   61MOL   H13023050   5.640   6.078   1.152  0.3681  0.7494  0.5055
   61MOL   H13123051   5.539   6.307   1.041 -0.8957  1.7340 -1.0916
   61MOL   H13223052   5.435   6.413   0.838  1.5606  0.7171  0.2765
   61MOL   H13323053   5.427   6.348   0.592  0.2026  1.1675 -0.0749
   61MOL   H13423054   5.284   6.413   0.505  1.9860  0.8404 -1.0014
   61MOL   C13523055   5.369   6.229   0.436 -0.2566 -0.1057 -0.4846
   61MOL   C13623056   5.266   6.220   0.324  0.5144 -0.2423 -0.7496
   61MOL   C13723057   5.128   6.239   0.340 -0.2340  0.3512  0.4820
   61MOL   C13823058   5.047   6.204   0.233 -1.1782  0.3895  0.5955
   61MOL   C13923059   5.093   6.155   0.112 -0.9742  0.2339 -0.4654
   61MOL   C14023060   4.996   6.092   0.018  0.3249 -0.6607 -0.7009
   61MOL   C14123061   5.231   6.163   0.084 -0.3622  0.3181  0.2457
   61MOL   C14223062   5.320   6.198   0.190  0.0927  0.4377  0.0848
   61MOL   C14323063   5.413   6.086   0.477  0.0595  0.6387  0.2593
   61MOL   H14423064   5.451   6.274   0.380  1.5081 -1.9506  0.5437
   61MOL   H14523065   5.072   6.261   0.429  0.8189  2.3147  0.6865
   61MOL   H14623066   4.942   6.196   0.256 -0.8971 -1.0996  1.4527
   61MOL   H14723067   5.044   6.069   8.003  0.9676  1.0299 -0.8048
   61MOL   H14823068   4.954   6.001   0.060  2.3534 -0.5534  1.6964
   61MOL   H14923069   4.910   6.157   0.007  1.5527  0.7726 -2.0652
   61MOL   H15023070   5.275   6.124   8.073 -1.1266 -2.5815  1.0626
   61MOL   H15123071   5.425   6.181   0.174  0.3011 -0.8513  2.6759
   61MOL   H15223072   5.413   6.023   0.388  1.8932 -0.1514  0.7970
   61MOL   H15323073   5.338   6.031   0.534  1.0708 -0.4007  0.6122
   61MOL   C15423074   5.556   6.072   0.530  0.9213 -0.0718  0.3856
   61MOL   C15523075   5.661   6.146   0.445  0.3935  0.7614 -0.6715
   61MOL   C15623076   5.675   6.105   0.313  0.1939 -0.1822 -0.2690
   61MOL   C15723077   5.777   6.169   0.238 -0.0939 -0.8131 -0.2909
   61MOL   C15823078   5.865   6.266   0.299  0.0746 -0.5146  0.1570
   61MOL   C15923079   5.968   6.349   0.221  0.0243  0.4122 -0.1772
   61MOL   C16023080   5.849   6.297   0.434 -0.2376 -0.1609 -0.6223
   61MOL   C16123081   5.742   6.244   0.510 -0.2334 -0.3621  0.3208
   61MOL   C16223082   5.584   5.921   0.540  0.4285  0.2820  0.4808
   61MOL   H16323083   5.548   6.114   0.630  0.1404  0.6056  0.0416
   61MOL   H16423084   5.611   6.032   0.267 -0.2454 -0.4516  0.7515
   61MOL   H16523085   5.791   6.149   0.133  0.3486 -1.4037 -0.1189
   61MOL   H16623086   5.988   6.315   0.119 -0.8511 -0.3104 -0.1033
   61MOL   H16723087   5.953   6.457   0.220  1.5528  0.6467  0.2699
   61MOL   H16823088   6.058   6.342   0.282 -0.8809 -2.4777  0.8885
   61MOL   H16923089   5.908   6.374   0.482 -0.2871 -1.2449  1.2090
   61MOL   H17023090   5.731   6.275   0.613  0.4346  0.2076  0.2275
   61MOL   H17123091   5.557   5.880   0.442  2.7159  0.8931 -0.4584
   61MOL   H17223092   5.518   5.878   0.614  0.2869 -0.7642 -0.2404
   61MOL   C17323093   5.737   5.882   0.579 -0.8217 -1.8486 -0.0209
   61MOL   C17423094   5.789   5.762   0.503 -0.2287  0.5693  0.0714
   61MOL   C17523095   5.802   5.629   0.551  0.6268  0.3144 -0.0659
   61MOL   C17623096   5.838   5.519   0.467 -0.0681  0.3905  0.0655
   61MOL   C17723097   5.866   5.541   0.332 -0.7926  0.7491 -0.0324
   61MOL   C17823098   5.926   5.428   0.250 -0.0799 -0.4330  0.1201
   61MOL   C17923099   5.865   5.674   0.289 -0.0997 -0.5526 -0.3661
   61MOL   C18023100   5.825   5.780   0.368  0.0271  0.6710  0.2843
   61MOL   C18123101   5.754   5.882   0.734  0.1539 -0.7067  0.6639
   61MOL   H18223102   5.796   5.967   0.548 -0.3586 -2.0068  0.4266
   61MOL   H18323103   5.765   5.611   0.651 -0.2690  2.1156 -0.0558
   61MOL   H18423104   5.869   5.423   0.505 -0.8414  0.4203  0.7713
   61MOL   H18523105   6.031   5.429   0.219  0.3456  0.4373  1.5779
   61MOL   H18623106   5.940   5.337   0.308 -2.6154 -0.2093  1.1390
   61MOL   H18723107   5.868   5.388   0.167  1.3211 -1.3055 -0.4534
   61MOL   H18823108   5.891   5.696   0.187 -0.2953 -0.0116 -0.3027
   61MOL   H18923109   5.816   5.877   0.321 -0.9531 -0.2699 -1.4768
   61MOL   H19023110   5.698   5.799   0.779  0.0309 -0.3238  1.2171
   61MOL   H19123111   5.718   5.977   0.772 -2.8303 -1.0521 -1.1369
   61MOL   C19223112   5.904   5.878   0.765  0.0583 -0.3388  1.2006
   61MOL   C19323113   5.921   5.835   0.911  0.3957 -0.0550  0.3000
   61MOL   C19423114   5.839   5.884   1.015  0.1619  0.0152  0.1170
   61MOL   C19523115   5.862   5.850   1.147 -0.6060  0.2334 -0.8900
   61MOL   C19623116   5.963   5.761   1.180  0.0906 -0.2014  0.1261
   61MOL   C19723117   5.984   5.728   1.324  0.3562  1.0794  0.6425
   61MOL   C19823118   6.032   5.697   1.074  0.0763  0.1891  0.1988
   61MOL   C19923119   6.019   5.737   0.938 -0.7792  0.4921  0.6449
   61MOL   C20023120   5.990   5.998   0.737  0.0308 -0.6265  0.3518
   61MOL   H20123121   5.957   5.804   0.705  0.2960  1.0563 -0.3293
   61MOL   H20223122   5.756   5.949   0.992 -1.1335 -0.6286  2.8659
   61MOL   H20323123   5.792   5.890   1.219 -2.5404 -2.5335 -1.1474
   61MOL   H20423124   5.882   5.710   1.357 -0.9306  0.7004 -3.2982
   61MOL   H20523125   6.035   5.632   1.331  0.5765  1.2090  0.8145
   61MOL   H20623126   6.031   5.805   1.385  0.0148  2.3375 -0.6710
   61MOL   H20723127   6.103   5.617   1.091 -0.0248 -0.2318 -1.2778
   61MOL   H20823128   6.083   5.693   0.863  0.0538  0.8092  1.1608
   61MOL   H20923129   6.014   6.038   0.836 -0.6156  1.0810 -0.1644
   61MOL   H21023130   5.932   6.075   0.687  1.8911  0.3378 -0.3933
   61MOL   C21123131   6.120   5.977   0.658  0.1773  0.0964 -0.1415
   61MOL   C21223132   6.223   6.090   0.702  0.2693  0.9910  0.3856
   61MOL   C21323133   6.206   6.226   0.667 -0.0742 -0.2057  0.6535
   61MOL   C21423134   6.301   6.324   0.708 -0.3211  0.0483  0.1148
   61MOL   C21523135   6.402   6.285   0.791 -1.0675  0.0156  0.0914
   61MOL   C21623136   6.499   6.393   0.840 -0.4484  0.1646  0.3020
   61MOL   C21723137   6.419   6.151   0.831  0.5586  0.1308  0.8373
   61MOL   C21823138   6.323   6.054   0.784  0.4193 -0.1620  0.0807
   61MOL   C21923139   6.105   5.977   0.503 -0.6437  0.0306  0.8376
   61MOL   H22023140   6.151   5.879   0.695  0.5471  0.5868  0.8680
   61MOL   H22123141   6.132   6.268   0.602 -0.3582  0.4541  1.3943
   61MOL   H22223142   6.287   6.425   0.673 -0.1681  0.7421  2.0407
   61MOL   H22323143   6.436   6.480   0.857  1.0333  1.0386  1.4092
   61MOL   H22423144   6.521   6.362   0.943 -0.9137 -0.1300  0.3189
   61MOL   H22523145   6.587   6.415   0.781  0.6942 -0.4091  1.7681
   61MOL   H22623146   6.499   6.132   0.901  2.0244  0.3473 -0.7353
   61MOL   H22723147   6.330   5.953   0.822 -0.0374 -0.6126 -1.0117
   61MOL   H22823148   6.106   6.081   0.471  0.6014  1.5901  5.5386
   61MOL   H22923149   6.015   5.919   0.480 -0.7999  0.4525  0.3874
   61MOL   C23023150   6.221   5.914   0.425  0.6240  0.3756 -0.0346
   61MOL   C23123151   6.228   5.980   0.285 -0.0182 -0.1312  0.0456
   61MOL   C23223152   6.343   6.016   0.222 -0.1236 -0.4311  0.2109
   61MOL   C23323153   6.349   6.075   0.092 -0.1475  0.9749 -0.4450
   61MOL   C23423154   6.227   6.097   0.027  0.0767  0.5629 -0.7024
   61MOL   C23523155   6.219   6.159   7.968 -0.1443 -0.1520  0.2318
   61MOL   C23623156   6.110   6.054   0.088 -0.3372 -0.0835 -0.5614
   61MOL   C23723157   6.105   6.010   0.220 -0.2614  0.0707  0.4786
   61MOL   C23823158   6.213   5.756   0.420 -0.1982  0.1945  0.3554
   61MOL   H23923159   6.319   5.940   0.464  0.7807  1.5407 -1.1710
   61MOL   H24023160   6.439   5.995   0.266  1.0226 -0.6275 -2.2666
   61MOL   H24123161   6.445   6.103   0.051 -0.9384  2.4199 -1.3555
   61MOL   H24223162   6.122   6.152   7.919 -0.5960  1.0961  0.9150
   61MOL   H24323163   6.239   6.266   7.974  1.1390 -0.3802  0.1653
   61MOL   H24423164   6.287   6.112   7.897 -0.5980  0.1621 -0.4091
   61MOL   H24523165   6.019   6.075   0.035 -0.5368  0.3792 -0.0437
   61MOL   H24623166   6.008   5.996   0.267 -1.1691  1.0000 -1.0450
   61MOL   H24723167   6.204   5.727   0.315 -2.6407  3.2837 -0.3669
   61MOL   H24823168   6.122   5.721   0.467  0.7114 -3.0060 -0.1832
   61MOL   C24923169   6.333   5.686   0.479 -0.5502 -0.2866 -0.4329
   61MOL   C25023170   6.320   5.539   0.452  0.0438  0.8161  0.6094
   61MOL   C25123171   6.225   5.458   0.516 -0.4417 -0.2640  0.5885
   61MOL   C25223172   6.227   5.319   0.484 -0.5344  0.0499 -0.2037
   61MOL   C25323173   6.321   5.259   0.393 -0.2233 -0.5679 -0.4952
   61MOL   C25423174   6.325   5.107   0.361 -0.1182  0.1029  0.1579
   61MOL   C25523175   6.412   5.351   0.340  0.2413  0.0952  0.3568
   61MOL   C25623176   6.415   5.489   0.364  0.4809  0.4416  0.2351
   61MOL   C25723177   6.355   5.718   0.629  0.3417  0.3196 -0.3578
   61MOL   H25823178   6.415   5.728   0.420 -0.7705 -0.2217 -0.6933
   61MOL   H25923179   6.154   5.492   0.590 -1.4686 -1.0317 -0.0388
   61MOL   H26023180   6.151   5.258   0.530 -0.6057 -0.3853 -0.8774
   61MOL   H26123181   6.274   5.077   0.269  1.2616 -1.6281 -0.0635
   61MOL   H26223182   6.429   5.074   0.361  0.6554  2.4233  1.3660
   61MOL   H26323183   6.287   5.043   0.440  1.4683 -0.7412  0.2644
   61MOL   H26423184   6.486   5.304   0.277  1.9613  1.8182  1.0536
   61MOL   H26523185   6.491   5.547   0.313 -0.9932  0.0959 -2.4627
   61MOL   H26623186   6.261   5.705   0.683  0.8325 -1.1889  0.1755
   61MOL   H26723187   6.364   5.824   0.650 -1.7227  0.6031 -0.7587
   61MOL   C26823188   6.475   5.645   0.679  0.0725 -0.5295 -0.3842
   61MOL   C26923189   6.446   5.579   0.812 -0.2256  0.3145 -0.0557
   61MOL   C27023190   6.459   5.437   0.817 -0.4583 -0.3898  0.0006
   61MOL   C27123191   6.442   5.371   0.942  0.3334  0.6583 -0.1088
   61MOL   C27223192   6.409   5.442   1.059  0.6602  0.5996  0.8494
   61MOL   C27323193   6.413   5.375   1.196 -0.3996  0.4539 -0.5362
   61MOL   C27423194   6.397   5.580   1.047  0.3495 -0.0922 -0.3179
   61MOL   C27523195   6.418   5.649   0.928 -0.4379 -0.8796 -0.4780
   61MOL   C27623196   6.607   5.727   0.689 -0.2180  0.6474  0.0144
   61MOL   H27723197   6.505   5.561   0.617  2.4961 -0.3674  0.5186
   61MOL   H27823198   6.481   5.376   0.731 -1.5332  0.9168 -1.2206
   61MOL   H27923199   6.444   5.263   0.950  0.4709  0.8083  2.0751
   61MOL   H28023200   6.356   5.426   1.274 -0.9653  0.2995 -0.8455
   61MOL   H28123201   6.386   5.270   1.188  0.4052  0.1523  0.6105
   61MOL   H28223202   6.514   5.386   1.236 -0.8591  1.2697  0.4137
   61MOL   H28323203   6.374   5.641   1.133  1.9452  1.5894 -1.0526
   61MOL   H28423204   6.419   5.756   0.910 -1.7085 -0.6288  0.8682
   61MOL   H28523205   6.627   5.774   0.785  1.7927 -0.0918 -0.0279
   61MOL   H28623206   6.605   5.799   0.607  1.0246  0.4196 -0.2193
   61MOL   C28723207   6.735   5.644   0.656 -0.1241 -0.2309  0.5180
   61MOL   C28823208   6.862   5.705   0.715  0.8299  0.0727  0.1938
   61MOL   C28923209   6.908   5.834   0.671 -0.1771  0.1660 -0.7122
   61MOL   C29023210   7.022   5.892   0.723 -0.1283 -0.6488 -0.0686
   61MOL   C29123211   7.094   5.821   0.822  0.2777 -0.5965 -0.1551
   61MOL   C29223212   7.202   5.898   0.893 -0.3744 -0.0511  0.1964
   61MOL   C29323213   7.052   5.692   0.868 -0.1047  0.3343  0.2566
   61MOL   C29423214   6.942   5.628   0.805  0.2099 -0.0190  0.3160
   61MOL   C29523215   6.750   5.601   0.511  0.1209 -0.0412 -0.4824
   61MOL   H29623216   6.724   5.556   0.719  1.6364 -0.9139 -0.1171
   61MOL   H29723217   6.844   5.880   0.597 -2.1430 -2.3453 -0.6408
   61MOL   H29823218   7.055   5.990   0.694  3.2693 -2.2063 -1.7434
   61MOL   H29923219   7.234   5.990   0.843 -1.5379 -0.1685 -0.7687
   61MOL   H30023220   7.156   5.942   0.981  2.7140 -0.8524  2.3063
   61MOL   H30123221   7.289   5.838   0.919  0.0402  0.3561 -0.2403
   61MOL   H30223222   7.102   5.643   0.950 -0.0729 -0.5691 -0.2873
   61MOL   H30323223   6.910   5.529   0.833 -2.4084  0.4385 -0.8438
   61MOL   H30423224   6.795   5.686   0.460 -0.0374 -0.7053 -1.7371
   61MOL   H30523225   6.651   5.586   0.467  0.4046 -0.8983 -0.8371
   61MOL   C30623226   6.852   5.492   0.490  0.2352 -0.2807 -0.3863
   61MOL   C30723227   6.891   5.476   0.341 -0.0089  0.1543  0.6076
   61MOL   C30823228   6.804   5.434   0.243  0.2770  0.6341  0.4570
   61MOL   C30923229   6.854   5.418   0.111  0.5207  0.4549  0.3896
   61MOL   C31023230   6.987   5.448   0.080 -0.3206 -0.2842  0.8491
   61MOL   C31123231   7.046   5.441   8.022  0.1023  0.4448 -0.5675
   61MOL   C31223232   7.073   5.497   0.177 -0.7933 -0.3836 -0.1726
   61MOL   C31323233   7.021   5.518   0.308 -0.6169 -0.8922 -0.0984
   61MOL   C31423234   6.780   5.364   0.548  0.0079  0.4144  0.0559
   61MOL   H31523235   6.939   5.503   0.553  0.1881 -0.4582 -0.2896
   61MOL   H31623236   6.699   5.415   0.259 -0.1376 -0.4708 -3.1834
   61MOL   H31723237   6.796   5.387   0.026  1.5507 -0.5935  0.0513
   61MOL   H31823238   7.088   5.342   8.004  1.2138  0.7057  0.5034
   61MOL   H31923239   6.967   5.457   7.949  1.0630  0.9212 -1.5120
   61MOL   H32023240   7.127   5.509   7.999  0.6133 -0.8815 -2.7852
   61MOL   H32123241   7.176   5.523   0.157 -1.2531  0.0700 -2.0748
   61MOL   H32223242   7.086   5.560   0.383 -0.0676  1.3173 -1.7695
   61MOL   H32323243   6.694   5.332   0.488 -0.8018 -0.7213  1.7607
   61MOL   H32423244   6.759   5.375   0.654 -0.6245  2.4591 -0.2671
   61MOL   C32523245   6.870   5.238   0.548  0.4615 -0.1022 -0.2193
   61MOL   C32623246   6.783   5.111   0.553 -0.6587 -0.2767  0.1383
   61MOL   C32723247   6.778   5.020   0.450 -0.1506  0.8241 -0.1343
   61MOL   C32823248   6.689   4.910   0.455 -0.0565  0.7314  0.1619
   61MOL   C32923249   6.605   4.896   0.568 -0.2722  0.5348 -0.2119
   61MOL   C33023250   6.499   4.785   0.570 -0.9279 -0.4867 -0.6700
   61MOL   C33123251   6.609   4.979   0.676 -0.1282 -0.2562 -1.2687
   61MOL   C33223252   6.699   5.090   0.667  0.2810 -0.0330  0.1317
   61MOL   C33323253   6.988   5.236   0.647 -0.1857 -0.2040 -0.6478
   61MOL   H33423254   6.915   5.232   0.449 -0.0876  0.6475 -0.5186
   61MOL   H33523255   6.837   5.043   0.363  1.3185 -0.6197  0.4484
   61MOL   H33623256   6.693   4.846   0.368 -0.3964  0.7159  0.1590
   61MOL   H33723257   6.401   4.830   0.590 -0.7322 -0.3917  0.1047
   61MOL   H33823258   6.509   4.716   0.487 -0.0273  0.4644 -1.3651
   61MOL   H33923259   6.521   4.732   0.663 -0.2868  0.0508 -0.5137
   61MOL   H34023260   6.551   4.958   0.765  0.8373 -1.6472 -0.9608
   61MOL   H34123261   6.704   5.164   0.746 -0.7236  1.2454 -0.9786
   61MOL   H34223262   6.954   5.270   0.745  2.7957  0.6334  0.1507
   61MOL   H34323263   7.060   5.314   0.623 -0.3885  0.5230  1.0294
   61MOL   C34423264   7.063   5.105   0.656 -0.1260 -0.2075 -0.0496
   61MOL   C34523265   7.013   5.013   0.756 -0.3718  0.4277  0.4626
   61MOL   C34623266   6.960   4.887   0.710  0.4647 -0.3122  0.9729
   61MOL   C34723267   6.906   4.792   0.796  0.5363 -0.6247  0.2074
   61MOL   C34823268   6.934   4.808   0.930 -1.1145  0.0775 -0.7197
   61MOL   C34923269   6.899   4.711   1.037 -0.1025  0.5352 -0.3493
   61MOL   C35023270   6.989   4.930   0.980 -0.1029  0.3341  0.0565
   61MOL   C35123271   7.022   5.036   0.894 -0.3971  0.5619 -0.1506
   61MOL   C35223272   7.214   5.126   0.682 -0.0080 -0.3865 -1.0120
   61MOL   H35323273   7.053   5.069   0.554  3.2491 -0.0213 -0.4852
   61MOL   H35423274   6.947   4.868   0.604 -3.0437  0.0562  1.2585
   61MOL   H35523275   6.853   4.706   0.757 -1.9225 -0.2838  2.5873
   61MOL   H35623276   6.875   4.616   0.989  2.9068  0.9749 -2.8891
   61MOL   H35723277   6.989   4.696   1.096  0.3560  0.9235 -0.9386
   61MOL   H35823278   6.816   4.756   1.091  0.7908  0.6443  0.9464
   61MOL   H35923279   7.003   4.944   1.087 -1.4369  0.1960  0.2558
   61MOL   H36023280   7.064   5.130   0.926  1.3779  0.5610 -2.3549
   61MOL   H36123281   7.255   5.028   0.705 -3.6603 -2.3870 -2.5801
   61MOL   H36223282   7.224   5.196   0.765  0.2246 -0.9751 -0.5398
   61MOL   C36323283   7.289   5.193   0.561 -0.5401 -0.2416  0.1368
   61MOL   C36423284   7.281   5.116   0.433  0.5375  0.3318 -0.5281
   61MOL   C36523285   7.384   5.021   0.404  0.1126  0.2235 -0.1024
   61MOL   C36623286   7.382   4.956   0.277  0.3963  0.5908 -0.2115
   61MOL   C36723287   7.283   4.992   0.179 -0.7168  0.1960 -0.1672
   61MOL   C36823288   7.273   4.906   0.051  0.3186  0.4479  0.6392
   61MOL   C36923289   7.185   5.085   0.216 -0.1563  0.1226  0.1477
   61MOL   C37023290   7.189   5.149   0.340  0.0654  0.5746  0.2506
   61MOL   C37123291   7.437   5.223   0.597 -0.6339  0.9701  0.5091
   61MOL   H37223292   7.251   5.291   0.531  2.3909  0.5712 -1.0741
   61MOL   H37323293   7.460   4.997   0.475 -0.4988  1.9665  1.1767
   61MOL   H37423294   7.464   4.889   0.257 -0.3781  0.9262 -5.0989
   61MOL   H37523295   7.371   4.868   0.020  0.5189 -1.9983  4.0003
   61MOL   H37623296   7.204   4.829   0.085  2.3377 -0.6356  2.4301
   61MOL   H37723297   7.228   4.962   8.049 -1.8524  0.2710  1.7005
   61MOL   H37823298   7.108   5.108   0.145  1.3617  0.0884 -1.5471
   61MOL   H37923299   7.109   5.217   0.366 -0.1399  0.4222  0.0231
   61MOL   H38023300   7.481   5.133   0.640 -0.6849  1.6659  2.0742
   61MOL   H38123301   7.436   5.289   0.684 -0.0565 -0.3680  1.5416
   61MOL   H38223302   7.495   5.266   0.515 -1.6553  0.6516 -0.3826
   62MOL     C123303   7.627   1.749   6.399  0.0527  0.8221 -0.3948
   62MOL     C223304   7.536   1.846   6.465  0.1237 -0.7379  0.2633
   62MOL     C323305   7.532   1.863   6.606 -0.5224  0.3523  0.5889
   62MOL     C423306   7.445   1.952   6.672  0.3843  0.2263 -0.3238
   62MOL     C523307   7.353   2.027   6.602  0.5841 -0.4412 -0.8941
   62MOL     C623308   7.260   2.122   6.683  0.0538 -0.2006  0.5389
   62MOL     C723309   7.347   2.011   6.460  0.2935  0.0459 -0.1457
   62MOL     C823310   7.437   1.925   6.394 -0.1048  0.3940  0.7137
   62MOL     C923311   7.757   1.809   6.348 -0.0704 -0.0456  0.7041
   62MOL    H1023312   7.640   1.664   6.466 -0.1082  0.2768 -1.0513
   62MOL    H1123313   7.586   1.807   6.681 -0.3015 -1.7148 -1.0704
   62MOL    H1223314   7.449   1.956   6.780  3.0738  1.2756 -0.4311
   62MOL    H1323315   7.319   2.181   6.754 -0.0084  0.4818  0.0299
   62MOL    H1423316   7.194   2.191   6.630 -0.4335  0.1370  1.5579
   62MOL    H1523317   7.193   2.059   6.742  0.4467 -1.2350 -0.1112
   62MOL    H1623318   7.269   2.066   6.410  0.3550 -0.3049 -0.6241
   62MOL    H1723319   7.431   1.917   6.287  3.6781 -0.4994  0.4714
   62MOL    H1823320   7.817   1.720   6.329 -0.6233 -0.2065 -0.3350
   62MOL    H1923321   7.820   1.845   6.429  0.8224 -0.0664  0.0337
   62MOL    H2023322   7.567   1.711   6.316 -2.0250  3.0573  0.0077
   62MOL    C2123323   7.761   1.908   6.229 -0.7858 -0.4122  0.3924
   62MOL    C2223324   7.649   1.875   6.131 -0.0604  0.4649  0.5380
   62MOL    C2323325   7.659   1.756   6.056  0.2853  0.2190  0.1388
   62MOL    C2423326   7.576   1.729   5.942 -0.2084 -0.9394 -0.2715
   62MOL    C2523327   7.477   1.823   5.908 -0.5215  0.8797  0.1965
   62MOL    C2623328   7.376   1.787   5.799 -0.4959  0.2277  0.0217
   62MOL    C2723329   7.464   1.939   5.983  0.0990  0.3984 -0.1201
   62MOL    C2823330   7.548   1.967   6.089  0.1910  0.3702 -0.9037
   62MOL    C2923331   7.901   1.924   6.167  0.0165 -0.3121  0.6041
   62MOL    H3023332   7.729   2.002   6.274 -0.9908 -0.8526  1.1694
   62MOL    H3123333   7.731   1.682   6.087 -0.3753  0.5570  2.5926
   62MOL    H3223334   7.586   1.633   5.895  1.5989 -1.0396  0.2806
   62MOL    H3323335   7.333   1.691   5.825  0.0543  0.1480  0.6469
   62MOL    H3423336   7.299   1.864   5.790 -0.2453  0.3345 -1.2967
   62MOL    H3523337   7.443   1.789   5.713 -0.9602  3.1768 -0.3127
   62MOL    H3623338   7.389   2.015   5.967 -0.1854  0.3510  0.9292
   62MOL    H3723339   7.527   2.064   6.132 -0.3881 -0.6760  1.2127
   62MOL    H3823340   7.896   1.944   6.060  2.7842  0.7942  0.6450
   62MOL    H3923341   7.942   1.823   6.162 -0.1444 -0.3954  0.9314
   62MOL    C4023342   8.011   2.011   6.235  0.3087  0.2571 -0.1670
   62MOL    C4123343   7.972   2.155   6.254 -0.0531  0.2966  0.3700
   62MOL    C4223344   8.009   2.227   6.369  0.0112 -1.7447 -0.1679
   62MOL    C4323345   7.984   2.366   6.376  0.1001 -0.1388 -0.2712
   62MOL    C4423346   7.917   2.431   6.269 -0.4365 -0.4836 -0.1052
   62MOL    C4523347   7.904   2.575   6.251 -0.5483  0.0068  0.0271
   62MOL    C4623348   7.868   2.359   6.156 -0.0944  0.0011 -0.0610
   62MOL    C4723349   7.900   2.225   6.145  0.0270  0.5107 -0.4492
   62MOL    C4823350   0.068   1.992   6.158  0.1147 -0.3484  0.0353
   62MOL    H4923351   8.016   1.967   6.335  0.5903  2.0999  0.6417
   62MOL    H5023352   8.065   2.190   6.453  0.2966 -0.5651  0.1817
   62MOL    H5123353   8.016   2.434   6.453 -1.9207  0.3488  0.1874
   62MOL    H5223354   7.987   2.618   6.308 -0.6951 -2.1580  1.9529
   62MOL    H5323355   7.911   2.599   6.145  1.9046  0.1591  0.1955
   62MOL    H5423356   7.805   2.604   6.288  0.0373  1.1262  0.7843
   62MOL    H5523357   7.818   2.406   6.072 -2.2250  0.8928  1.6425
   62MOL    H5623358   7.859   2.168   6.063 -0.2996 -0.1770  0.1880
   62MOL    H5723359   0.134   2.076   6.182  0.7419 -0.1673 -2.2121
   62MOL    H5823360   0.054   1.991   6.050 -1.6950 -0.5865  0.2629
   62MOL    C5923361   0.134   1.859   6.167 -0.6244  0.1075  0.0610
   62MOL    C6023362   0.154   1.814   6.313 -0.5804 -0.1575 -0.1833
   62MOL    C6123363   0.075   1.708   6.366  0.2915 -0.3474 -0.6146
   62MOL    C6223364   0.091   1.671   6.500  0.3857  0.2015  0.4738
   62MOL    C6323365   0.176   1.739   6.586 -0.0102 -0.0798 -1.0848
   62MOL    C6423366   0.185   1.689   6.728 -0.1172 -0.5506  0.4892
   62MOL    C6523367   0.257   1.843   6.536  0.6263  0.2561 -0.2018
   62MOL    C6623368   0.242   1.883   6.403  0.2789 -0.6478  0.2010
   62MOL    C6723369   0.273   1.874   6.096  0.0896  0.6533 -0.5923
   62MOL    H6823370   0.075   1.779   6.121  0.3775 -0.9044  0.4984
   62MOL    H6923371   0.001   1.659   6.304 -1.0595 -1.7426  2.0237
   62MOL    H7023372   0.031   1.590   6.539  0.2928 -1.0169 -2.0798
   62MOL    H7123373   0.100   1.731   6.782  0.1708 -0.2608  0.7182
   62MOL    H7223374   0.175   1.581   6.721  1.3788 -0.6339 -0.6249
   62MOL    H7323375   0.280   1.713   6.775 -0.5720  1.8776  0.2448
   62MOL    H7423376   0.334   1.883   6.600  0.2637  1.0849 -0.2671
   62MOL    H7523377   0.300   1.969   6.372 -1.4764  1.2607  2.1050
   62MOL    H7623378   0.329   1.951   6.150  0.7590  0.7664 -1.4373
   62MOL    H7723379   0.265   1.937   6.007  1.9945  1.2150 -0.3813
   62MOL    C7823380   0.355   1.745   6.069 -0.5415 -0.6792 -0.2196
   62MOL    C7923381   0.274   1.642   5.991 -0.2468  0.3038 -0.1448
   62MOL    C8023382   0.267   1.662   5.852 -0.5450  0.3334 -0.3420
   62MOL    C8123383   0.200   1.566   5.773 -0.2710  0.0916  0.6153
   62MOL    C8223384   0.132   1.457   5.835 -0.1702  0.5608  0.2818
   62MOL    C8323385   0.066   1.355   5.740 -0.0731  0.0892 -0.4221
   62MOL    C8423386   0.128   1.443   5.971 -0.1132  0.3751 -0.4287
   62MOL    C8523387   0.207   1.532   6.046 -0.1892 -0.1950 -0.3583
   62MOL    C8623388   0.422   1.689   6.198 -0.3096 -0.0027 -0.7551
   62MOL    H8723389   0.441   1.782   6.013 -0.3678 -0.3710  0.2466
   62MOL    H8823390   0.325   1.742   5.809 -0.3082  0.4348  0.1519
   62MOL    H8923391   0.202   1.575   5.665 -0.6360  0.5365  0.6452
   62MOL    H9023392   0.000   1.415   5.677  1.4798  1.4885 -0.7332
   62MOL    H9123393   0.135   1.293   5.682  0.3454 -0.2497  0.4356
   62MOL    H9223394   0.001   1.292   5.801 -0.3117  1.0855  0.3626
   62MOL    H9323395   0.071   1.362   6.013  0.9187  0.9961  2.2914
   62MOL    H9423396   0.217   1.524   6.154 -0.4518  0.2216 -0.3038
   62MOL    H9523397   0.344   1.647   6.261 -0.2009  0.9865  0.0538
   62MOL    H9623398   0.458   1.767   6.265 -0.0754 -1.1167  0.4260
   62MOL    C9723399   0.524   1.576   6.184 -0.7842  0.3343 -0.5568
   62MOL    C9823400   0.552   1.528   6.326  0.2846 -0.3994 -0.7719
   62MOL    C9923401   0.644   1.598   6.404 -0.3957 -0.0755  0.4721
   62MOL   C10023402   0.668   1.561   6.538 -0.5313  0.3407 -0.1908
   62MOL   C10123403   0.602   1.445   6.587 -0.3396  0.0147 -0.6655
   62MOL   C10223404   0.623   1.402   6.730  0.1219  0.5504 -0.5260
   62MOL   C10323405   0.510   1.367   6.505  0.2711  0.4471 -0.2947
   62MOL   C10423406   0.488   1.411   6.378  0.3530  0.7366 -0.0102
   62MOL   C10523407   0.656   1.607   6.102 -0.5156  0.1931 -0.7861
   62MOL   H10623408   0.479   1.492   6.132  0.2571  0.4652 -1.6947
   62MOL   H10723409   0.692   1.686   6.364 -0.2175 -0.1308  0.5620
   62MOL   H10823410   0.739   1.616   6.597 -0.5438 -1.7964  1.9320
   62MOL   H10923411   0.623   1.294   6.749 -1.1683  0.7423  0.6612
   62MOL   H11023412   0.717   1.447   6.760  1.8515 -2.0321 -1.8514
   62MOL   H11123413   0.536   1.446   6.779  0.5809  1.2221 -0.3034
   62MOL   H11223414   0.452   1.284   6.544  0.9038 -0.2888 -0.9216
   62MOL   H11323415   0.413   1.357   6.322  0.6925  0.4524 -0.1944
   62MOL   H11423416   0.741   1.545   6.131 -0.3080  1.3704  1.1724
   62MOL   H11523417   0.687   1.707   6.132 -2.8236  0.5239  0.5789
   62MOL   C11623418   0.642   1.600   5.949 -0.6338 -0.1544  0.7354
   62MOL   C11723419   0.630   1.457   5.902  0.3621  0.7474  0.0384
   62MOL   C11823420   0.731   1.365   5.941  0.5002 -0.0563  0.0316
   62MOL   C11923421   0.723   1.230   5.895 -0.3205  0.4269 -0.5660
   62MOL   C12023422   0.623   1.186   5.805  0.0803  0.0526 -1.5586
   62MOL   C12123423   0.636   1.049   5.746 -0.1372  0.0583  0.1382
   62MOL   C12223424   0.524   1.285   5.770 -0.1241  0.6256 -0.0550
   62MOL   C12323425   0.529   1.419   5.816 -0.4651  0.2251  0.4910
   62MOL   C12423426   0.759   1.673   5.874  0.6737  0.5288 -0.3500
   62MOL   H12523427   0.549   1.644   5.914  0.1411  1.0600  0.1510
   62MOL   H12623428   0.820   1.400   5.990  0.8719 -1.3729  0.3168
   62MOL   H12723429   0.805   1.163   5.918 -0.4491  0.3981 -0.1878
   62MOL   H12823430   0.532   1.021   5.729 -0.1655  0.0285  0.3535
   62MOL   H12923431   0.690   1.042   5.651 -1.4321 -1.7857 -0.4874
   62MOL   H13023432   0.692   0.984   5.814 -2.0707 -1.3559  0.4296
   62MOL   H13123433   0.444   1.265   5.701  0.5423 -1.0599 -0.3756
   62MOL   H13223434   0.455   1.492   5.786  1.0825  1.0925 -1.3448
   62MOL   H13323435   0.746   1.657   5.767  0.5776  0.3432 -0.3111
   62MOL   H13423436   0.853   1.628   5.906 -0.0023 -0.3023  0.5115
   62MOL   C13523437   0.761   1.824   5.897 -0.1307  0.1062 -1.0011
   62MOL   C13623438   0.628   1.891   5.845  0.3393  0.2535 -0.1909
   62MOL   C13723439   0.567   1.990   5.927  0.1738  0.2371 -0.0360
   62MOL   C13823440   0.455   2.062   5.883 -0.0182  0.7273 -0.1364
   62MOL   C13923441   0.408   2.042   5.752 -0.3044  0.1606 -0.7905
   62MOL   C14023442   0.301   2.128   5.691 -0.1842 -0.3830 -0.1261
   62MOL   C14123443   0.465   1.939   5.672 -0.0768 -0.3166 -0.2433
   62MOL   C14223444   0.581   1.872   5.716 -0.3727 -0.5438 -0.1643
   62MOL   C14323445   0.890   1.888   5.835 -0.7230  0.2865 -0.2699
   62MOL   H14423446   0.777   1.849   6.002  0.0219 -0.5133 -0.8742
   62MOL   H14523447   0.602   1.999   6.028  0.4131  0.0762 -0.1026
   62MOL   H14623448   0.398   2.131   5.944  0.3959 -0.0536  1.1585
   62MOL   H14723449   0.336   2.186   5.606 -0.4660  0.8311  0.5854
   62MOL   H14823450   0.213   2.074   5.655 -0.6301  0.2866 -0.0481
   62MOL   H14923451   0.268   2.205   5.760  2.3939  2.1178 -1.6226
   62MOL   H15023452   0.433   1.922   5.570  2.0507 -1.0027 -0.8169
   62MOL   H15123453   0.626   1.804   5.646  0.6135  0.1019 -0.1618
   62MOL   H15223454   0.867   1.994   5.831 -3.3922 -0.2642 -0.3985
   62MOL   H15323455   0.906   1.849   5.734 -1.2190  0.4857 -0.4230
   62MOL   C15423456   1.027   1.868   5.915  0.1932 -0.2723 -0.7381
   62MOL   C15523457   1.027   1.931   6.054 -0.0275 -0.3694  0.6254
   62MOL   C15623458   1.051   1.849   6.171 -0.1384  0.3332 -0.0516
   62MOL   C15723459   1.055   1.906   6.301 -0.3289  0.2252  0.3066
   62MOL   C15823460   1.033   2.043   6.319  0.2554 -0.0061  0.1976
   62MOL   C15923461   1.036   2.109   6.455 -0.0994  0.6977  0.2622
   62MOL   C16023462   1.003   2.123   6.205 -1.0587 -0.4396 -0.0804
   62MOL   C16123463   0.998   2.068   6.073 -0.1764  0.0924  0.0014
   62MOL   C16223464   1.146   1.910   5.835 -0.0249  0.0558  0.5327
   62MOL   H16323465   1.033   1.760   5.930  1.0167 -0.1941 -0.4495
   62MOL   H16423466   1.063   1.742   6.162  1.4967  0.4281  0.8663
   62MOL   H16523467   1.075   1.845   6.387  1.3913  1.4341  0.7921
   62MOL   H16623468   1.112   2.184   6.476  0.7452 -0.0468 -0.1441
   62MOL   H16723469   0.948   2.170   6.475  1.6675  2.6369  2.4017
   62MOL   H16823470   1.040   2.028   6.528 -2.2356  0.9700  0.7134
   62MOL   H16923471   0.990   2.230   6.214  0.3746 -0.3462  1.0321
   62MOL   H17023472   0.992   2.139   5.992  2.2639  2.3295  1.6931
   62MOL   H17123473   1.192   1.999   5.878  1.7005 -0.7780  0.4924
   62MOL   H17223474   1.099   1.931   5.739  1.1374 -1.9466 -0.5255
   62MOL   C17323475   1.262   1.809   5.801 -0.1965  0.5662 -0.2226
   62MOL   C17423476   1.336   1.764   5.928  0.2321  0.7954  0.9749
   62MOL   C17523477   1.400   1.852   6.016  0.0096  0.2560  0.2824
   62MOL   C17623478   1.494   1.808   6.111 -0.6446 -0.1286  0.6169
   62MOL   C17723479   1.527   1.676   6.127  0.3716  0.8135 -0.7095
   62MOL   C17823480   1.637   1.623   6.216 -0.4520  0.4000  0.2323
   62MOL   C17923481   1.460   1.584   6.044 -0.0059  0.2305 -0.1488
   62MOL   C18023482   1.364   1.625   5.947 -0.1358  0.0584  0.2908
   62MOL   C18123483   1.366   1.860   5.694 -0.4195  0.5467  0.3730
   62MOL   H18223484   1.212   1.719   5.763 -0.0499 -1.2000  3.5808
   62MOL   H18323485   1.391   1.960   6.015 -1.2810  0.1437 -0.3481
   62MOL   H18423486   1.538   1.888   6.170  0.0053 -0.5875  0.7627
   62MOL   H18523487   1.713   1.702   6.220 -0.7206  0.7873 -1.6300
   62MOL   H18623488   1.601   1.603   6.316 -1.8958  1.6821 -0.0218
   62MOL   H18723489   1.694   1.536   6.182  1.6474  1.0356  2.0092
   62MOL   H18823490   1.485   1.479   6.043  0.9853  0.4168  2.0318
   62MOL   H18923491   1.317   1.555   5.879 -1.1795 -1.5053  2.5645
   62MOL   H19023492   1.414   1.947   5.738 -0.7104  1.6193 -1.4091
   62MOL   H19123493   1.327   1.902   5.602  0.4793  0.1888 -0.1776
   62MOL   C19223494   1.481   1.762   5.669  0.1484  0.3978 -0.1934
   62MOL   C19323495   1.591   1.829   5.591 -0.5609 -0.1815 -0.3181
   62MOL   C19423496   1.719   1.822   5.648 -0.2668  0.7383  0.2491
   62MOL   C19523497   1.826   1.886   5.582  0.1852 -0.1971  0.2455
   62MOL   C19623498   1.805   1.942   5.451  0.0547  0.1997  0.1006
   62MOL   C19723499   1.929   2.006   5.387  0.4686 -0.2976 -0.1379
   62MOL   C19823500   1.682   1.942   5.388 -0.3716  0.5784 -0.3268
   62MOL   C19923501   1.572   1.882   5.464  0.2245 -0.7212  0.1520
   62MOL   C20023502   1.422   1.646   5.584  0.2945  0.1166 -0.3411
   62MOL   H20123503   1.515   1.723   5.765 -1.6445  0.1384  0.3558
   62MOL   H20223504   1.729   1.769   5.742 -3.6344  0.7717  0.6925
   62MOL   H20323505   1.916   1.877   5.640 -0.1291 -0.2643  0.7236
   62MOL   H20423506   1.952   2.097   5.443  1.3542 -1.3495  1.2650
   62MOL   H20523507   2.016   1.941   5.395 -0.9786 -2.1975  0.6806
   62MOL   H20623508   1.926   2.025   5.280 -0.8642 -0.5074 -0.1485
   62MOL   H20723509   1.666   1.969   5.285 -2.3268  2.7261  0.4866
   62MOL   H20823510   1.477   1.876   5.414 -0.1168 -0.2417  0.7374
   62MOL   H20923511   1.391   1.673   5.483  1.5631 -0.9375 -1.0421
   62MOL   H21023512   1.338   1.591   5.627  2.1255 -1.9644  0.6746
   62MOL   C21123513   1.520   1.531   5.560 -0.1686  0.7232 -0.3236
   62MOL   C21223514   1.470   1.416   5.469 -0.3029 -0.2891  0.7226
   62MOL   C21323515   1.523   1.407   5.337 -0.1311 -0.1437 -0.2361
   62MOL   C21423516   1.490   1.296   5.257  0.1963 -0.6981  0.0575
   62MOL   C21523517   1.385   1.205   5.300  0.3661 -0.4766  0.0618
   62MOL   C21623518   1.334   1.097   5.209  0.1689  0.7460  0.1148
   62MOL   C21723519   1.333   1.217   5.435 -0.4971 -0.7648  0.5570
   62MOL   C21823520   1.381   1.318   5.517  0.0542  0.3863  1.0336
   62MOL   C21923521   1.585   1.476   5.694 -0.1470 -0.3787  0.1709
   62MOL   H22023522   1.604   1.576   5.509  1.1215 -1.7984 -0.5145
   62MOL   H22123523   1.596   1.478   5.302 -0.3027 -0.1889 -0.6811
   62MOL   H22223524   1.539   1.292   5.161 -0.7496  2.8425 -0.6267
   62MOL   H22323525   1.355   1.121   5.105 -0.8613  0.6241 -0.1173
   62MOL   H22423526   1.383   1.004   5.241  1.4452  1.2702 -0.2878
   62MOL   H22523527   1.227   1.079   5.215 -0.0280  2.2279  1.2606
   62MOL   H22623528   1.267   1.146   5.482  1.1956 -1.8785  1.2962
   62MOL   H22723529   1.345   1.326   5.619 -1.4216  1.2266  0.4558
   62MOL   H22823530   1.516   1.506   5.773  0.1572  0.1265  0.2489
   62MOL   H22923531   1.668   1.545   5.711 -0.0723 -0.3346 -0.3644
   62MOL   C23023532   1.639   1.333   5.710 -0.3653  0.6450  0.3174
   62MOL   C23123533   1.680   1.312   5.859 -0.3213 -0.7300  0.1716
   62MOL   C23223534   1.610   1.224   5.944 -0.1837  0.0336  0.7611
   62MOL   C23323535   1.651   1.206   6.077 -0.0290 -0.2461  0.5396
   62MOL   C23423536   1.762   1.273   6.126 -0.3803 -0.1685 -0.9029
   62MOL   C23523537   1.817   1.253   6.270  1.0927  0.2950  0.0738
   62MOL   C23623538   1.837   1.356   6.041 -0.1692 -0.8001 -0.0990
   62MOL   C23723539   1.797   1.376   5.907  0.2027  0.7304 -0.0908
   62MOL   C23823540   1.756   1.291   5.619  0.0208 -0.0626  0.0737
   62MOL   H23923541   1.562   1.262   5.679  0.8234 -0.4740 -0.1283
   62MOL   H24023542   1.522   1.179   5.902 -1.1729  2.1118  0.5256
   62MOL   H24123543   1.597   1.155   6.156  0.6793  1.9021  2.4697
   62MOL   H24223544   1.737   1.284   6.338  0.8958  0.1825 -0.1072
   62MOL   H24323545   1.842   1.150   6.297 -1.0769  0.1460  1.6601
   62MOL   H24423546   1.906   1.312   6.292  1.2660 -0.1705  0.6445
   62MOL   H24523547   1.931   1.400   6.073  0.3004 -1.2339 -0.8812
   62MOL   H24623548   1.860   1.436   5.843 -0.6683 -0.2011 -1.8609
   62MOL   H24723549   1.836   1.364   5.635 -1.2332  1.8485 -1.9899
   62MOL   H24823550   1.722   1.310   5.517  3.3164  1.5079 -0.8223
   62MOL   C24923551   1.816   1.151   5.628  0.0381  0.1930  0.6138
   62MOL   C25023552   1.921   1.135   5.515  0.5298  0.0450 -0.2711
   62MOL   C25123553   1.888   1.148   5.381 -0.4429  0.1730 -0.2784
   62MOL   C25223554   1.989   1.158   5.283  0.3792 -0.8489  1.2713
   62MOL   C25323555   2.121   1.146   5.314 -0.0568  0.0504  0.5144
   62MOL   C25423556   2.223   1.144   5.199 -0.0003  0.0323 -0.1025
   62MOL   C25523557   2.158   1.130   5.449 -0.1623 -0.4289  0.2138
   62MOL   C25623558   2.058   1.121   5.547 -0.5055 -0.3636 -0.0600
   62MOL   C25723559   1.694   1.045   5.624 -0.1445  0.3521 -0.2431
   62MOL   H25823560   1.868   1.137   5.723 -1.0246 -1.7322  0.9221
   62MOL   H25923561   1.785   1.148   5.348 -0.8286  1.5633  0.8822
   62MOL   H26023562   1.968   1.169   5.177  1.5093  1.5959  1.2493
   62MOL   H26123563   2.317   1.113   5.245  0.3279  1.0837 -0.0628
   62MOL   H26223564   2.192   1.061   5.134 -1.2588  0.2216  0.2401
   62MOL   H26323565   2.227   1.235   5.140  1.4015 -0.1268 -0.2788
   62MOL   H26423566   2.263   1.135   5.472  0.2430 -2.2081 -1.1649
   62MOL   H26523567   2.091   1.113   5.649 -0.5940  1.7778  0.1549
   62MOL   H26623568   1.622   1.065   5.545 -0.1013  0.3506 -0.2825
   62MOL   H26723569   1.633   1.060   5.713 -3.5701 -0.3942 -2.3934
   62MOL   C26823570   1.756   0.901   5.627  0.1583  0.3741 -0.2115
   62MOL   C26923571   1.745   0.830   5.489  0.0526  0.6153 -0.6408
   62MOL   C27023572   1.859   0.782   5.425  0.0052 -0.8788 -0.2850
   62MOL   C27123573   1.847   0.728   5.294  0.9452 -0.6614  0.1268
   62MOL   C27223574   1.723   0.727   5.224  0.4758  0.4917  0.0279
   62MOL   C27323575   1.724   0.660   5.083  0.0550  0.5729 -0.4613
   62MOL   C27423576   1.610   0.780   5.288 -0.2021  0.3484  0.2405
   62MOL   C27523577   1.617   0.812   5.428 -0.3040 -0.2205  0.5952
   62MOL   C27623578   1.708   0.810   5.738 -0.6145 -0.0143 -0.3080
   62MOL   H27723579   1.864   0.913   5.636  0.0222  1.6327 -0.2069
   62MOL   H27823580   1.955   0.794   5.472  0.2276 -0.5603 -0.8158
   62MOL   H27923581   1.944   0.701   5.254  0.1030 -3.1775 -0.2942
   62MOL   H28023582   1.781   0.567   5.078  1.2464  1.2200  0.8340
   62MOL   H28123583   1.620   0.648   5.052 -0.7086  2.5789  1.2018
   62MOL   H28223584   1.770   0.734   5.018 -0.9232  1.7371  0.1497
   62MOL   H28323585   1.518   0.781   5.231  1.1500  0.7754 -1.9906
   62MOL   H28423586   1.530   0.850   5.480 -0.6248  2.1154 -1.5446
   62MOL   H28523587   1.771   0.721   5.736 -0.6293 -0.0051 -1.3660
   62MOL   H28623588   1.606   0.785   5.711 -0.6094  0.9215 -1.2343
   62MOL   C28723589   1.722   0.865   5.884 -0.2030  0.4478  0.2001
   62MOL   C28823590   1.869   0.866   5.921  0.5498  0.5006 -0.6234
   62MOL   C28923591   1.946   0.981   5.929 -0.0618  0.1617 -0.0362
   62MOL   C29023592   2.084   0.972   5.972  0.3546  0.2767  0.7897
   62MOL   C29123593   2.144   0.850   5.989 -0.3244  0.5257 -0.4067
   62MOL   C29223594   2.283   0.844   6.045 -0.2671  0.1634 -0.1602
   62MOL   C29323595   2.070   0.735   5.974 -0.6066 -0.0241  0.3872
   62MOL   C29423596   1.935   0.741   5.942 -0.0287 -0.2109  0.4025
   62MOL   C29523597   1.639   0.793   5.992  0.4002 -0.2122  0.5141
   62MOL   H29623598   1.692   0.970   5.895 -0.6414  0.2673  0.7960
   62MOL   H29723599   1.909   1.079   5.904  0.4068  0.3163 -0.1318
   62MOL   H29823600   2.140   1.065   5.978  0.1660  0.4370  0.1357
   62MOL   H29923601   2.345   0.921   5.998 -1.6826  2.4222  1.5949
   62MOL   H30023602   2.288   0.856   6.153 -0.7607  0.2549 -0.1484
   62MOL   H30123603   2.328   0.746   6.029 -3.9586 -1.4440 -1.0723
   62MOL   H30223604   2.118   0.644   6.007  0.3329 -0.0098 -0.8852
   62MOL   H30323605   1.871   0.654   5.936 -1.1104  0.4355  2.1834
   62MOL   H30423606   1.673   0.825   6.091 -1.9941 -2.1521  2.0196
   62MOL   H30523607   1.654   0.686   5.991  1.0713 -0.1165 -1.3515
   62MOL   C30623608   1.491   0.835   6.003 -0.4406 -0.1348 -0.0746
   62MOL   C30723609   1.421   0.743   6.107 -0.1236 -0.1579  0.2572
   62MOL   C30823610   1.402   0.798   6.237 -0.4169  0.3392 -0.5891
   62MOL   C30923611   1.342   0.716   6.341 -0.1387  0.6033  0.1533
   62MOL   C31023612   1.307   0.586   6.317  0.0153 -0.4978 -0.4782
   62MOL   C31123613   1.249   0.495   6.421 -0.0192 -0.0730 -0.6139
   62MOL   C31223614   1.322   0.537   6.186  0.0246 -0.3768  0.1499
   62MOL   C31323615   1.367   0.616   6.076 -0.4019 -0.8324  0.4002
   62MOL   C31423616   1.413   0.843   5.870  0.4132  0.3809  0.4056
   62MOL   H31523617   1.490   0.936   6.045  0.4527 -0.5223  0.8845
   62MOL   H31623618   1.433   0.900   6.255  2.5433 -0.7411  0.8022
   62MOL   H31723619   1.334   0.755   6.441  0.8779 -0.0474  0.4916
   62MOL   H31823620   1.174   0.544   6.483  0.4920 -0.4031  0.2793
   62MOL   H31923621   1.198   0.410   6.375  0.5574 -0.9873  0.4011
   62MOL   H32023622   1.323   0.453   6.489 -0.5550  1.3252  0.8799
   62MOL   H32123623   1.294   0.435   6.164 -3.2930  0.5544 -0.2551
   62MOL   H32223624   1.381   0.578   5.976  1.2010  1.2232 -0.1860
   62MOL   H32323625   1.412   0.745   5.822  0.8226  0.9062 -0.6911
   62MOL   H32423626   1.452   0.922   5.807 -0.7027 -0.0178 -0.8006
   62MOL   C32523627   1.265   0.884   5.880  0.2910  0.3013  0.3021
   62MOL   C32623628   1.189   0.844   5.752  0.3376  0.3030  0.6665
   62MOL   C32723629   1.074   0.763   5.761 -0.3254  0.6320  0.4154
   62MOL   C32823630   1.021   0.715   5.638 -0.2111  0.3043  0.0877
   62MOL   C32923631   1.070   0.743   5.508  0.5027  0.2060 -0.0521
   62MOL   C33023632   1.008   0.685   5.383  0.0761  0.1607  0.5421
   62MOL   C33123633   1.183   0.819   5.509  0.0298  0.3396 -0.1205
   62MOL   C33223634   1.241   0.881   5.627 -0.0179  0.2828 -0.0688
   62MOL   C33323635   1.250   1.025   5.921 -0.8799 -0.1673  0.5402
   62MOL   H33423636   1.214   0.828   5.958  0.0482  1.2685  0.8462
   62MOL   H33523637   1.030   0.747   5.858  0.8401 -0.3303  0.8022
   62MOL   H33623638   0.938   0.646   5.638 -0.4939  0.6317 -0.7755
   62MOL   H33723639   1.024   0.747   5.295 -1.2227 -0.0297  0.1598
   62MOL   H33823640   1.051   0.586   5.364 -1.4410 -0.3387 -0.3713
   62MOL   H33923641   0.901   0.671   5.401 -0.2827  0.3487 -1.3809
   62MOL   H34023642   1.221   0.863   5.417  0.9470 -0.6066 -0.2116
   62MOL   H34123643   1.315   0.959   5.616 -0.1900  0.7313  1.7865
   62MOL   H34223644   1.291   1.093   5.846  0.9463  0.8485  2.4178
   62MOL   H34323645   1.313   1.045   6.007  1.0321  1.7028 -1.2246
   62MOL   C34423646   1.107   1.073   5.946 -0.5175 -0.2245  0.6253
   62MOL   C34523647   1.082   1.206   5.873 -0.2883  0.5947  0.2383
   62MOL   C34623648   1.028   1.198   5.740  0.3843 -0.3035 -0.0866
   62MOL   C34723649   0.987   1.316   5.676 -0.3621  0.3330  0.0566
   62MOL   C34823650   1.009   1.438   5.737 -0.2538 -0.3630  0.9587
   62MOL   C34923651   0.994   1.566   5.656 -0.0968 -0.9066  0.1376
   62MOL   C35023652   1.067   1.446   5.863  0.1303 -0.1088 -0.8040
   62MOL   C35123653   1.102   1.327   5.935  0.6149  0.1922 -0.0999
   62MOL   C35223654   1.082   1.093   6.093  0.3117  0.3392 -0.1205
   62MOL   H35323655   1.031   1.008   5.902  1.0544 -0.2329 -2.1962
   62MOL   H35423656   1.009   1.100   5.697  0.6663  0.1130 -1.1768
   62MOL   H35523657   0.945   1.314   5.576 -1.5621 -1.5385  0.5829
   62MOL   H35623658   1.069   1.580   5.579  0.1716  0.8728  0.6886
   62MOL   H35723659   0.908   1.558   5.590 -0.1562 -1.7227  0.3073
   62MOL   H35823660   0.982   1.651   5.724 -2.0701 -1.0646  0.0307
   62MOL   H35923661   1.097   1.539   5.911 -0.0032 -0.2803 -0.3839
   62MOL   H36023662   1.152   1.329   6.030 -0.8568  0.3242  0.6897
   62MOL   H36123663   0.992   1.152   6.111  1.1921  1.5363  0.4143
   62MOL   H36223664   1.167   1.147   6.134  1.1418  0.0052 -1.3481
   62MOL   C36323665   1.086   0.961   6.175  0.2010  0.1779  0.0150
   62MOL   C36423666   0.982   0.863   6.135  0.4901 -0.0809 -0.5160
   62MOL   C36523667   0.848   0.908   6.116  0.8586  0.7116  0.4919
   62MOL   C36623668   0.750   0.823   6.075  0.1766  0.8996  0.0923
   62MOL   C36723669   0.779   0.687   6.066  0.3091  0.2558 -0.4771
   62MOL   C36823670   0.667   0.591   6.034  0.2232 -0.1084 -0.0571
   62MOL   C36923671   0.907   0.637   6.087  0.3843 -0.2586 -0.4909
   62MOL   C37023672   1.011   0.722   6.125  0.0182  0.3044  0.3716
   62MOL   C37123673   1.082   1.001   6.321 -0.4451 -0.0859 -0.0412
   62MOL   H37223674   1.184   0.912   6.172  1.0201  1.5733  2.1878
   62MOL   H37323675   0.814   1.008   6.140  0.2499  0.6467 -0.1205
   62MOL   H37423676   0.648   0.858   6.076 -0.3948 -0.7302  1.4337
   62MOL   H37523677   0.605   0.580   6.123 -1.0525 -1.1970 -1.0563
   62MOL   H37623678   0.594   0.622   5.960  0.7651  1.8091  0.1899
   62MOL   H37723679   0.696   0.489   6.010 -3.7692 -1.4419  0.4193
   62MOL   H37823680   0.925   0.531   6.082  0.2695 -0.2424 -1.5375
   62MOL   H37923681   1.111   0.691   6.149 -1.0465 -1.2601  2.9368
   62MOL   H38023682   1.164   1.071   6.342  0.7406 -1.4742 -0.0083
   62MOL   H38123683   1.100   0.921   6.393  2.1985 -0.3246 -0.9086
   62MOL   H38223684   0.996   1.062   6.349  0.0522  0.0575  1.2629
   63MOL     C123685   3.596   0.044   7.992  0.0862 -0.1160 -0.2539
   63MOL     C223686   3.500   0.027   0.030 -0.3774  0.5929 -0.4449
   63MOL     C323687   3.545   8.065   0.157 -0.1280  0.5217  0.0040
   63MOL     C423688   3.456   8.050   0.263  0.5676 -0.0518  0.3130
   63MOL     C523689   3.318   8.069   0.243  0.2874  0.1415 -0.3930
   63MOL     C623690   3.209   8.050   0.348  0.8618 -0.3407  0.8607
   63MOL     C723691   3.277   0.037   0.118  0.3060 -0.0729 -0.0227
   63MOL     C823692   3.367   0.059   0.011  0.0949 -0.2245  0.0509
   63MOL     C923693   3.577   8.000   7.896 -0.0314 -0.3779  0.1398
   63MOL    H1023694   3.578   0.143   7.950 -2.5928  0.2730  1.7021
   63MOL    H1123695   3.652   8.054   0.169 -0.3011 -0.9105  0.2984
   63MOL    H1223696   3.505   8.031   0.357  1.5362  1.8241  0.2153
   63MOL    H1323697   3.155   0.063   0.366  1.2930  0.1478 -0.3073
   63MOL    H1423698   3.127   7.983   0.320 -0.1932  0.6604  1.4991
   63MOL    H1523699   3.251   7.999   0.435  1.2684 -2.4691 -0.5470
   63MOL    H1623700   3.172   0.059   0.109  0.0678 -0.5762  1.4491
   63MOL    H1723701   3.323   0.079   7.994 -0.5463 -0.3123  0.3206
   63MOL    H1823702   3.471   7.991   7.875  0.2209  0.2509 -1.4614
   63MOL    H1923703   3.607   7.914   7.956 -1.1321 -0.3482  0.7356
   63MOL    H2023704   3.701   0.048   8.020 -0.4632  2.6260  1.5517
   63MOL    C2123705   3.661   8.008   7.764 -0.4268  0.5149  0.1142
   63MOL    C2223706   3.644   0.049   7.674 -0.0183  0.0790  0.4403
   63MOL    C2323707   3.755   0.106   7.603  0.4095  0.1487  0.5466
   63MOL    C2423708   3.742   0.224   7.528  0.3391  0.1947  0.4836
   63MOL    C2523709   3.613   0.278   7.519  0.5034  0.0376  0.4709
   63MOL    C2623710   3.589   0.397   7.429  0.4217 -0.5616  0.3746
   63MOL    C2723711   3.506   0.233   7.601  0.0560 -0.3368  0.6069
   63MOL    C2823712   3.524   0.120   7.678  0.7056 -0.5466 -0.3589
   63MOL    C2923713   3.642   7.873   7.691  0.0396  1.2241  0.1682
   63MOL    H3023714   3.765   8.010   7.795 -0.1572  1.4201 -0.8175
   63MOL    H3123715   3.850   0.058   7.618  1.3274  0.8284 -2.7381
   63MOL    H3223716   3.826   0.260   7.470 -0.3013  1.9289  0.6020
   63MOL    H3323717   3.668   0.404   7.354 -1.3067 -1.1757 -1.5374
   63MOL    H3423718   3.501   0.371   7.371  0.2814 -1.3430  0.9323
   63MOL    H3523719   3.586   0.490   7.485 -1.6264  1.0023 -2.2114
   63MOL    H3623720   3.413   0.287   7.604  0.0755 -0.1951 -1.1095
   63MOL    H3723721   3.442   0.095   7.744  0.1731  0.7055 -0.5254
   63MOL    H3823722   3.535   7.856   7.678  0.1839  1.0874 -0.8493
   63MOL    H3923723   3.672   7.793   7.759  1.9178  1.0911 -0.7858
   63MOL    C4023724   3.711   7.862   7.554  0.3172  0.0740  0.2373
   63MOL    C4123725   3.649   7.746   7.467 -0.2634  0.1108 -0.4191
   63MOL    C4223726   3.676   7.607   7.504  0.4477  1.1413  0.5751
   63MOL    C4323727   3.599   7.509   7.428 -0.7141 -0.0955 -0.7499
   63MOL    C4423728   3.513   7.544   7.324 -0.0183  0.8160  0.1976
   63MOL    C4523729   3.424   7.449   7.250 -0.3731  1.3205  0.1988
   63MOL    C4623730   3.500   7.681   7.292 -0.0098  0.1614 -0.0222
   63MOL    C4723731   3.560   7.781   7.368 -0.2162  0.1460  0.3204
   63MOL    C4823732   3.862   7.836   7.583  0.5125  0.1532  0.4969
   63MOL    H4923733   3.700   7.956   7.500  1.8216 -0.2576 -0.6773
   63MOL    H5023734   3.741   7.582   7.587 -0.7030 -0.4908  1.0058
   63MOL    H5123735   3.612   7.403   7.444 -1.8852 -0.6182 -2.9998
   63MOL    H5223736   3.467   7.349   7.255  2.4511  2.4763 -0.0126
   63MOL    H5323737   3.324   7.441   7.293 -0.6979 -1.0222 -0.8877
   63MOL    H5423738   3.413   7.472   7.144  1.9523  2.1297  0.1150
   63MOL    H5523739   3.425   7.716   7.222  0.8964  0.5225 -0.8183
   63MOL    H5623740   3.549   7.888   7.359  0.2908  0.1422 -0.4066
   63MOL    H5723741   3.867   7.739   7.632  0.9435  1.4487  3.1270
   63MOL    H5823742   3.893   7.914   7.653  0.1082  1.1147 -0.3779
   63MOL    C5923743   3.961   7.836   7.460 -0.6843  0.1476  0.4488
   63MOL    C6023744   4.086   7.756   7.483  0.1073  0.0229 -0.2101
   63MOL    C6123745   4.109   7.638   7.412 -0.4356 -0.4073 -0.2016
   63MOL    C6223746   4.238   7.575   7.429  0.1283  0.2141  0.0976
   63MOL    C6323747   4.327   7.609   7.531 -0.5204 -0.5864  1.2408
   63MOL    C6423748   4.454   7.526   7.578 -0.2175  0.4046  0.1194
   63MOL    C6523749   4.297   7.728   7.609  0.3430  0.3565 -0.1589
   63MOL    C6623750   4.174   7.790   7.587 -0.2874 -0.0492  0.0439
   63MOL    C6723751   3.986   7.978   7.402 -0.0404  0.1574 -0.8806
   63MOL    H6823752   3.909   7.776   7.385 -0.0583 -0.4005  0.4495
   63MOL    H6923753   4.036   7.608   7.338 -0.3647  0.0826 -0.4694
   63MOL    H7023754   4.262   7.477   7.389  1.1248  0.4527  0.1032
   63MOL    H7123755   4.470   7.433   7.524 -1.2308 -0.8242  1.8980
   63MOL    H7223756   4.544   7.584   7.561  0.1952 -0.4726 -0.7582
   63MOL    H7323757   4.455   7.493   7.682 -2.8483  0.4664  0.2060
   63MOL    H7423758   4.346   7.771   7.695 -0.5438  1.9346 -0.4200
   63MOL    H7523759   4.167   7.884   7.640  2.1432  0.8311 -1.1051
   63MOL    H7623760   4.033   8.035   7.482  1.7458 -3.8038  1.0013
   63MOL    H7723761   3.886   8.019   7.387  0.2610  0.6106 -1.7278
   63MOL    C7823762   4.049   8.002   7.267 -0.1835  0.0874 -0.2148
   63MOL    C7923763   3.980   7.913   7.171  0.4993  0.5609 -0.5731
   63MOL    C8023764   4.043   7.798   7.121 -0.2929  0.5506 -0.2059
   63MOL    C8123765   3.969   7.702   7.043 -0.4547 -0.1286 -0.5626
   63MOL    C8223766   3.836   7.727   7.002 -0.1753 -0.1951  0.2518
   63MOL    C8323767   3.769   7.645   6.888 -0.3279 -0.0686 -0.7756
   63MOL    C8423768   3.769   7.842   7.055 -0.0280  0.1374 -0.1590
   63MOL    C8523769   3.841   7.932   7.141 -0.5333 -0.6218  0.7155
   63MOL    C8623770   4.200   7.994   7.251  0.3557  0.5495 -0.0772
   63MOL    H8723771   4.031   0.025   7.235  0.2295 -0.3280 -1.8214
   63MOL    H8823772   4.147   7.773   7.141  0.5661  2.9643 -1.4787
   63MOL    H8923773   4.012   7.618   6.991 -2.4105 -1.5898  0.1603
   63MOL    H9023774   3.667   7.634   6.925  0.0919  2.4599  1.3025
   63MOL    H9123775   3.773   7.699   6.794  0.3318  2.4614  0.6514
   63MOL    H9223776   3.815   7.550   6.863  2.4296  1.4708 -1.7453
   63MOL    H9323777   3.664   7.863   7.039 -0.1535  1.8171  2.6670
   63MOL    H9423778   3.780   8.019   7.163  0.1667  0.4827 -1.5678
   63MOL    H9523779   4.217   8.004   7.143  1.5415 -2.1961 -0.1980
   63MOL    H9623780   4.242   7.897   7.278 -0.3170  0.2920  0.0479
   63MOL    C9723781   4.286   0.020   7.330  0.4523  0.0210  0.1733
   63MOL    C9823782   4.215   0.149   7.347  0.0756  0.0045  0.4536
   63MOL    C9923783   4.190   0.192   7.473 -0.8023 -0.2599  0.1419
   63MOL   C10023784   4.118   0.309   7.495  0.4554  0.3339  0.4372
   63MOL   C10123785   4.074   0.381   7.382  0.8959  0.0213 -0.1063
   63MOL   C10223786   3.998   0.507   7.409 -0.3733 -0.6402  0.0757
   63MOL   C10323787   4.097   0.339   7.252 -0.5191  0.3796  0.8997
   63MOL   C10423788   4.172   0.221   7.230 -0.2049  0.0703 -0.1284
   63MOL   C10523789   4.416   0.042   7.247 -0.0512 -0.7694 -0.4255
   63MOL   H10623790   4.318   8.053   7.423 -0.9600 -1.1444  0.0924
   63MOL   H10723791   4.221   0.127   7.553  1.1727 -1.7375 -1.7340
   63MOL   H10823792   4.103   0.348   7.594 -3.1680 -0.4730  0.2489
   63MOL   H10923793   3.914   0.505   7.340  1.2396  2.2122 -2.0771
   63MOL   H11023794   3.962   0.504   7.512  0.2879 -0.2678  0.3207
   63MOL   H11123795   4.055   0.594   7.377 -3.0851  1.3802  0.5479
   63MOL   H11223796   4.066   0.407   7.174  0.7454  0.6570  0.6331
   63MOL   H11323797   4.200   0.197   7.128 -2.7216 -1.9688 -0.3840
   63MOL   H11423798   4.467   0.130   7.287 -1.9707 -0.0875  0.6164
   63MOL   H11523799   4.387   0.070   7.146 -1.1527 -0.8543 -0.1407
   63MOL   C11623800   4.530   8.015   7.229 -0.0873 -0.6720  0.7601
   63MOL   C11723801   4.609   8.002   7.364  0.0092  0.0764  0.5580
   63MOL   C11823802   4.698   0.028   7.397  0.1436 -0.4329  0.0948
   63MOL   C11923803   4.758   0.035   7.521 -0.7232 -0.1421  0.2564
   63MOL   C12023804   4.748   8.006   7.606 -0.1243  0.2880  0.0382
   63MOL   C12123805   4.816   8.014   7.744  0.6383  0.3027 -0.0835
   63MOL   C12223806   4.681   7.888   7.562 -0.1645  0.8769  0.4583
   63MOL   C12323807   4.609   7.885   7.440  0.6844 -0.6991  0.0219
   63MOL   C12423808   4.625   8.045   7.111  0.5819  0.2814 -0.7710
   63MOL   H12523809   4.481   7.918   7.219  1.0371 -0.9588 -2.2266
   63MOL   H12623810   4.698   0.117   7.335  1.2099 -0.8058 -0.4510
   63MOL   H12723811   4.812   0.121   7.557  0.1787 -0.4488 -0.3293
   63MOL   H12823812   4.870   7.924   7.775 -0.8533 -0.9169 -0.9628
   63MOL   H12923813   4.882   0.020   7.752  0.8960  0.1469 -0.5379
   63MOL   H13023814   4.736   8.039   7.813  0.4759  0.1704 -0.2248
   63MOL   H13123815   4.684   7.798   7.622 -1.3448  0.0522 -0.7081
   63MOL   H13223816   4.548   7.801   7.411 -2.0838  1.0265  0.7288
   63MOL   H13323817   4.711   7.983   7.135  0.4299  0.7528  1.0008
   63MOL   H13423818   4.654   0.069   7.130  0.6412 -0.0537  1.0688
   63MOL   C13523819   4.564   8.021   6.970  0.3346 -0.4678  0.0714
   63MOL   C13623820   4.522   7.875   6.958 -0.3115 -0.1595 -0.0323
   63MOL   C13723821   4.380   7.848   6.932  0.0333 -0.0997  0.2269
   63MOL   C13823822   4.335   7.720   6.915  0.0614  0.3269  0.4923
   63MOL   C13923823   4.429   7.612   6.923  0.1729 -0.0313 -0.3193
   63MOL   C14023824   4.383   7.461   6.925 -0.0193 -0.8573 -0.2328
   63MOL   C14123825   4.566   7.641   6.943 -0.0763  0.1696 -0.3799
   63MOL   C14223826   4.614   7.769   6.960  0.3599 -0.1467  0.2280
   63MOL   C14323827   4.664   8.062   6.857  0.1124  0.4575 -0.0235
   63MOL   H14423828   4.474   0.000   6.952  0.5891 -0.1357 -0.1013
   63MOL   H14523829   4.311   7.931   6.932  0.4984  0.2878  1.1134
   63MOL   H14623830   4.227   7.708   6.910  0.2361 -0.5394 -1.6188
   63MOL   H14723831   4.287   7.447   6.875 -0.3913 -0.2119  0.2947
   63MOL   H14823832   4.454   7.411   6.860 -0.0423  0.8460 -1.6254
   63MOL   H14923833   4.378   7.425   7.027 -1.8767 -1.3417 -0.4825
   63MOL   H15023834   4.632   7.557   6.953 -0.5934 -0.1013  0.8728
   63MOL   H15123835   4.721   7.779   6.976  0.4330  0.4019 -0.6000
   63MOL   H15223836   4.622   8.020   6.765 -0.2835  1.9303 -0.5176
   63MOL   H15323837   4.756   8.010   6.886 -0.5568 -1.1890 -0.7497
   63MOL   C15423838   4.693   0.138   6.850  0.4990 -0.5766  0.0809
   63MOL   C15523839   4.568   0.215   6.805 -0.3726  0.2439  0.7253
   63MOL   C15623840   4.489   0.291   6.898 -0.9032  0.9057 -0.0339
   63MOL   C15723841   4.369   0.349   6.862  0.7804 -0.0629 -0.4497
   63MOL   C15823842   4.319   0.330   6.731  0.0984 -0.6723  0.9193
   63MOL   C15923843   4.180   0.384   6.693 -0.3439 -0.5203  0.1873
   63MOL   C16023844   4.384   0.241   6.645 -0.0669  0.8127 -0.1266
   63MOL   C16123845   4.513   0.192   6.677  0.2729 -0.1227 -0.6494
   63MOL   C16223846   4.814   0.165   6.753 -0.0709  0.0292  0.3340
   63MOL   H16323847   4.707   0.172   6.952 -0.0743 -2.2620  0.7332
   63MOL   H16423848   4.534   0.295   6.996 -0.5833 -1.4437 -0.0496
   63MOL   H16523849   4.321   0.413   6.934  0.2790 -1.7292  0.7330
   63MOL   H16623850   4.104   0.308   6.675 -0.0966 -0.9090  0.7557
   63MOL   H16723851   4.135   0.438   6.776  0.3365 -0.1030  0.2822
   63MOL   H16823852   4.179   0.454   6.609  0.4464 -1.0744 -0.2923
   63MOL   H16923853   4.340   0.226   6.547  0.4112  1.4577 -0.4476
   63MOL   H17023854   4.569   0.134   6.605  1.5610  1.2623 -0.7809
   63MOL   H17123855   4.805   0.264   6.709  0.5308 -0.2599 -0.4554
   63MOL   H17223856   4.808   0.101   6.665  2.0700 -0.5594  0.5770
   63MOL   C17323857   4.955   0.136   6.809 -0.4093  0.9555  0.4485
   63MOL   C17423858   4.974   0.157   6.958  0.3863  0.8542 -0.0407
   63MOL   C17523859   5.002   0.048   7.041  0.3643 -0.3962  0.5678
   63MOL   C17623860   5.010   0.073   7.179 -0.0078 -0.5225  0.5077
   63MOL   C17723861   5.013   0.209   7.227 -0.1506  1.0126  0.2068
   63MOL   C17823862   5.036   0.243   7.368 -0.1161  0.0704  0.3643
   63MOL   C17923863   4.992   0.314   7.141 -0.1754  0.2005 -0.1945
   63MOL   C18023864   4.973   0.288   7.005 -0.5838  0.4019 -0.0135
   63MOL   C18123865   5.065   0.205   6.727  0.6048 -0.0712  0.4898
   63MOL   H18223866   4.983   0.031   6.813 -3.2549  0.1442  0.0887
   63MOL   H18323867   5.018   8.027   7.006 -1.2453 -1.0921  1.7176
   63MOL   H18423868   5.017   8.075   7.253  1.2935 -0.4312  0.4907
   63MOL   H18523869   4.970   0.303   7.430  0.4251  3.1429 -1.9149
   63MOL   H18623870   5.058   0.153   7.425  0.6602 -0.5739 -0.9379
   63MOL   H18723871   5.126   0.304   7.364 -1.1364  1.5529 -0.4625
   63MOL   H18823872   4.999   0.420   7.161  1.8079 -0.1614  1.1103
   63MOL   H18923873   4.967   0.369   6.934 -0.2351 -0.4031 -0.9591
   63MOL   H19023874   5.160   0.169   6.767  0.2654 -1.5824 -0.0092
   63MOL   H19123875   5.061   0.313   6.743 -2.5268  0.0277 -0.4811
   63MOL   C19223876   5.059   0.185   6.576  0.9955 -0.3828 -0.4202
   63MOL   C19323877   5.030   0.041   6.541 -0.3875  0.8921  0.8054
   63MOL   C19423878   4.918   0.002   6.465 -0.0658 -0.1408 -0.6713
   63MOL   C19523879   4.905   7.956   6.405  0.0473  0.4650 -0.4948
   63MOL   C19623880   5.004   7.858   6.430  0.5444 -0.3174 -0.3468
   63MOL   C19723881   4.989   7.717   6.383 -0.0291 -1.1418  0.5212
   63MOL   C19823882   5.123   7.889   6.503  0.6426 -0.4043  0.2395
   63MOL   C19923883   5.132   8.020   6.563 -0.0931 -0.0235  0.4934
   63MOL   C20023884   5.178   0.250   6.492 -0.3153  0.3738  0.6597
   63MOL   H20123885   4.974   0.243   6.539  0.0819 -0.9720  0.7277
   63MOL   H20223886   4.848   0.078   6.436 -0.4246  1.0174  2.9603
   63MOL   H20323887   4.813   7.933   6.353  0.4450  0.5505 -1.2358
   63MOL   H20423888   4.916   7.675   6.453 -0.9600  2.3422  1.7085
   63MOL   H20523889   4.966   7.721   6.277 -0.8806 -1.2736  0.6978
   63MOL   H20623890   5.079   7.655   6.390  1.1694  0.7328  2.3654
   63MOL   H20723891   5.195   7.810   6.515 -0.9000 -1.7785  0.5715
   63MOL   H20823892   5.225   8.042   6.614  1.0903 -0.7796 -1.3150
   63MOL   H20923893   5.271   0.219   6.539 -1.2386 -3.3507  0.2025
   63MOL   H21023894   5.188   0.358   6.505  2.2254 -0.1216  3.6019
   63MOL   C21123895   5.200   0.198   6.351  0.0507  0.3330 -0.1774
   63MOL   C21223896   5.333   0.250   6.308 -0.1314 -0.3399  0.1165
   63MOL   C21323897   5.430   0.156   6.275  0.1865  0.2956  0.3341
   63MOL   C21423898   5.555   0.198   6.219 -0.0712  0.1725  0.3299
   63MOL   C21523899   5.580   0.335   6.202  0.0848 -0.4466  0.3484
   63MOL   C21623900   5.717   0.382   6.166 -0.3027  0.6557 -0.9486
   63MOL   C21723901   5.485   0.433   6.235 -0.3462  0.4639  0.2985
   63MOL   C21823902   5.365   0.385   6.293 -0.0648  0.1318 -0.0574
   63MOL   C21923903   5.085   0.248   6.255  0.0373  0.0934  0.0072
   63MOL   H22023904   5.200   0.090   6.366  1.1125  0.2430 -0.8284
   63MOL   H22123905   5.410   0.050   6.286 -2.0075  0.7829  1.4611
   63MOL   H22223906   5.636   0.138   6.182 -2.0758 -1.8590 -0.8270
   63MOL   H22323907   5.763   0.306   6.103  0.1872 -0.3675  0.6213
   63MOL   H22423908   5.697   0.474   6.112 -2.7261  0.3969 -0.5264
   63MOL   H22523909   5.779   0.410   6.252  0.5643  1.8162 -1.9289
   63MOL   H22623910   5.503   0.539   6.230  0.1493  0.3484 -0.5720
   63MOL   H22723911   5.288   0.453   6.323 -0.7089 -0.3682 -0.5591
   63MOL   H22823912   5.084   0.357   6.251 -2.2200  0.0370 -2.9389
   63MOL   H22923913   4.984   0.223   6.287  0.5451 -0.0589  1.4992
   63MOL   C23023914   5.092   0.199   6.113 -0.7061  0.2915 -0.1165
   63MOL   C23123915   4.980   0.269   6.036 -0.0165  0.0277  0.4627
   63MOL   C23223916   5.018   0.362   5.940  0.3472  0.1804  0.1160
   63MOL   C23323917   4.913   0.406   5.857  0.6121  0.2806  0.3342
   63MOL   C23423918   4.783   0.364   5.865  0.4913 -0.0438 -0.5843
   63MOL   C23523919   4.671   0.404   5.768 -0.6378 -0.3780 -0.6717
   63MOL   C23623920   4.742   0.278   5.972 -0.3983 -0.1718 -0.5780
   63MOL   C23723921   4.843   0.234   6.059 -0.0405  0.2306  0.3728
   63MOL   C23823922   5.090   0.044   6.094 -0.1995 -1.2884 -0.5105
   63MOL   H23923923   5.186   0.236   6.073  1.8152 -2.6745  2.7681
   63MOL   H24023924   5.119   0.399   5.932  0.8262 -0.9098  1.0452
   63MOL   H24123925   4.944   0.472   5.777 -3.2039  0.9134 -0.7565
   63MOL   H24223926   4.672   0.513   5.774  0.0724 -0.3904 -0.5334
   63MOL   H24323927   4.680   0.370   5.665  0.0139 -0.7023 -0.5136
   63MOL   H24423928   4.572   0.374   5.804  0.0794  0.4685  2.1495
   63MOL   H24523929   4.641   0.242   5.988  0.0947 -1.0419  0.6154
   63MOL   H24623930   4.811   0.160   6.130 -0.2706 -0.6601 -0.6517
   63MOL   H24723931   4.990   0.005   6.116 -0.6063  0.5668  1.0966
   63MOL   H24823932   5.168   0.007   6.160  1.4377  1.6674 -0.7038
   63MOL   C24923933   5.146   0.007   5.958  0.7024 -0.6546 -0.0196
   63MOL   C25023934   5.114   7.941   5.927 -0.0123 -0.1388 -0.0790
   63MOL   C25123935   5.140   7.835   6.020 -0.5171 -0.1902 -0.1524
   63MOL   C25223936   5.122   7.702   5.980 -0.7913 -0.1567  0.1273
   63MOL   C25323937   5.100   7.678   5.844 -0.3762 -0.0752  0.5241
   63MOL   C25423938   5.105   7.530   5.799  0.1084 -0.5621 -0.3954
   63MOL   C25523939   5.079   7.779   5.750  0.0073 -0.7058 -0.1150
   63MOL   C25623940   5.079   7.913   5.790 -0.4721  0.1206 -0.5288
   63MOL   C25723941   5.301   0.020   5.963 -0.3212  0.3833  0.3849
   63MOL   H25823942   5.092   0.067   5.885  1.6655 -0.5813 -0.6791
   63MOL   H25923943   5.172   7.850   6.122  0.0495  0.7255 -0.4500
   63MOL   H26023944   5.117   7.624   6.055 -0.1850 -1.7343 -1.4204
   63MOL   H26123945   5.199   7.518   5.745  0.4339  1.0880 -0.2086
   63MOL   H26223946   5.105   7.472   5.891  0.0230  0.9329  0.5591
   63MOL   H26323947   5.027   7.493   5.732  2.1125 -2.5506 -1.7260
   63MOL   H26423948   5.073   7.742   5.649  0.1523 -1.2595  0.0784
   63MOL   H26523949   5.058   7.994   5.722 -0.3138  0.4501 -0.1874
   63MOL   H26623950   5.342   8.008   6.004 -0.3162 -0.4175 -1.3799
   63MOL   H26723951   5.329   0.097   6.035  0.9421  2.5084 -2.3019
   63MOL   C26823952   5.372   0.070   5.840  0.9737 -0.0338  0.3233
   63MOL   C26923953   5.353   8.041   5.726 -0.2919  0.7975  0.0046
   63MOL   C27023954   5.404   7.907   5.748 -0.1523  0.3435 -0.1608
   63MOL   C27123955   5.382   7.808   5.655  0.0037  0.8135  1.4835
   63MOL   C27223956   5.314   7.840   5.527  0.0486  0.0694  0.3738
   63MOL   C27323957   5.289   7.730   5.429  0.5016  0.8117 -0.1710
   63MOL   C27423958   5.285   7.974   5.496  0.2367 -0.6170 -0.6321
   63MOL   C27523959   5.300   8.067   5.598 -0.2287 -0.2728  0.0298
   63MOL   C27623960   5.522   0.112   5.868 -0.0216  0.0768 -0.1228
   63MOL   H27723961   5.309   0.157   5.821 -1.6169 -2.1000 -0.8256
   63MOL   H27823962   5.439   7.902   5.849  2.7109  2.4685 -0.9969
   63MOL   H27923963   5.397   7.704   5.678 -0.5482  0.6349  1.0448
   63MOL   H28023964   5.380   7.706   5.374  0.0334  0.8546 -0.9827
   63MOL   H28123965   5.253   7.636   5.471 -1.5230  0.6407 -2.2036
   63MOL   H28223966   5.230   7.760   5.343 -1.2087 -2.4015 -0.1857
   63MOL   H28323967   5.237   8.002   5.404  0.5982 -1.6963 -1.1481
   63MOL   H28423968   5.274   0.089   5.575 -0.0349 -0.0802  0.6433
   63MOL   H28523969   5.576   0.018   5.876  1.0709  0.7484  0.4252
   63MOL   H28623970   5.523   0.175   5.957 -1.8627  3.3789 -2.2821
   63MOL   C28723971   5.608   0.184   5.756  0.1189  0.1064 -0.8902
   63MOL   C28823972   5.754   0.146   5.765 -0.5333  0.5331 -0.5045
   63MOL   C28923973   5.821   0.127   5.892  0.1732  0.2383 -0.1386
   63MOL   C29023974   5.957   0.095   5.901 -0.3869 -0.4665  0.1855
   63MOL   C29123975   6.035   0.088   5.783  0.1111 -0.0703 -0.1925
   63MOL   C29223976   6.178   0.047   5.798  0.9822  1.0858  0.3022
   63MOL   C29323977   5.975   0.111   5.659  0.0784  0.0218  0.4217
   63MOL   C29423978   5.836   0.142   5.650 -0.4241  0.4384  0.1772
   63MOL   C29523979   5.591   0.340   5.766  0.4453 -0.3349 -0.1141
   63MOL   H29623980   5.574   0.151   5.658  1.3415  0.0293 -1.2879
   63MOL   H29723981   5.752   0.118   5.975 -1.2935 -0.5250 -1.4010
   63MOL   H29823982   6.011   0.086   5.994 -1.6018 -1.0730  0.8429
   63MOL   H29923983   6.243   0.062   5.712  1.9443  0.3766  0.8907
   63MOL   H30023984   6.223   0.106   5.878 -0.0426 -1.4734  2.8932
   63MOL   H30123985   6.176   8.022   5.828 -1.0754  1.4381  1.5003
   63MOL   H30223986   6.024   0.120   5.563 -4.2096  1.3983 -1.7708
   63MOL   H30323987   5.781   0.161   5.560 -1.6121 -2.6250  0.1853
   63MOL   H30423988   5.652   0.389   5.690  0.3734  0.0651  0.0817
   63MOL   H30523989   5.626   0.380   5.861 -0.0857  0.2629 -0.1642
   63MOL   C30623990   5.459   0.415   5.758 -0.4608  0.0829  0.7943
   63MOL   C30723991   5.380   0.385   5.625  0.1949  0.6301  0.2612
   63MOL   C30823992   5.240   0.389   5.625  0.5511  0.2685  0.8481
   63MOL   C30923993   5.165   0.355   5.512  0.2409  0.3363 -0.1417
   63MOL   C31023994   5.234   0.315   5.399  0.2128 -0.7609 -0.2432
   63MOL   C31123995   5.160   0.281   5.268 -0.1297 -0.8701  0.2796
   63MOL   C31223996   5.374   0.311   5.398  0.0398 -0.4542 -0.1811
   63MOL   C31323997   5.448   0.345   5.512  0.4058  0.0420  0.5827
   63MOL   C31423998   5.491   0.568   5.760  0.3278  0.3493  0.2225
   63MOL   H31523999   5.393   0.382   5.838 -0.6608 -1.4458  0.0252
   63MOL   H31624000   5.198   0.415   5.721  0.6343 -2.2036  1.6003
   63MOL   H31724001   5.057   0.348   5.507  0.3150 -0.9090 -0.1906
   63MOL   H31824002   5.173   0.174   5.252  1.0699 -0.3527 -2.3451
   63MOL   H31924003   5.055   0.309   5.278  0.5195  2.1813 -1.0274
   63MOL   H32024004   5.198   0.331   5.180 -0.1543 -1.8662 -0.3015
   63MOL   H32124005   5.432   0.284   5.311 -0.5098 -3.1305  0.2147
   63MOL   H32224006   5.554   0.325   5.512  0.1527 -1.6660  3.5871
   63MOL   H32324007   5.537   0.594   5.665  0.3370 -0.9404 -0.1413
   63MOL   H32424008   5.565   0.591   5.837  0.0016 -1.1266  0.9981
   63MOL   C32524009   5.374   0.661   5.780 -0.1749 -0.3485  0.1813
   63MOL   C32624010   5.422   0.802   5.752  0.4084 -0.2501 -0.3175
   63MOL   C32724011   5.508   0.872   5.843  0.5739 -0.1066  0.7250
   63MOL   C32824012   5.554   1.000   5.802  0.7199 -0.4863  0.4003
   63MOL   C32924013   5.509   1.052   5.681  0.4289 -0.4773  0.1885
   63MOL   C33024014   5.561   1.178   5.635  0.7977  0.4412  0.0297
   63MOL   C33124015   5.426   0.983   5.591  0.0151 -0.0268  0.1512
   63MOL   C33224016   5.379   0.859   5.627 -0.1116 -0.7103  0.4034
   63MOL   C33324017   5.311   0.647   5.920  0.7545 -0.0579  0.2367
   63MOL   H33424018   5.298   0.642   5.704 -0.1435  2.1526 -0.4958
   63MOL   H33524019   5.550   0.834   5.935  0.1369 -0.6271  0.7106
   63MOL   H33624020   5.629   1.054   5.858 -0.0049  0.6099  0.3270
   63MOL   H33724021   5.616   1.232   5.711  0.6330  1.3658 -0.4982
   63MOL   H33824022   5.640   1.159   5.563 -0.1216  0.8149 -1.0934
   63MOL   H33924023   5.482   1.238   5.591  1.9648  1.3740 -0.8286
   63MOL   H34024024   5.398   1.033   5.499 -0.5169 -0.5958  0.0039
   63MOL   H34124025   5.314   0.811   5.555  0.8006  0.4779 -1.2439
   63MOL   H34224026   5.386   0.653   5.999  2.1486 -0.3140 -1.0529
   63MOL   H34324027   5.261   0.551   5.936  0.3595  0.2834  1.1082
   63MOL   C34424028   5.212   0.757   5.962  0.2198  0.2542 -0.2170
   63MOL   C34524029   5.181   0.749   6.110  0.0257  0.1304 -0.1759
   63MOL   C34624030   5.065   0.689   6.164  0.3345 -0.0868  0.0402
   63MOL   C34724031   5.038   0.695   6.302 -0.2542  0.0031 -0.1374
   63MOL   C34824032   5.126   0.761   6.386  0.0331  0.4544 -0.5383
   63MOL   C34924033   5.097   0.776   6.534 -0.1982 -0.8784 -0.1505
   63MOL   C35024034   5.241   0.822   6.341 -0.2143 -0.0296  0.0138
   63MOL   C35124035   5.271   0.816   6.203 -0.7087  0.2326  0.4934
   63MOL   C35224036   5.089   0.770   5.872 -0.4512 -0.2308 -0.4274
   63MOL   H35324037   5.272   0.847   5.950  0.9111 -0.4050 -1.8357
   63MOL   H35424038   4.997   0.641   6.096 -1.8622  1.4497  1.1049
   63MOL   H35524039   4.946   0.655   6.342 -0.0812  0.8338  1.1370
   63MOL   H35624040   5.181   0.759   6.601  1.4828  1.5930 -1.5622
   63MOL   H35724041   5.061   0.878   6.548  0.6140 -0.8287  1.5965
   63MOL   H35824042   5.009   0.719   6.565 -0.1788 -1.5802 -1.3381
   63MOL   H35924043   5.313   0.873   6.404 -3.6852  2.6956  1.9176
   63MOL   H36024044   5.364   0.858   6.169 -0.7451  2.0372  2.5183
   63MOL   H36124045   5.029   0.680   5.860  1.5171 -1.4527 -1.1982
   63MOL   H36224046   5.123   0.783   5.770  0.2161 -1.2167 -0.3411
   63MOL   C36324047   5.006   0.895   5.898  0.3188 -0.5682 -0.4615
   63MOL   C36424048   4.864   0.877   5.853  0.1873 -0.2113  0.1293
   63MOL   C36524049   4.776   0.790   5.924 -0.1326 -0.0590  0.4506
   63MOL   C36624050   4.645   0.765   5.878  0.3758 -0.4541  0.2164
   63MOL   C36724051   4.614   0.814   5.748  0.0379  0.2239 -0.1756
   63MOL   C36824052   4.483   0.778   5.678 -0.1801  0.3198 -0.3709
   63MOL   C36924053   4.699   0.900   5.674 -0.0522  0.0707  0.5036
   63MOL   C37024054   4.821   0.937   5.727 -0.5101 -0.1843  1.0908
   63MOL   C37124055   5.069   1.030   5.864  0.4697 -0.2564  0.5371
   63MOL   H37224056   4.990   0.899   6.006  0.2516  3.2439 -0.5163
   63MOL   H37324057   4.803   0.754   6.022  0.5880  2.0378  1.0490
   63MOL   H37424058   4.569   0.704   5.925  0.1086 -0.1922  0.1272
   63MOL   H37524059   4.496   0.698   5.605  1.1664  1.6837 -1.6757
   63MOL   H37624060   4.410   0.741   5.750 -1.1337 -0.7822 -1.8714
   63MOL   H37724061   4.441   0.870   5.637  2.0161  2.0192  1.0554
   63MOL   H37824062   4.665   0.939   5.580 -4.2802  1.1858  2.3622
   63MOL   H37924063   4.887   1.002   5.671 -0.1954 -0.9555  0.5700
   63MOL   H38024064   5.088   1.032   5.757  0.2285 -0.0521  0.4983
   63MOL   H38124065   5.162   1.047   5.918  1.4077  0.2811 -1.2044
   63MOL   H38224066   5.013   1.121   5.886  0.3771  0.3337 -1.9567
   64MOL     C124067   7.100   6.954   0.154 -0.3617  0.1080 -0.9956
   64MOL     C224068   7.197   7.071   0.166 -0.0833  0.0155 -0.3608
   64MOL     C324069   7.336   7.041   0.162  0.1406 -0.3031 -0.0369
   64MOL     C424070   7.428   7.143   0.186  0.3401 -0.0484  0.3218
   64MOL     C524071   7.379   7.278   0.179 -0.0773 -0.4318  1.1323
   64MOL     C624072   7.485   7.383   0.206  0.0893  0.2509 -0.5720
   64MOL     C724073   7.242   7.306   0.169 -0.0048  0.2490  0.3317
   64MOL     C824074   7.145   7.204   0.178  0.0484  1.1269  0.1263
   64MOL     C924075   7.072   6.918   0.300  0.1803 -0.1045  0.5355
   64MOL    H1024076   7.004   6.995   0.120 -0.0757  1.7671  0.1189
   64MOL    H1124077   7.373   6.940   0.151 -0.5173 -0.2565 -3.4170
   64MOL    H1224078   7.533   7.124   0.204  0.1331 -1.2024  0.3217
   64MOL    H1324079   7.521   7.385   0.309 -1.1546 -0.5666 -0.1120
   64MOL    H1424080   7.578   7.375   0.151  1.3830  3.3338  1.0318
   64MOL    H1524081   7.449   7.483   0.181 -0.7572 -0.2182 -1.2273
   64MOL    H1624082   7.213   7.410   0.172  1.6489  0.7593 -0.8675
   64MOL    H1724083   7.042   7.230   0.194  0.5250  2.4808  1.1138
   64MOL    H1824084   7.029   7.005   0.350  2.6862 -0.6950  3.8870
   64MOL    H1924085   7.164   6.888   0.350 -0.0032  1.0138  1.5698
   64MOL    H2024086   7.145   6.866   0.109  2.4041  0.0607  1.7182
   64MOL    C2124087   6.967   6.808   0.328  0.3460 -0.7942 -0.3937
   64MOL    C2224088   6.930   6.811   0.480  0.4754 -0.0347 -0.3749
   64MOL    C2324089   6.821   6.888   0.519 -0.5984 -0.0623  0.0282
   64MOL    C2424090   6.782   6.889   0.649 -0.6391 -0.0751 -0.2046
   64MOL    C2524091   6.862   6.824   0.751 -0.6099  0.3784 -0.5824
   64MOL    C2624092   6.830   6.845   0.895 -0.3171  0.1305  0.4327
   64MOL    C2724093   6.979   6.758   0.711  0.1838 -0.4502  0.1222
   64MOL    C2824094   7.017   6.756   0.578  0.4978  0.0753 -0.0443
   64MOL    C2924095   7.008   6.669   0.276 -0.9152  0.2616 -0.2048
   64MOL    H3024096   6.882   6.846   0.270  0.1522  0.1303  0.4802
   64MOL    H3124097   6.756   6.940   0.450 -2.7534 -1.4562  0.9728
   64MOL    H3224098   6.694   6.947   0.669  0.2878  1.4972 -0.5722
   64MOL    H3324099   6.894   6.930   0.919  0.0643  0.3884 -1.4697
   64MOL    H3424100   6.726   6.872   0.916 -0.1577 -0.1978  1.7175
   64MOL    H3524101   6.851   6.755   0.954  0.7298 -0.2619 -0.5490
   64MOL    H3624102   7.054   6.716   0.777  0.6476 -1.9395 -1.3336
   64MOL    H3724103   7.113   6.715   0.553 -0.4935 -1.5194 -1.2894
   64MOL    H3824104   7.027   6.609   0.365  2.1421  0.2378 -0.8216
   64MOL    H3924105   7.106   6.685   0.231 -1.2417  3.1047 -0.0234
   64MOL    C4024106   6.910   6.592   0.182 -1.7048  0.4917  0.0509
   64MOL    C4124107   6.771   6.562   0.234 -0.0141  0.5330  0.5331
   64MOL    C4224108   6.739   6.536   0.369  0.0410 -0.1255 -0.5606
   64MOL    C4324109   6.612   6.494   0.417  0.5956 -0.1145  0.6518
   64MOL    C4424110   6.524   6.459   0.313  0.1610  0.7264 -1.0519
   64MOL    C4524111   6.394   6.390   0.335  0.5761  0.2126  0.4712
   64MOL    C4624112   6.545   6.500   0.176  0.2826 -0.4022 -0.3822
   64MOL    C4724113   6.670   6.550   0.137 -0.1399  0.7474 -0.4143
   64MOL    C4824114   6.973   6.452   0.144 -0.3766 -0.1552  0.4418
   64MOL    H4924115   6.906   6.646   0.087  0.4544 -0.4954 -0.6361
   64MOL    H5024116   6.819   6.533   0.441  0.6479  2.0475 -1.0870
   64MOL    H5124117   6.589   6.474   0.521  1.0085  0.8972  0.9364
   64MOL    H5224118   6.412   6.285   0.356  0.8672 -0.0903 -1.1957
   64MOL    H5324119   6.348   6.422   0.428 -1.5312  0.4112 -0.6023
   64MOL    H5424120   6.329   6.394   0.247  3.3213 -0.8658 -1.6869
   64MOL    H5524121   6.471   6.464   0.105  0.2096 -2.0003  0.4705
   64MOL    H5624122   6.683   6.579   0.034  1.7616 -1.7413 -0.9078
   64MOL    H5724123   6.902   6.421   0.067 -0.3791 -2.2950  1.2625
   64MOL    H5824124   6.968   6.386   0.231  0.2599 -1.3247 -0.3932
   64MOL    C5924125   7.113   6.445   0.080  0.2521  0.0569  0.2522
   64MOL    C6024126   7.152   6.556   8.065  0.5816 -0.1732  0.3600
   64MOL    C6124127   7.063   6.594   7.960  0.1140 -0.3038  0.0907
   64MOL    C6224128   7.111   6.684   7.866  0.2864  0.0750  0.7236
   64MOL    C6324129   7.236   6.742   7.873 -0.0763 -0.3828 -0.3010
   64MOL    C6424130   7.285   6.841   7.766  0.2267 -0.3272 -0.2786
   64MOL    C6524131   7.325   6.702   7.979  0.5269 -0.3189  0.1634
   64MOL    C6624132   7.284   6.603   8.075 -0.2885  0.1142  0.3939
   64MOL    C6724133   7.139   6.310   0.017  0.5782  0.9636 -0.2733
   64MOL    H6824134   7.185   6.453   0.161  0.1580  0.1492  0.3261
   64MOL    H6924135   6.959   6.568   7.945 -0.3647  2.1385 -0.9667
   64MOL    H7024136   7.047   6.709   7.782  0.7958 -1.4074 -0.1391
   64MOL    H7124137   7.209   6.842   7.688  1.7606  4.4825 -1.8441
   64MOL    H7224138   7.326   6.936   7.799 -0.4407  0.3243 -1.2971
   64MOL    H7324139   7.371   6.792   7.720  0.6616 -0.3778  0.5787
   64MOL    H7424140   7.425   6.743   7.973  0.5253 -0.6111 -1.9924
   64MOL    H7524141   7.352   6.553   0.063  0.5796  1.7459  0.7581
   64MOL    H7624142   7.242   6.321   8.062  0.2787  1.6833 -0.9736
   64MOL    H7724143   7.091   6.303   7.999  0.6229 -0.2141 -0.2135
   64MOL    C7824144   7.113   6.185   0.109  0.4449 -0.1286  0.6068
   64MOL    C7924145   7.181   6.192   0.250 -0.5318  0.9907  0.6971
   64MOL    C8024146   7.319   6.209   0.267 -0.8161 -0.0875  0.3529
   64MOL    C8124147   7.378   6.228   0.392 -0.1677  0.2558 -0.6011
   64MOL    C8224148   7.295   6.239   0.505 -0.0716 -0.4959  0.1210
   64MOL    C8324149   7.348   6.267   0.647 -0.4766  0.6939  0.3118
   64MOL    C8424150   7.160   6.200   0.492 -0.0352 -0.1032  0.0506
   64MOL    C8524151   7.097   6.179   0.364  0.6368 -0.0850  1.5671
   64MOL    C8624152   7.152   6.056   0.038 -0.5837  0.5391 -0.4576
   64MOL    H8724153   7.006   6.184   0.128  0.0581  0.9196 -1.3612
   64MOL    H8824154   7.381   6.211   0.179  0.2459 -1.6635  1.0515
   64MOL    H8924155   7.478   6.260   0.416 -0.4838  0.6870  0.1598
   64MOL    H9024156   7.365   6.369   0.683  1.2481  0.6961 -0.4313
   64MOL    H9124157   7.262   6.251   0.712  0.2151  2.1493  1.6317
   64MOL    H9224158   7.424   6.201   0.689  0.4320  1.3089 -0.3603
   64MOL    H9324159   7.094   6.181   0.575 -1.1585  0.0945 -0.7973
   64MOL    H9424160   6.993   6.150   0.365  0.9332 -1.5088 -1.4707
   64MOL    H9524161   7.260   6.049   0.032 -0.6555  0.9846 -2.4732
   64MOL    H9624162   7.118   6.055   8.014 -2.0262  0.3983  0.0037
   64MOL    C9724163   7.096   5.930   0.106  0.1076  0.2334 -0.1070
   64MOL    C9824164   7.208   5.837   0.148  0.0658 -0.1744 -0.7664
   64MOL    C9924165   7.229   5.817   0.287  0.0046  0.2906 -0.1745
   64MOL   C10024166   7.324   5.726   0.332  0.6362 -0.5153 -0.5507
   64MOL   C10124167   7.398   5.655   0.241 -0.3228 -0.1701  0.3579
   64MOL   C10224168   7.483   5.538   0.290 -0.0306 -0.0353 -0.0028
   64MOL   C10324169   7.387   5.675   0.102  0.5312 -0.5259  0.6707
   64MOL   C10424170   7.288   5.765   0.055 -0.2923 -0.2432  0.5206
   64MOL   C10524171   6.985   5.856   0.031  0.1097  1.0137  1.1750
   64MOL   H10624172   7.051   5.966   0.199 -0.8079 -0.5329 -0.2473
   64MOL   H10724173   7.174   5.876   0.360 -3.2136 -1.6107 -0.9903
   64MOL   H10824174   7.339   5.712   0.438  0.0431 -1.3920 -0.5716
   64MOL   H10924175   7.496   5.541   0.398 -0.8491  1.9392  0.0497
   64MOL   H11024176   7.437   5.442   0.265 -0.1570  0.0049  0.0766
   64MOL   H11124177   7.579   5.549   0.239 -0.0986 -0.6759 -0.2757
   64MOL   H11224178   7.442   5.619   0.028 -0.6285  0.3032 -0.8594
   64MOL   H11324179   7.280   5.788   8.029 -0.5088 -1.2750  0.3121
   64MOL   H11424180   6.958   5.768   0.089 -1.6806  0.4497 -0.4431
   64MOL   H11524181   7.014   5.826   8.010 -1.4225  2.4899  0.2573
   64MOL   C11624182   6.854   5.942   0.004 -0.4867  0.3751  0.8914
   64MOL   C11724183   6.770   5.983   0.125  0.0547  0.1423 -0.7561
   64MOL   C11824184   6.745   5.889   0.228 -0.0341 -0.8521 -0.2627
   64MOL   C11924185   6.698   5.938   0.353  0.6412 -0.5507 -0.2730
   64MOL   C12024186   6.682   6.074   0.375 -0.4436  0.4449 -0.1327
   64MOL   C12124187   6.611   6.123   0.505  0.4962 -0.1602  0.4799
   64MOL   C12224188   6.703   6.168   0.275 -0.1068 -0.0138  0.3937
   64MOL   C12324189   6.742   6.117   0.152  0.8560  0.0480 -0.4074
   64MOL   C12424190   6.757   5.887   7.978 -0.7826 -0.3257 -0.2801
   64MOL   H12524191   6.887   6.040   8.051 -0.3794  0.2951  0.7563
   64MOL   H12624192   6.756   5.782   0.221  2.4546 -0.7667  1.5657
   64MOL   H12724193   6.667   5.868   0.430  0.7992  0.2078  0.4779
   64MOL   H12824194   6.644   6.223   0.533 -1.2966  0.3229  0.9563
   64MOL   H12924195   6.503   6.139   0.503  0.2048 -2.0061 -0.1766
   64MOL   H13024196   6.635   6.051   0.583  2.6453 -0.3428 -0.3071
   64MOL   H13124197   6.695   6.274   0.290 -0.5019  0.2070 -1.2751
   64MOL   H13224198   6.774   6.190   0.079 -2.8634  1.9773 -0.2143
   64MOL   H13324199   6.657   5.898   8.021 -0.2064  0.3829  0.8789
   64MOL   H13424200   6.773   5.779   7.966  0.7706 -0.3603  1.8980
   64MOL   C13524201   6.778   5.961   7.838 -0.2121  0.3307  0.1706
   64MOL   C13624202   6.730   6.104   7.836  0.1884  0.0743 -0.3125
   64MOL   C13724203   6.593   6.136   7.820 -0.2815  0.5981 -0.2003
   64MOL   C13824204   6.555   6.269   7.807 -0.3052 -0.5111  0.6745
   64MOL   C13924205   6.650   6.376   7.816 -0.4778 -0.3475  0.0175
   64MOL   C14024206   6.622   6.522   7.810  0.6205  1.0508 -0.4931
   64MOL   C14124207   6.783   6.341   7.832  0.2087  0.4634  0.2496
   64MOL   C14224208   6.821   6.205   7.847 -0.3286 -0.1748  0.2225
   64MOL   C14324209   6.719   5.871   7.720  0.2012 -0.2523 -0.3838
   64MOL   H14424210   6.885   5.970   7.819  0.1832  0.1520  2.2202
   64MOL   H14524211   6.520   6.057   7.827  2.1947 -1.8047 -0.7294
   64MOL   H14624212   6.452   6.296   7.796 -0.0452 -0.6754 -2.4967
   64MOL   H14724213   6.538   6.542   7.743 -1.4971 -3.3982  0.6601
   64MOL   H14824214   6.587   6.541   7.911  0.6532 -2.5230  0.2659
   64MOL   H14924215   6.707   6.588   7.793  0.1115  2.7267  3.0279
   64MOL   H15024216   6.858   6.419   7.826  1.4545 -0.5918  2.0182
   64MOL   H15124217   6.925   6.176   7.854 -0.2055  0.2755  0.2731
   64MOL   H15224218   6.690   5.935   7.636 -0.6439  0.5740  0.5223
   64MOL   H15324219   6.619   5.843   7.753  0.6459 -2.0501 -0.4978
   64MOL   C15424220   6.799   5.741   7.680  0.1685 -0.0996  0.3117
   64MOL   C15524221   6.943   5.771   7.640 -0.3029 -0.2982  0.2258
   64MOL   C15624222   7.049   5.709   7.709  0.9304  0.0207 -0.3125
   64MOL   C15724223   7.182   5.733   7.676  0.1238 -0.5491 -0.6380
   64MOL   C15824224   7.218   5.817   7.562 -0.6421 -0.3064  0.5378
   64MOL   C15924225   7.361   5.843   7.518 -0.2804 -0.4882 -0.0055
   64MOL   C16024226   7.111   5.879   7.495  0.9484 -0.3917 -0.4105
   64MOL   C16124227   6.975   5.859   7.530 -0.7287 -0.5452  0.2283
   64MOL   C16224228   6.736   5.662   7.560 -0.2334  0.3196  0.6096
   64MOL   H16324229   6.804   5.676   7.768 -1.4790  0.7276  1.0511
   64MOL   H16424230   7.028   5.646   7.794 -0.1494  1.0766  0.2148
   64MOL   H16524231   7.249   5.686   7.746 -1.1625 -0.4004  0.7104
   64MOL   H16624232   7.417   5.751   7.501 -1.4882 -1.1973 -0.2214
   64MOL   H16724233   7.355   5.899   7.425  1.5156  0.6230  0.5246
   64MOL   H16824234   7.415   5.893   7.598  1.9407 -2.4977 -0.1942
   64MOL   H16924235   7.139   5.941   7.411  1.7285  1.0309  0.8796
   64MOL   H17024236   6.898   5.902   7.467 -1.6579 -0.4306  1.4203
   64MOL   H17124237   6.807   5.588   7.523  2.0824  1.6984  2.1461
   64MOL   H17224238   6.720   5.736   7.482  0.0921  0.1633  0.3961
   64MOL   C17324239   6.598   5.600   7.582  0.0538  0.3204  0.4940
   64MOL   C17424240   6.554   5.562   7.721 -0.3170  0.1444 -1.1033
   64MOL   C17524241   6.599   5.442   7.772  0.3412  0.2005  0.6318
   64MOL   C17624242   6.558   5.399   7.897  0.5889  0.5153 -0.1112
   64MOL   C17724243   6.471   5.477   7.975  0.2825 -0.1991  0.5963
   64MOL   C17824244   6.418   5.430   0.025 -1.0590  0.2196  0.2781
   64MOL   C17924245   6.418   5.595   7.918 -0.3837 -0.8565 -0.6836
   64MOL   C18024246   6.460   5.639   7.791 -0.4196 -0.1278 -0.0426
   64MOL   C18124247   6.580   5.483   7.477  0.0351  0.0604  0.4329
   64MOL   H18224248   6.535   5.686   7.557 -2.8242 -1.3016  1.9860
   64MOL   H18324249   6.671   5.383   7.716 -1.5732 -1.1432 -0.4998
   64MOL   H18424250   6.583   5.302   7.939  1.5071  0.9776  0.4411
   64MOL   H18524251   6.487   5.461   0.104 -1.6541  3.1883 -0.2857
   64MOL   H18624252   6.314   5.460   0.040 -1.1923 -0.1348  0.0627
   64MOL   H18724253   6.419   5.322   0.014  0.3307  0.3956 -1.4903
   64MOL   H18824254   6.350   5.656   7.975 -1.5362 -0.2312 -2.6862
   64MOL   H18924255   6.413   5.730   7.755 -1.0267 -0.5096 -0.2223
   64MOL   H19024256   6.492   5.423   7.498  0.3618 -0.5420  0.0927
   64MOL   H19124257   6.662   5.411   7.486  0.5392  0.2416 -2.2984
   64MOL   C19224258   6.562   5.517   7.334 -0.2675 -0.4634  0.1876
   64MOL   C19324259   6.466   5.631   7.316  0.7324 -0.2341  0.4550
   64MOL   C19424260   6.343   5.649   7.384 -0.3821  0.4237 -0.1801
   64MOL   C19524261   6.263   5.759   7.352  0.9375 -0.3491 -0.2208
   64MOL   C19624262   6.298   5.862   7.260 -0.6713 -0.4447  0.4530
   64MOL   C19724263   6.204   5.977   7.221 -0.3506  0.6736 -0.2461
   64MOL   C19824264   6.419   5.844   7.188  0.0666  0.1053  0.3924
   64MOL   C19924265   6.498   5.730   7.218  0.0808 -0.9002 -0.2169
   64MOL   C20024266   6.523   5.396   7.243 -0.2157 -0.0989  0.4745
   64MOL   H20124267   6.661   5.556   7.313 -0.6292 -0.3407 -1.3864
   64MOL   H20224268   6.313   5.584   7.466 -1.4901 -0.1327 -1.0188
   64MOL   H20324269   6.168   5.770   7.403  1.8650  0.2797  1.4077
   64MOL   H20424270   6.148   6.026   7.301 -0.9471  0.5507 -0.5793
   64MOL   H20524271   6.266   6.049   7.169 -2.5212  2.4973 -0.3586
   64MOL   H20624272   6.126   5.935   7.157 -0.5980  0.9943 -0.1543
   64MOL   H20724273   6.456   5.913   7.113  0.3520 -0.4557  0.0115
   64MOL   H20824274   6.588   5.717   7.161  0.9674  0.5046  0.8019
   64MOL   H20924275   6.479   5.435   7.151  0.8373 -1.6438 -0.7194
   64MOL   H21024276   6.445   5.334   7.286 -0.8308 -0.4809 -1.1301
   64MOL   C21124277   6.636   5.293   7.194 -0.2771 -0.3033 -0.3161
   64MOL   C21224278   6.751   5.379   7.138 -0.4470 -0.3171 -0.6054
   64MOL   C21324279   6.853   5.429   7.221  0.0598  0.5772 -0.6829
   64MOL   C21424280   6.956   5.506   7.160  0.4239  0.1928 -0.6202
   64MOL   C21524281   6.966   5.532   7.020  0.1302  0.0794  1.1642
   64MOL   C21624282   7.070   5.624   6.964  0.1308  0.4046 -0.3975
   64MOL   C21724283   6.863   5.484   6.941 -0.6999  0.5365 -0.0513
   64MOL   C21824284   6.759   5.411   7.001 -0.0476 -0.1163  1.0598
   64MOL   C21924285   6.574   5.189   7.101  0.3376 -0.2350 -0.8807
   64MOL   H22024286   6.668   5.237   7.282  0.0075  0.0228 -0.2130
   64MOL   H22124287   6.852   5.411   7.328 -0.7024 -0.1964 -0.8133
   64MOL   H22224288   7.019   5.553   7.234 -1.6272  0.8529  0.7509
   64MOL   H22324289   7.044   5.728   6.986  2.4394  1.4132 -2.2299
   64MOL   H22424290   7.168   5.609   7.009 -1.3406  0.9005  3.1210
   64MOL   H22524291   7.077   5.608   6.856 -1.2335  0.1450 -0.4581
   64MOL   H22624292   6.864   5.507   6.836  0.2787 -0.5245 -0.2789
   64MOL   H22724293   6.685   5.364   6.938  1.1659 -0.8280  0.1477
   64MOL   H22824294   6.531   5.236   7.013 -1.0517  1.1717  0.4933
   64MOL   H22924295   6.486   5.148   7.151 -0.1772  0.2175 -1.4104
   64MOL   C23024296   6.674   5.077   7.067  0.0422  0.3240 -0.2903
   64MOL   C23124297   6.648   5.014   6.935  0.7425  0.4145  0.0282
   64MOL   C23224298   6.744   5.022   6.837  0.2699 -0.1965 -0.2053
   64MOL   C23324299   6.719   4.983   6.700  0.2648  0.3178 -0.2230
   64MOL   C23424300   6.591   4.926   6.665  0.3951 -0.2882 -0.0894
   64MOL   C23524301   6.572   4.869   6.531 -0.4704  0.5808 -0.4016
   64MOL   C23624302   6.494   4.917   6.765  0.3561  0.1836 -0.7101
   64MOL   C23724303   6.517   4.971   6.899  0.3430 -0.2313  0.8138
   64MOL   C23824304   6.680   4.975   7.180 -0.4387 -0.1183 -0.0236
   64MOL   H23924305   6.772   5.124   7.058  0.3750 -0.2538  0.2257
   64MOL   H24024306   6.837   5.073   6.858  0.5338 -1.0594  0.7785
   64MOL   H24124307   6.795   4.994   6.625  2.4343 -0.3017  1.7978
   64MOL   H24224308   6.599   4.953   6.467 -0.2699 -0.2807 -1.4509
   64MOL   H24324309   6.641   4.792   6.498  2.0697  2.5567  0.1233
   64MOL   H24424310   6.468   4.844   6.513 -0.0486  0.0482 -2.1748
   64MOL   H24524311   6.397   4.875   6.741  1.8921 -1.7982 -3.7721
   64MOL   H24624312   6.440   4.967   6.974  0.8657 -0.9776  1.3176
   64MOL   H24724313   6.644   4.878   7.145  0.5447 -0.4505 -0.1251
   64MOL   H24824314   6.616   5.010   7.261 -1.6825 -1.9619 -0.1893
   64MOL   C24924315   6.828   4.958   7.235  0.3153  0.5074 -0.7488
   64MOL   C25024316   6.923   4.894   7.126  0.3579 -0.0053 -0.1272
   64MOL   C25124317   6.896   4.763   7.082  0.1505 -0.1921  0.2830
   64MOL   C25224318   6.975   4.709   6.979 -0.1273  0.7472  0.5650
   64MOL   C25324319   7.075   4.781   6.913  0.2706  0.1602 -0.2008
   64MOL   C25424320   7.142   4.729   6.787  0.5765 -0.2198  0.3169
   64MOL   C25524321   7.115   4.898   6.978  0.2673 -0.0612 -0.0848
   64MOL   C25624322   7.041   4.961   7.083 -0.2189  0.4028  0.1889
   64MOL   C25724323   6.813   4.882   7.364  0.1858  0.0569  0.3612
   64MOL   H25824324   6.868   5.056   7.261 -0.5427  0.5786  0.3116
   64MOL   H25924325   6.805   4.716   7.116  0.1321 -0.1610  0.2772
   64MOL   H26024326   6.948   4.611   6.942  1.6504  0.7042 -0.6760
   64MOL   H26124327   7.082   4.766   6.703  2.6404  2.4146 -0.0804
   64MOL   H26224328   7.244   4.766   6.799  0.5144  0.2164 -0.4817
   64MOL   H26324329   7.150   4.621   6.778 -1.4370 -0.3132 -0.5983
   64MOL   H26424330   7.205   4.947   6.947  0.6309 -0.2668  0.6329
   64MOL   H26524331   7.082   5.054   7.119 -1.0251  1.5371 -1.7150
   64MOL   H26624332   6.907   4.828   7.377  0.5620  0.4394 -0.7046
   64MOL   H26724333   6.733   4.808   7.356 -0.3414  0.2993  2.8963
   64MOL   C26824334   6.797   4.973   7.497  0.2670  0.8152  0.7613
   64MOL   C26924335   6.900   5.070   7.518  0.6058  0.6728  1.0913
   64MOL   C27024336   7.034   5.032   7.516  0.1381 -0.1302 -0.1968
   64MOL   C27124337   7.132   5.132   7.529 -0.4871  0.2642  0.1509
   64MOL   C27224338   7.099   5.269   7.547 -0.0227 -0.2510 -0.4287
   64MOL   C27324339   7.213   5.365   7.571  0.9102 -0.7260  0.5850
   64MOL   C27424340   6.965   5.305   7.566 -0.9935 -0.2173  0.4134
   64MOL   C27524341   6.870   5.202   7.545 -0.1804  0.5874  0.3500
   64MOL   C27624342   6.772   4.889   7.632  0.1488 -0.0233  0.3010
   64MOL   H27724343   6.706   5.026   7.470  1.3875  2.2069 -0.3440
   64MOL   H27824344   7.055   4.931   7.483 -0.8093  0.2035 -1.9101
   64MOL   H27924345   7.232   5.093   7.515  0.0620  1.5028  0.6207
   64MOL   H28024346   7.194   5.404   7.671  0.8690  0.5407  0.0890
   64MOL   H28124347   7.316   5.331   7.564  0.8330 -0.7847 -0.2505
   64MOL   H28224348   7.193   5.452   7.509  0.0586 -0.6401  0.9682
   64MOL   H28324349   6.929   5.404   7.590 -1.7313  0.3270 -2.7319
   64MOL   H28424350   6.766   5.232   7.550 -0.2106  0.4214  0.7410
   64MOL   H28524351   6.771   4.955   7.719  1.7508  2.3035 -1.3746
   64MOL   H28624352   6.864   4.830   7.626 -0.9774 -1.5977 -2.2165
   64MOL   C28724353   6.644   4.796   7.625  0.2995 -0.3400  0.0522
   64MOL   C28824354   6.523   4.892   7.638  0.1665 -0.3708 -0.7085
   64MOL   C28924355   6.440   4.920   7.527  0.5255  0.7565 -0.2072
   64MOL   C29024356   6.337   5.010   7.529 -0.0748 -0.1681 -0.9864
   64MOL   C29124357   6.310   5.071   7.651 -1.0112 -0.6914  0.5276
   64MOL   C29224358   6.213   5.183   7.658  0.3903  0.1623 -0.4350
   64MOL   C29324359   6.388   5.046   7.763 -0.3152  0.7996 -0.1024
   64MOL   C29424360   6.491   4.955   7.757  0.4305 -0.2786 -0.1816
   64MOL   C29524361   6.640   4.688   7.731 -0.4081  0.1172 -0.1880
   64MOL   H29624362   6.637   4.753   7.526 -0.9151  0.3569 -0.1792
   64MOL   H29724363   6.468   4.885   7.428 -0.7879 -1.3563  0.1399
   64MOL   H29824364   6.277   5.028   7.441 -0.7830 -0.6754 -0.6161
   64MOL   H29924365   6.194   5.216   7.556  0.1482 -1.5966 -0.9829
   64MOL   H30024366   6.125   5.162   7.720  2.5931 -2.4591  1.9255
   64MOL   H30124367   6.260   5.267   7.708  0.3123 -0.0433 -0.0079
   64MOL   H30224368   6.360   5.093   7.856 -1.5013 -1.8696  0.9373
   64MOL   H30324369   6.551   4.934   7.844 -2.1982 -1.4981  1.3695
   64MOL   H30424370   6.666   4.734   7.826 -0.7040  0.4498 -0.2684
   64MOL   H30524371   6.729   4.626   7.718  0.8226  0.9128  3.7623
   64MOL   C30624372   6.506   4.611   7.749  0.5857  0.5260 -0.0274
   64MOL   C30724373   6.438   4.631   7.880 -0.8331  0.3693  1.0005
   64MOL   C30824374   6.307   4.706   7.884 -0.2277 -0.1523  0.2598
   64MOL   C30924375   6.242   4.721   8.009 -0.4844 -0.4049 -0.4335
   64MOL   C31024376   6.291   4.655   0.041 -0.0708  0.1453 -0.0981
   64MOL   C31124377   6.224   4.675   0.167 -0.8783 -0.5709 -0.1592
   64MOL   C31224378   6.415   4.593   0.036 -0.0501 -0.4494 -0.6143
   64MOL   C31324379   6.491   4.578   7.997 -0.3360 -0.7383  0.7563
   64MOL   C31424380   6.515   4.462   7.708  0.0269  0.4313  0.5097
   64MOL   H31524381   6.444   4.650   7.668  1.6295 -0.3203 -1.2605
   64MOL   H31624382   6.265   4.733   7.788  3.3171  1.5590 -0.8752
   64MOL   H31724383   6.152   4.781   8.015 -0.6321 -0.7033  0.4198
   64MOL   H31824384   6.245   4.763   0.227  0.0258 -0.0207 -1.2753
   64MOL   H31924385   6.117   4.669   0.147 -0.6940  1.3469 -1.8499
   64MOL   H32024386   6.231   4.593   0.240  2.3585  0.2749  0.5494
   64MOL   H32124387   6.468   4.550   0.119 -1.6455  0.5260  0.9466
   64MOL   H32224388   6.588   4.533   7.994 -0.2027 -0.4013 -0.2582
   64MOL   H32324389   6.419   4.409   7.713 -0.1548  0.6116 -0.9804
   64MOL   H32424390   6.584   4.419   7.781 -0.0767  0.2600  0.5084
   64MOL   C32524391   6.560   4.421   7.565 -0.3930  0.6559 -0.1658
   64MOL   C32624392   6.477   4.489   7.456  0.2623 -0.1747  0.1975
   64MOL   C32724393   6.334   4.470   7.456 -0.5570 -0.1723  0.2357
   64MOL   C32824394   6.256   4.515   7.345  0.4089 -0.4126 -0.3733
   64MOL   C32924395   6.318   4.581   7.237  0.6757  0.2593 -0.0812
   64MOL   C33024396   6.245   4.635   7.120  0.2581  0.2909  0.2994
   64MOL   C33124397   6.456   4.604   7.242  0.3626  0.5260 -0.0053
   64MOL   C33224398   6.535   4.567   7.353  1.0075  0.0147  0.4370
   64MOL   C33324399   6.563   4.262   7.545 -0.0431 -0.3493  1.3310
   64MOL   H33424400   6.658   4.467   7.551  0.1152  0.9814  3.9229
   64MOL   H33524401   6.291   4.407   7.532 -1.2723  1.6139  1.3188
   64MOL   H33624402   6.150   4.493   7.348  0.6166 -1.4276 -0.2834
   64MOL   H33724403   6.136   4.634   7.127  0.2820 -0.5771  0.6576
   64MOL   H33824404   6.271   4.740   7.118 -2.7210  1.2931  5.7112
   64MOL   H33924405   6.276   4.587   7.026  0.7142  0.0697  0.5589
   64MOL   H34024406   6.504   4.656   7.161  0.3734  3.8817  2.0351
   64MOL   H34124407   6.641   4.591   7.349  0.2703  3.3842 -0.9125
   64MOL   H34224408   6.542   4.246   7.439  1.1919  1.7728  0.7178
   64MOL   H34324409   6.476   4.219   7.595 -0.4845 -1.4543 -0.3484
   64MOL   C34424410   6.695   4.196   7.563  0.2354 -0.5206  0.0908
   64MOL   C34524411   6.803   4.275   7.497 -0.3029  0.3501  0.4346
   64MOL   C34624412   6.895   4.361   7.569 -0.3611  0.2868  0.6216
   64MOL   C34724413   6.970   4.453   7.496 -0.6001 -0.7170  0.4000
   64MOL   C34824414   6.983   4.453   7.358  0.5166 -0.1028  0.5310
   64MOL   C34924415   7.074   4.550   7.288 -0.5926  0.2648 -0.0106
   64MOL   C35024416   6.908   4.360   7.288  0.3800 -0.9575  0.4374
   64MOL   C35124417   6.810   4.274   7.354  0.1509  0.9950  0.4741
   64MOL   C35224418   6.700   4.048   7.520  0.2681 -0.5199 -0.7770
   64MOL   H35324419   6.715   4.200   7.670  1.5155  2.1551 -0.1992
   64MOL   H35424420   6.886   4.370   7.676 -1.4108  0.0424  0.5637
   64MOL   H35524421   7.023   4.524   7.558 -1.9541  2.1546 -1.6688
   64MOL   H35624422   7.169   4.550   7.341 -1.0713 -2.1700  0.8695
   64MOL   H35724423   7.102   4.510   7.190 -2.2479 -0.4641 -0.1961
   64MOL   H35824424   7.022   4.645   7.275 -0.2705  0.5188  0.5410
   64MOL   H35924425   6.917   4.357   7.181 -1.1589  2.2801  0.1435
   64MOL   H36024426   6.736   4.212   7.306 -0.2469 -0.8186  3.2913
   64MOL   H36124427   6.797   3.999   7.521 -0.3757 -1.8474 -0.7616
   64MOL   H36224428   6.668   4.050   7.415 -0.7207  0.6948 -0.4614
   64MOL   C36324429   6.610   3.961   7.607 -0.4406  0.1850  0.2513
   64MOL   C36424430   6.675   3.908   7.733  0.7283  0.0758  0.0516
   64MOL   C36524431   6.773   3.802   7.725 -0.1668  0.3335 -0.0711
   64MOL   C36624432   6.828   3.753   7.845  0.4077 -0.5253 -0.5116
   64MOL   C36724433   6.805   3.815   7.973  1.2384 -0.3265  0.3174
   64MOL   C36824434   6.870   3.763   0.019  0.4331  0.1856 -0.5833
   64MOL   C36924435   6.705   3.919   7.970 -0.6596 -0.0733  0.8494
   64MOL   C37024436   6.641   3.966   7.857  0.1244  0.4566 -0.8474
   64MOL   C37124437   6.549   3.843   7.525  0.1561  0.3474 -0.2779
   64MOL   H37224438   6.523   4.020   7.636 -0.2827  1.9864 -2.7065
   64MOL   H37324439   6.791   3.758   7.628  1.9818  1.0545 -0.0322
   64MOL   H37424440   6.901   3.674   7.847 -1.0319 -1.8435  0.9085
   64MOL   H37524441   6.851   3.656   0.030  0.5945  0.1128 -1.0207
   64MOL   H37624442   6.978   3.781   0.015  0.4957  0.1489  0.7204
   64MOL   H37724443   6.831   3.806   0.111 -0.6595 -0.8617 -0.5420
   64MOL   H37824444   6.680   3.964   8.064 -2.9280  0.2194  0.1269
   64MOL   H37924445   6.576   4.052   7.864 -0.7092 -0.1696 -0.8774
   64MOL   H38024446   6.500   3.771   7.590 -1.7933  2.5733  0.8130
   64MOL   H38124447   6.620   3.801   7.453  0.1921  1.4332 -0.8926
   64MOL   H38224448   6.473   3.881   7.457 -0.8837  1.9572  1.7360
   65MOL     C124449   5.698   4.864   1.842  0.6638  0.4106 -0.1742
   65MOL     C224450   5.756   4.781   1.726  0.3646  0.0083  0.8175
   65MOL     C324451   5.734   4.644   1.710  1.4024 -0.4726  0.4070
   65MOL     C424452   5.798   4.577   1.607 -0.3066  0.4430  0.9053
   65MOL     C524453   5.889   4.647   1.521 -0.0140 -0.0778 -0.0394
   65MOL     C624454   5.967   4.573   1.412  0.8262  0.1307 -0.4322
   65MOL     C724455   5.904   4.786   1.533  0.3575  0.6134  0.5575
   65MOL     C824456   5.836   4.853   1.634  0.3279 -0.3282  0.4769
   65MOL     C924457   5.776   4.847   1.974  0.1473 -0.5619  0.3190
   65MOL    H1024458   5.697   4.966   1.805  0.2808  0.1596 -0.8557
   65MOL    H1124459   5.674   4.596   1.786 -0.9093  0.6265 -0.6718
   65MOL    H1224460   5.802   4.469   1.598  0.6425  0.2397  3.3145
   65MOL    H1324461   5.904   4.504   1.356  3.2719 -0.8826 -1.9816
   65MOL    H1424462   6.011   4.642   1.341 -0.1042  0.7951 -0.3795
   65MOL    H1524463   6.040   4.514   1.468  1.1045  2.8958  2.2258
   65MOL    H1624464   5.966   4.852   1.474 -1.3612  0.9892 -0.8628
   65MOL    H1724465   5.857   4.959   1.643  0.9576 -0.2540 -1.6020
   65MOL    H1824466   5.879   4.879   1.957  0.3212 -0.3587  1.7033
   65MOL    H1924467   5.769   4.743   2.006 -0.3981 -0.7496 -0.3820
   65MOL    H2024468   5.593   4.836   1.847  1.0170 -0.7229  1.7188
   65MOL    C2124469   5.721   4.936   2.086  0.0805 -0.0951  0.1829
   65MOL    C2224470   5.770   5.078   2.074  0.2983  1.0502 -0.1295
   65MOL    C2324471   5.687   5.179   2.017 -0.4624  1.1668  0.1824
   65MOL    C2424472   5.737   5.305   1.988 -0.4732  0.0958  0.0473
   65MOL    C2524473   5.873   5.328   2.019 -0.4346  0.5277  0.0576
   65MOL    C2624474   5.926   5.468   1.996  0.2940 -0.3003 -0.1515
   65MOL    C2724475   5.956   5.236   2.080 -0.0102  0.5143 -0.5566
   65MOL    C2824476   5.909   5.111   2.108  0.6680  0.1844  0.2782
   65MOL    C2924477   5.759   4.878   2.218 -0.4696 -0.8309  0.5276
   65MOL    H3024478   5.613   4.926   2.081  0.1322  0.2691 -2.0052
   65MOL    H3124479   5.586   5.147   1.994  0.2149  0.6354 -2.2426
   65MOL    H3224480   5.671   5.380   1.948 -0.5456  0.3926  0.7175
   65MOL    H3324481   5.872   5.526   2.072 -1.3614 -2.3627  0.3075
   65MOL    H3424482   6.031   5.479   2.020  0.1390 -0.7564  0.7748
   65MOL    H3524483   5.904   5.493   1.892 -2.8913 -0.1660  0.4953
   65MOL    H3624484   6.058   5.263   2.102  0.4344  0.1158 -2.0520
   65MOL    H3724485   5.978   5.044   2.155 -0.0006  0.3143  1.4604
   65MOL    H3824486   5.772   4.947   2.301  2.1699 -0.7141  0.0717
   65MOL    H3924487   5.863   4.855   2.196 -0.5575  0.3957 -1.2860
   65MOL    C4024488   5.694   4.749   2.272 -0.1618 -0.5035  0.4436
   65MOL    C4124489   5.544   4.769   2.303 -0.8629 -0.1822 -0.1903
   65MOL    C4224490   5.478   4.895   2.322  0.6563  0.0957  0.5743
   65MOL    C4324491   5.341   4.908   2.335  0.6752  0.0999  0.9909
   65MOL    C4424492   5.263   4.791   2.358 -0.4880 -0.2322  0.0212
   65MOL    C4524493   5.114   4.799   2.383 -0.1556 -0.5954  0.3843
   65MOL    C4624494   5.325   4.665   2.355  0.3766  0.6626  0.4571
   65MOL    C4724495   5.462   4.654   2.321  0.5407  0.7883 -0.1715
   65MOL    C4824496   5.757   4.699   2.399 -0.2711  0.2836 -0.3777
   65MOL    H4924497   5.692   4.675   2.192 -1.2390  0.4577 -0.4278
   65MOL    H5024498   5.532   4.986   2.301 -0.2870  0.8416  1.3335
   65MOL    H5124499   5.296   5.007   2.329 -0.6119 -0.5747 -0.9920
   65MOL    H5224500   5.098   4.805   2.490 -2.0062 -0.2771  0.1195
   65MOL    H5324501   5.083   4.895   2.341  1.1118  0.0673  0.9600
   65MOL    H5424502   5.053   4.715   2.349  0.6852 -1.1216  0.1824
   65MOL    H5524503   5.273   4.575   2.383  1.4332  0.9243  3.5405
   65MOL    H5624504   5.501   4.554   2.319  1.4976  1.1568 -0.2622
   65MOL    H5724505   5.681   4.642   2.452  0.5897  0.9864  1.6229
   65MOL    H5824506   5.778   4.779   2.470  1.2371 -1.1902  0.8640
   65MOL    C5924507   5.883   4.612   2.376  0.5483 -0.4611 -0.5010
   65MOL    C6024508   5.872   4.485   2.292 -0.4257 -0.0743 -0.9317
   65MOL    C6124509   5.759   4.399   2.308 -0.1947  0.4971 -0.3114
   65MOL    C6224510   5.748   4.286   2.226  0.0876  0.6243 -0.1960
   65MOL    C6324511   5.853   4.257   2.133  0.1895  0.0540  0.1511
   65MOL    C6424512   5.831   4.135   2.041  0.0111  0.1227 -0.4438
   65MOL    C6524513   5.974   4.333   2.137 -0.4226 -0.9172  0.2410
   65MOL    C6624514   5.975   4.458   2.198 -0.9338 -0.2406  0.1341
   65MOL    C6724515   5.949   4.575   2.515 -0.0361 -0.4554 -0.2604
   65MOL    H6824516   5.948   4.681   2.322  1.6222 -1.2507 -0.2265
   65MOL    H6924517   5.675   4.416   2.373 -0.7918  2.3524 -1.5330
   65MOL    H7024518   5.652   4.237   2.235  0.0538  0.7845  0.3263
   65MOL    H7124519   5.814   4.184   1.945 -0.9994  2.7848  1.0597
   65MOL    H7224520   5.932   4.094   2.048  0.1018  0.4487  0.1812
   65MOL    H7324521   5.748   4.066   2.050  1.7030 -2.0221 -0.7486
   65MOL    H7424522   6.051   4.302   2.068 -0.0005  0.1599  0.2247
   65MOL    H7524523   6.057   4.527   2.186 -0.0510 -1.4162 -0.8259
   65MOL    H7624524   5.865   4.533   2.570 -2.0344  1.0345 -2.0972
   65MOL    H7724525   5.957   4.661   2.581 -0.4416 -1.7329  1.4772
   65MOL    C7824526   6.080   4.495   2.520  0.5075 -0.5199 -0.2533
   65MOL    C7924527   6.116   4.453   2.664  0.4211  0.2201  0.0246
   65MOL    C8024528   6.125   4.547   2.763  0.0318 -0.1870  0.0259
   65MOL    C8124529   6.140   4.500   2.897  0.7586  0.0957  0.4023
   65MOL    C8224530   6.159   4.367   2.925  0.9255 -0.1580  0.0111
   65MOL    C8324531   6.189   4.313   3.060 -0.2969 -0.0802  0.8068
   65MOL    C8424532   6.143   4.272   2.826 -0.3943 -0.2078  0.7383
   65MOL    C8524533   6.114   4.312   2.691  0.5653  0.2127  0.5287
   65MOL    C8624534   6.196   4.561   2.448  0.0163 -0.0659  0.2190
   65MOL    H8724535   6.059   4.402   2.468  0.3307  0.6134 -2.2344
   65MOL    H8824536   6.115   4.650   2.732  0.0736  0.0526  0.7775
   65MOL    H8924537   6.126   4.569   2.979 -0.2481 -3.1270  3.0540
   65MOL    H9024538   6.205   4.398   3.127  0.5731  0.9043 -0.6282
   65MOL    H9124539   6.116   4.243   3.101 -1.0108 -0.5255 -1.1984
   65MOL    H9224540   6.290   4.272   3.060 -0.8262 -1.3870  0.6330
   65MOL    H9324541   6.158   4.165   2.833 -3.5978 -0.5897  3.2930
   65MOL    H9424542   6.107   4.239   2.612 -0.0846  0.6378  0.1860
   65MOL    H9524543   6.223   4.642   2.515  0.3059 -0.8669  1.0873
   65MOL    H9624544   6.152   4.596   2.355 -0.6394  1.2143  1.0083
   65MOL    C9724545   6.321   4.473   2.421 -0.1935 -0.3782  0.2990
   65MOL    C9824546   6.429   4.565   2.369 -0.5051 -0.7486  0.1517
   65MOL    C9924547   6.424   4.616   2.240  0.3750  0.0181 -0.0155
   65MOL   C10024548   6.514   4.717   2.199 -0.3356 -1.0936  0.2857
   65MOL   C10124549   6.615   4.761   2.288  0.1730 -0.1733  0.1992
   65MOL   C10224550   6.711   4.871   2.247 -0.1818 -0.5066  0.5827
   65MOL   C10324551   6.625   4.698   2.419  0.6689 -0.4932  0.5991
   65MOL   C10424552   6.529   4.602   2.463  0.6034 -0.3305  0.1656
   65MOL   C10524553   6.311   4.342   2.337  0.1281  0.1530  0.0395
   65MOL   H10624554   6.362   4.444   2.517 -1.7078 -2.3215  0.3972
   65MOL   H10724555   6.346   4.582   2.173  0.3931 -0.6569  0.3037
   65MOL   H10824556   6.509   4.769   2.105 -0.9809  0.3436  1.1003
   65MOL   H10924557   6.706   4.880   2.139 -1.4563  0.6901  0.7247
   65MOL   H11024558   6.686   4.964   2.297 -0.2661 -1.2404  1.9372
   65MOL   H11124559   6.814   4.847   2.275  0.6887  0.6025 -1.5740
   65MOL   H11224560   6.705   4.725   2.487  0.9024  1.7968 -0.5306
   65MOL   H11324561   6.543   4.559   2.561  4.9410 -0.2541 -0.3485
   65MOL   H11424562   6.331   4.375   2.235  1.1965 -1.4586 -0.2874
   65MOL   H11524563   6.205   4.315   2.340 -0.0209  0.9173  2.9112
   65MOL   C11624564   6.398   4.214   2.372  0.6708  0.1731 -0.0530
   65MOL   C11724565   6.543   4.241   2.424  0.3008 -0.2794  0.4957
   65MOL   C11824566   6.574   4.223   2.557 -0.2483 -0.2151 -0.4289
   65MOL   C11924567   6.699   4.254   2.616 -0.1744  0.0136  0.5442
   65MOL   C12024568   6.800   4.314   2.530 -0.8123 -0.5896 -0.3608
   65MOL   C12124569   6.937   4.350   2.588 -0.1068 -0.3631  0.2024
   65MOL   C12224570   6.770   4.327   2.392 -0.3201  0.6585 -0.2138
   65MOL   C12324571   6.642   4.292   2.338 -0.5815 -0.3521 -1.2637
   65MOL   C12424572   6.405   4.116   2.250  0.5729  0.0023 -0.8562
   65MOL   H12524573   6.340   4.160   2.446  0.3579 -1.2142 -1.3021
   65MOL   H12624574   6.496   4.188   2.624  0.3128 -1.6607 -0.5074
   65MOL   H12724575   6.709   4.240   2.723  0.1725  0.7427  0.6135
   65MOL   H12824576   7.002   4.362   2.502  0.4231  0.1394  0.6695
   65MOL   H12924577   6.945   4.440   2.650 -0.0009 -0.0049 -0.3361
   65MOL   H13024578   6.973   4.267   2.649  3.3363  0.9412  0.0414
   65MOL   H13124579   6.840   4.371   2.323 -0.3048 -1.0556 -1.3278
   65MOL   H13224580   6.622   4.302   2.232 -2.2498  0.1478 -0.9156
   65MOL   H13324581   6.470   4.031   2.274  0.4095  0.5465  1.6756
   65MOL   H13424582   6.467   4.150   2.167  3.7408 -0.3078  1.2647
   65MOL   C13524583   6.265   4.057   2.209  0.6886 -0.3922  0.3791
   65MOL   C13624584   6.198   3.989   2.325 -0.0191 -0.1791  0.2530
   65MOL   C13724585   6.265   3.884   2.381 -0.1005  0.5870 -0.1754
   65MOL   C13824586   6.209   3.816   2.491 -0.2959  0.4074 -1.0596
   65MOL   C13924587   6.090   3.860   2.544  0.1704 -0.0441  0.1610
   65MOL   C14024588   6.034   3.789   2.671  0.0131  0.2544  0.3446
   65MOL   C14124589   6.017   3.969   2.491 -0.3581  0.4807 -0.0566
   65MOL   C14224590   6.071   4.032   2.375  0.7524  0.2849  0.6312
   65MOL   C14324591   6.282   3.966   2.080  0.4282 -0.3369  0.2302
   65MOL   H14424592   6.204   4.141   2.174  1.5199 -0.1628 -0.5391
   65MOL   H14524593   6.362   3.854   2.345 -1.0536 -0.0268 -2.3795
   65MOL   H14624594   6.264   3.727   2.517  0.9640  1.4489 -0.1135
   65MOL   H14724595   5.946   3.844   2.703  0.8383  1.5222  0.4414
   65MOL   H14824596   5.996   3.690   2.645  1.0807 -0.5358  1.7260
   65MOL   H14924597   6.096   3.776   2.759  0.0281  2.4535  0.6653
   65MOL   H15024598   5.921   4.001   2.528  1.1282 -0.3006  4.8670
   65MOL   H15124599   6.022   4.119   2.333  2.1550  1.3321  1.1284
   65MOL   H15224600   6.181   3.936   2.049  1.1517  0.7949 -3.4806
   65MOL   H15324601   6.334   3.880   2.122 -0.3666 -0.4315  1.0288
   65MOL   C15424602   6.360   4.021   1.961 -0.1863 -0.1398  0.6635
   65MOL   C15524603   6.312   4.156   1.909 -0.2518 -0.1121 -0.7797
   65MOL   C15624604   6.399   4.261   1.919  0.3166  0.2272  0.2104
   65MOL   C15724605   6.354   4.388   1.874 -0.8377  0.0312 -0.5474
   65MOL   C15824606   6.226   4.407   1.825  0.2529  0.8418  0.3919
   65MOL   C15924607   6.179   4.541   1.779  0.5621  0.7046  0.6645
   65MOL   C16024608   6.136   4.297   1.818  0.0464 -0.6573  0.0183
   65MOL   C16124609   6.176   4.171   1.865  0.6183 -0.3074 -0.6613
   65MOL   C16224610   6.365   3.911   1.851 -0.0005 -0.3445  0.5602
   65MOL   H16324611   6.465   4.030   1.987  0.4655 -0.2021 -1.8626
   65MOL   H16424612   6.499   4.246   1.957 -0.0061 -0.1547  0.9308
   65MOL   H16524613   6.417   4.475   1.884 -1.4077  0.2414  1.2668
   65MOL   H16624614   6.109   4.585   1.850 -2.9477  1.9230 -3.3688
   65MOL   H16724615   6.263   4.610   1.773  0.5155  0.5523 -3.3725
   65MOL   H16824616   6.125   4.543   1.684  0.0601  0.7257  0.9506
   65MOL   H16924617   6.034   4.298   1.783 -0.1171  1.5117  0.4913
   65MOL   H17024618   6.104   4.092   1.857  1.7530 -1.3473 -0.8480
   65MOL   H17124619   6.263   3.911   1.813 -0.4521  1.7512  1.6983
   65MOL   H17224620   6.387   3.813   1.892 -0.6750 -0.9360 -0.4604
   65MOL   C17324621   6.446   3.948   1.723 -0.2652  0.3135 -0.8253
   65MOL   C17424622   6.422   3.851   1.609 -0.3910 -0.5830  0.1058
   65MOL   C17524623   6.399   3.712   1.623  0.8503  0.0684  0.1977
   65MOL   C17624624   6.353   3.639   1.510 -0.4633 -0.0912  0.4623
   65MOL   C17724625   6.343   3.701   1.383  0.0691  0.5179  0.2825
   65MOL   C17824626   6.312   3.625   1.260  0.4856 -0.2793  0.1745
   65MOL   C17924627   6.377   3.837   1.366  0.1179  0.0896  0.0833
   65MOL   C18024628   6.408   3.913   1.480 -0.4133  0.0687  0.2503
   65MOL   C18124629   6.594   3.965   1.747 -0.1756 -0.5758  0.5061
   65MOL   H18224630   6.424   4.047   1.683  3.8837  2.1223  1.0787
   65MOL   H18324631   6.422   3.657   1.714  0.9791  0.4866  0.4166
   65MOL   H18424632   6.347   3.532   1.513  0.0962 -0.2376 -2.0092
   65MOL   H18524633   6.205   3.604   1.269  0.2837  0.4352 -0.5746
   65MOL   H18624634   6.335   3.667   1.162  0.6028 -1.7105 -0.4275
   65MOL   H18724635   6.382   3.543   1.246  1.9443  0.6412  1.9408
   65MOL   H18824636   6.374   3.897   1.277  1.8387 -0.3724 -0.3047
   65MOL   H18924637   6.425   4.019   1.467  0.3083 -0.0926 -0.1233
   65MOL   H19024638   6.603   4.061   1.798 -0.9509 -0.1290 -0.1673
   65MOL   H19124639   6.647   3.979   1.652 -0.4860  2.1422  0.6860
   65MOL   C19224640   6.663   3.842   1.821 -0.4920  0.1897 -0.0628
   65MOL   C19324641   6.683   3.857   1.969 -0.0869 -0.3350 -0.3201
   65MOL   C19424642   6.746   3.978   2.023 -0.8619 -0.6605  0.4857
   65MOL   C19524643   6.765   3.999   2.158  0.3129  0.0464  0.1845
   65MOL   C19624644   6.724   3.897   2.248 -0.2062 -0.3960 -0.2706
   65MOL   C19724645   6.757   3.924   2.391  0.4897 -0.0966 -0.9431
   65MOL   C19824646   6.665   3.779   2.204  0.5939  0.5389  0.1837
   65MOL   C19924647   6.655   3.749   2.062  0.3269  0.1976  0.4947
   65MOL   C20024648   6.801   3.815   1.751 -0.0668 -0.6902  0.0408
   65MOL   H20124649   6.610   3.751   1.794 -1.4994 -0.1701  2.9434
   65MOL   H20224650   6.772   4.064   1.962  0.2756  0.5512  2.6188
   65MOL   H20324651   6.810   4.091   2.192  0.9071 -0.0618 -0.2994
   65MOL   H20424652   6.841   3.866   2.430 -0.4604  0.6359  2.3517
   65MOL   H20524653   6.796   4.024   2.408 -1.5223  0.4799  0.5048
   65MOL   H20624654   6.677   3.908   2.463 -0.3097  0.4289 -1.6969
   65MOL   H20724655   6.649   3.698   2.275 -0.7977 -1.4075 -2.2428
   65MOL   H20824656   6.623   3.650   2.031  1.5698 -0.4659  1.2857
   65MOL   H20924657   6.873   3.776   1.822 -0.8589 -0.2644  1.0931
   65MOL   H21024658   6.837   3.914   1.724 -1.1990  0.3277  2.1110
   65MOL   C21124659   6.822   3.706   1.633  0.8605 -0.4392 -0.0707
   65MOL   C21224660   6.747   3.574   1.666  0.5229 -0.4015 -0.7330
   65MOL   C21324661   6.664   3.512   1.570  0.1752 -0.5489 -0.4144
   65MOL   C21424662   6.600   3.387   1.603  0.1048  0.6571  0.1968
   65MOL   C21524663   6.628   3.322   1.729 -0.0517 -0.9417 -0.0627
   65MOL   C21624664   6.577   3.190   1.764  0.0257  0.5192 -0.7927
   65MOL   C21724665   6.701   3.390   1.827  0.3846  0.2761  0.1359
   65MOL   C21824666   6.763   3.512   1.792 -0.0874 -0.1111 -0.3021
   65MOL   C21924667   6.973   3.675   1.605 -0.0458 -0.5246  0.5547
   65MOL   H22024668   6.777   3.725   1.536 -1.7502 -2.0255  0.7519
   65MOL   H22124669   6.646   3.561   1.476  0.8343  4.1598  1.7361
   65MOL   H22224670   6.538   3.343   1.527 -1.9094  3.2452  0.2404
   65MOL   H22324671   6.598   3.121   1.682 -1.3800 -1.5806  0.5738
   65MOL   H22424672   6.618   3.151   1.857  0.9035 -0.6667 -1.6625
   65MOL   H22524673   6.470   3.208   1.774  0.4496  2.6596  0.1279
   65MOL   H22624674   6.712   3.351   1.927  0.2129  1.8624  0.7789
   65MOL   H22724675   6.833   3.556   1.861 -0.2739 -1.1814  0.5843
   65MOL   H22824676   6.987   3.588   1.541  2.0008 -0.5291  0.9524
   65MOL   H22924677   7.027   3.640   1.694  1.5992  0.6351  0.0378
   65MOL   C23024678   7.049   3.794   1.538  0.2799 -0.0711  0.4139
   65MOL   C23124679   7.125   3.755   1.411 -0.0298 -0.6023  0.1586
   65MOL   C23224680   7.101   3.820   1.290  0.1076  0.2472  0.3771
   65MOL   C23324681   7.159   3.768   1.176 -0.1144 -0.1111 -0.4529
   65MOL   C23424682   7.268   3.675   1.184  0.5729 -0.1414 -0.5386
   65MOL   C23524683   7.366   3.656   1.058 -0.2997 -0.3288  0.0460
   65MOL   C23624684   7.286   3.611   1.308 -0.2725 -0.1021 -0.0321
   65MOL   C23724685   7.217   3.656   1.421  0.6007  0.1614 -0.1756
   65MOL   C23824686   7.143   3.861   1.643  0.2571 -0.2458 -0.7584
   65MOL   H23924687   6.976   3.865   1.499 -0.9821 -1.7952 -0.4610
   65MOL   H24024688   7.020   3.891   1.277  0.7200  0.8779 -0.0996
   65MOL   H24124689   7.146   3.822   1.083 -0.0938  1.4888  0.4542
   65MOL   H24224690   7.461   3.708   1.070  0.1064 -1.8520  4.0398
   65MOL   H24324691   7.393   3.551   1.054 -1.2966 -0.7241  2.6649
   65MOL   H24424692   7.327   3.694   0.963 -0.6616 -0.3577  0.1811
   65MOL   H24524693   7.364   3.537   1.324  2.4133  2.4455 -1.0426
   65MOL   H24624694   7.231   3.592   1.507  1.1127  0.1452 -0.2713
   65MOL   H24724695   7.236   3.809   1.666  0.6488  1.0625  0.6779
   65MOL   H24824696   7.090   3.856   1.738  0.1281 -2.2799 -0.9019
   65MOL   C24924697   7.184   4.008   1.613  0.1556 -0.0079  0.3135
   65MOL   C25024698   7.323   4.048   1.659 -0.2922 -0.5712  0.2848
   65MOL   C25124699   7.416   4.108   1.566  0.2980  0.5830 -0.1686
   65MOL   C25224700   7.550   4.134   1.616 -1.0243 -0.1631  0.3437
   65MOL   C25324701   7.584   4.103   1.749  0.3458 -0.9952 -0.3410
   65MOL   C25424702   7.730   4.133   1.797  0.3054  0.5344 -0.4260
   65MOL   C25524703   7.492   4.054   1.836  0.5296  0.1301  0.0273
   65MOL   C25624704   7.368   4.013   1.789  0.7955 -0.1895  0.6766
   65MOL   C25724705   7.082   4.096   1.683 -0.4543 -0.9255 -1.0157
   65MOL   H25824706   7.182   4.021   1.505  0.4240 -0.1945  0.2870
   65MOL   H25924707   7.378   4.122   1.466 -0.4426  0.0608  0.0378
   65MOL   H26024708   7.618   4.170   1.541 -0.9902  2.2672  1.5045
   65MOL   H26124709   7.747   4.238   1.820 -1.6421  0.6211  0.7637
   65MOL   H26224710   7.749   4.092   1.896 -1.8929  1.8855  0.6104
   65MOL   H26324711   7.807   4.096   1.729 -1.4810  0.0886 -2.2557
   65MOL   H26424712   7.522   4.030   1.937  0.9193 -0.6455 -0.2730
   65MOL   H26524713   7.297   3.956   1.848  0.0756 -0.7532 -0.7069
   65MOL   H26624714   7.103   4.118   1.787 -0.4835 -1.9580 -0.7820
   65MOL   H26724715   6.985   4.046   1.689 -1.6906  1.4923 -0.1664
   65MOL   C26824716   7.057   4.226   1.615 -0.8003  0.2603  0.1549
   65MOL   C26924717   6.985   4.329   1.711 -0.4942 -0.1908  0.2882
   65MOL   C27024718   7.055   4.450   1.750 -0.0310 -0.5878 -0.0749
   65MOL   C27124719   7.003   4.531   1.852  0.6654 -0.3377  0.3144
   65MOL   C27224720   6.880   4.502   1.909 -0.7958 -0.7024  0.0525
   65MOL   C27324721   6.811   4.595   1.999  0.3372 -0.2468 -0.2160
   65MOL   C27424722   6.811   4.386   1.872 -0.0663  0.2701  0.0468
   65MOL   C27524723   6.856   4.304   1.762 -0.1261  0.1470 -0.1551
   65MOL   C27624724   6.985   4.206   1.481 -0.9910  0.3342  0.7090
   65MOL   H27724725   7.154   4.270   1.592 -0.0020 -0.7028  1.6266
   65MOL   H27824726   7.148   4.479   1.705  0.9185  1.0605  2.8481
   65MOL   H27924727   7.056   4.623   1.872  2.4899 -1.4098  0.6206
   65MOL   H28024728   6.831   4.568   2.103 -1.9045 -1.7713 -0.1321
   65MOL   H28124729   6.839   4.699   1.980 -0.4098  0.1160  0.5914
   65MOL   H28224730   6.702   4.592   1.995  0.1704  3.0689 -0.0763
   65MOL   H28324731   6.717   4.370   1.924 -0.9980  1.2420 -1.3018
   65MOL   H28424732   6.799   4.219   1.729  1.6038 -0.1481 -2.4901
   65MOL   H28524733   6.878   4.227   1.489 -1.2816 -1.4436  1.9177
   65MOL   H28624734   6.987   4.100   1.453 -0.4444  0.4691  0.2417
   65MOL   C28724735   7.040   4.288   1.362 -0.1621  0.4998  0.6028
   65MOL   C28824736   7.028   4.444   1.374 -0.8864  1.1456  0.3013
   65MOL   C28924737   6.902   4.505   1.405 -0.1236 -0.5985 -0.2070
   65MOL   C29024738   6.891   4.644   1.418 -0.1751 -0.3793 -0.0553
   65MOL   C29124739   6.999   4.727   1.385  0.2331  0.3217  0.2304
   65MOL   C29224740   6.991   4.876   1.391  0.1025 -0.6192  0.2528
   65MOL   C29324741   7.125   4.671   1.356 -0.0484 -0.2426  0.0370
   65MOL   C29424742   7.140   4.530   1.356  0.2862 -0.4113  0.4041
   65MOL   C29524743   6.961   4.234   1.230 -0.1596 -0.2488  0.0902
   65MOL   H29624744   7.144   4.259   1.347  0.0168  1.3876  0.1065
   65MOL   H29724745   6.812   4.449   1.428 -0.4878  0.1397  0.1925
   65MOL   H29824746   6.794   4.690   1.433 -0.9552 -1.0750 -2.5793
   65MOL   H29924747   7.091   4.918   1.403  0.2424 -0.5249 -1.1311
   65MOL   H30024748   6.966   4.908   1.289 -0.9497 -1.9834  0.0735
   65MOL   H30124749   6.927   4.912   1.471  0.8741  0.2488  0.4944
   65MOL   H30224750   7.210   4.731   1.327 -1.8422  3.3229  1.8181
   65MOL   H30324751   7.238   4.493   1.328  1.0655  0.3846  2.0240
   65MOL   H30424752   6.861   4.269   1.254  0.3029  0.7150  0.6424
   65MOL   H30524753   6.969   4.126   1.239  2.7758 -0.1038 -0.2420
   65MOL   C30624754   7.027   4.286   1.099 -0.0454  0.8700  0.0267
   65MOL   C30724755   6.955   4.220   0.981  0.0686  0.2502 -0.1534
   65MOL   C30824756   6.981   4.086   0.962 -0.1958 -0.3262 -0.2850
   65MOL   C30924757   6.929   4.021   0.852 -0.8218 -0.1915  0.1815
   65MOL   C31024758   6.849   4.090   0.761 -0.0324 -0.5996 -0.8288
   65MOL   C31124759   6.799   4.015   0.632 -0.1267  0.1509 -0.0901
   65MOL   C31224760   6.819   4.224   0.781  0.5932  0.3692  0.0539
   65MOL   C31324761   6.863   4.286   0.896 -0.2314 -0.0330 -0.6923
   65MOL   C31424762   7.184   4.276   1.085  0.6619  0.0870 -0.6178
   65MOL   H31524763   7.005   4.393   1.090 -1.1378  0.6970  0.4899
   65MOL   H31624764   7.055   4.045   1.031 -0.3189  0.6765  0.4473
   65MOL   H31724765   6.963   3.920   0.834 -1.5495 -0.3286 -0.4495
   65MOL   H31824766   6.786   3.907   0.636  1.0357  0.0434  1.6655
   65MOL   H31924767   6.703   4.057   0.603  0.4180  0.6785 -1.1223
   65MOL   H32024768   6.862   4.026   0.544  0.2593  1.3034  0.3322
   65MOL   H32124769   6.759   4.279   0.710 -0.8394 -1.7279 -0.4095
   65MOL   H32224770   6.831   4.388   0.912 -0.9600 -0.4093  0.2952
   65MOL   H32324771   7.221   4.174   1.086 -1.2999 -0.6467 -1.6024
   65MOL   H32424772   7.240   4.309   1.173  2.6324 -0.8877 -1.4756
   65MOL   C32524773   7.256   4.334   0.959  0.4108 -0.2128 -0.4481
   65MOL   C32624774   7.386   4.255   0.940 -0.1406 -0.3298  0.0625
   65MOL   C32724775   7.415   4.189   0.817  0.3671  0.4426 -0.2551
   65MOL   C32824776   7.534   4.114   0.806  0.7701  0.5592 -0.0494
   65MOL   C32924777   7.633   4.115   0.908  0.0380  0.1802  0.3367
   65MOL   C33024778   7.764   4.044   0.885  0.7323  0.1314  0.1050
   65MOL   C33124779   7.614   4.198   1.022 -0.5279  0.4710 -0.4542
   65MOL   C33224780   7.487   4.259   1.042 -0.3392  0.8381  0.4628
   65MOL   C33324781   7.289   4.489   0.980  0.9527  0.0422 -0.1675
   65MOL   H33424782   7.175   4.327   0.886 -1.6562 -1.3678  1.8762
   65MOL   H33524783   7.349   4.180   0.732 -0.4373  0.4044  0.3728
   65MOL   H33624784   7.553   4.052   0.720  2.4808 -0.2015  0.8369
   65MOL   H33724785   7.802   4.061   0.784  1.3778 -0.3281  0.2661
   65MOL   H33824786   7.843   4.062   0.957  1.4005  2.4990 -1.1860
   65MOL   H33924787   7.739   3.938   0.878 -0.2430  0.3618 -0.0229
   65MOL   H34024788   7.690   4.210   1.099 -1.5230  1.2565  0.4348
   65MOL   H34124789   7.468   4.300   1.140 -1.2981 -0.4851  0.8511
   65MOL   H34224790   7.368   4.483   1.054  0.4183 -0.4440  0.3680
   65MOL   H34324791   7.203   4.539   1.025  0.0676 -2.1503  0.6524
   65MOL   C34424792   7.335   4.560   0.853 -0.4699 -0.4123 -0.0356
   65MOL   C34524793   7.372   4.702   0.878 -0.2288 -0.7525 -0.3152
   65MOL   C34624794   7.495   4.743   0.830 -0.1445  0.2982 -0.6420
   65MOL   C34724795   7.542   4.874   0.848 -0.3440  0.1521 -0.1854
   65MOL   C34824796   7.462   4.961   0.924 -0.6138 -0.4801 -0.9063
   65MOL   C34924797   7.516   5.093   0.975 -0.7120 -0.3954 -0.3580
   65MOL   C35024798   7.337   4.912   0.979  0.0183 -0.6626  0.2763
   65MOL   C35124799   7.290   4.785   0.958 -0.7391  0.0383 -0.0614
   65MOL   C35224800   7.247   4.538   0.729  0.3205  0.5356 -0.0457
   65MOL   H35324801   7.428   4.515   0.819 -0.4190 -0.4514  0.1574
   65MOL   H35424802   7.560   4.683   0.768  2.9466  0.6984  2.0329
   65MOL   H35524803   7.631   4.900   0.792 -1.2754  3.2279 -0.3396
   65MOL   H35624804   7.437   5.163   1.002 -0.4681  0.4456 -1.7528
   65MOL   H35724805   7.557   5.074   1.074  3.1232 -0.3849 -1.8703
   65MOL   H35824806   7.590   5.142   0.911  1.6318  1.1249  3.3333
   65MOL   H35924807   7.281   4.981   1.040 -0.2893  2.1121 -2.9670
   65MOL   H36024808   7.196   4.753   1.000 -0.2458 -1.2754  0.0849
   65MOL   H36124809   7.148   4.565   0.767  0.2849 -0.1051  0.3347
   65MOL   H36224810   7.234   4.436   0.693  1.3284  0.3303  0.1556
   65MOL   C36324811   7.272   4.629   0.599  0.2485 -0.1502 -0.3384
   65MOL   C36424812   7.157   4.604   0.501 -0.4656 -0.1490  0.6217
   65MOL   C36524813   7.117   4.472   0.460  0.2137  0.1977  0.3241
   65MOL   C36624814   7.005   4.457   0.375  0.3987  0.2254  0.2643
   65MOL   C36724815   6.938   4.566   0.323 -0.9055  0.1895 -0.4411
   65MOL   C36824816   6.805   4.546   0.250  0.0353  0.0854 -0.4779
   65MOL   C36924817   6.986   4.694   0.359 -0.6196  0.0511  0.4105
   65MOL   C37024818   7.097   4.717   0.447 -0.3235 -0.2043 -0.5519
   65MOL   C37124819   7.401   4.600   0.521  0.0175  0.1197 -0.1585
   65MOL   H37224820   7.280   4.732   0.633  0.6429  0.4505 -2.1783
   65MOL   H37324821   7.170   4.382   0.485 -1.5416 -1.3927 -1.4990
   65MOL   H37424822   6.967   4.358   0.356 -1.5843  0.9029  0.6624
   65MOL   H37524823   6.792   4.628   0.180 -1.2529 -0.2796 -0.6904
   65MOL   H37624824   6.820   4.469   0.175  2.1517 -1.1462  1.1409
   65MOL   H37724825   6.714   4.517   0.303 -0.1465  2.7834  0.7612
   65MOL   H37824826   6.931   4.781   0.325 -1.9052 -1.0864 -0.4903
   65MOL   H37924827   7.123   4.820   0.467 -0.4931 -0.1496 -0.6095
   65MOL   H38024828   7.430   4.669   0.441 -2.0789 -0.6211 -1.5859
   65MOL   H38124829   7.392   4.496   0.489 -0.6539  0.0774  0.1718
   65MOL   H38224830   7.480   4.599   0.596  1.1531 -1.5754 -1.3411
   66MOL     C124831   3.595   0.494   5.195  0.1559 -0.0416  0.0906
   66MOL     C224832   3.606   0.446   5.059 -0.3223  0.1577  0.4994
   66MOL     C324833   3.700   0.489   4.966  0.7522 -0.2026 -0.3051
   66MOL     C424834   3.709   0.434   4.838 -0.3848  0.2364 -0.1447
   66MOL     C524835   3.623   0.325   4.807 -0.6304  0.3653  0.8854
   66MOL     C624836   3.635   0.264   4.672 -0.1805  0.5353 -0.6018
   66MOL     C724837   3.528   0.280   4.897  0.0046 -0.0934  0.4097
   66MOL     C824838   3.513   0.346   5.015  0.3225  0.4857  0.0491
   66MOL     C924839   3.483   0.602   5.210  0.0327 -0.2366 -0.0275
   66MOL    H1024840   3.574   0.421   5.274 -2.1517  1.3722  0.8586
   66MOL    H1124841   3.770   0.567   4.994  2.3695 -1.4192 -0.8703
   66MOL    H1224842   3.789   0.471   4.775  1.3759 -2.2620  0.5743
   66MOL    H1324843   3.741   0.280   4.652 -0.6865  3.4544 -1.2975
   66MOL    H1424844   3.624   0.156   4.669 -4.4674  0.8575  0.5525
   66MOL    H1524845   3.568   0.320   4.605  1.4565  0.6212 -2.2008
   66MOL    H1624846   3.464   0.199   4.864 -0.4594  0.4897 -0.1448
   66MOL    H1724847   3.436   0.328   5.089  1.0699  0.3713  0.7955
   66MOL    H1824848   3.391   0.561   5.169 -0.1867 -0.8864  1.0887
   66MOL    H1924849   3.494   0.686   5.141 -0.5372  0.8593  1.1838
   66MOL    H2024850   3.695   0.523   5.225  1.0041 -1.6410 -1.1231
   66MOL    C2124851   3.467   0.654   5.349 -0.5405  0.4166 -0.3304
   66MOL    C2224852   3.324   0.695   5.370 -0.3593  0.6910 -0.2289
   66MOL    C2324853   3.247   0.660   5.482 -0.1516  0.3164 -1.1079
   66MOL    C2424854   3.109   0.694   5.496 -0.2108 -0.1393  0.3961
   66MOL    C2524855   3.050   0.772   5.395  0.9976  0.6906 -0.1043
   66MOL    C2624856   2.909   0.822   5.415 -0.0028  0.3005  0.4775
   66MOL    C2724857   3.122   0.800   5.276  0.1470 -0.8542 -0.3208
   66MOL    C2824858   3.260   0.773   5.271 -0.6071  0.8848  0.3897
   66MOL    C2924859   3.572   0.759   5.389  0.1948 -0.8895  0.2254
   66MOL    H3024860   3.479   0.563   5.407 -2.5204 -2.1783 -3.8132
   66MOL    H3124861   3.287   0.600   5.563  1.3249  1.1155 -1.2363
   66MOL    H3224862   3.054   0.664   5.585 -0.8191 -1.7316 -0.4798
   66MOL    H3324863   2.912   0.923   5.456 -0.4893  0.9204 -0.9744
   66MOL    H3424864   2.849   0.821   5.324 -0.5096  1.4738  0.7898
   66MOL    H3524865   2.854   0.749   5.474  0.8460  0.0132  0.9220
   66MOL    H3624866   3.079   0.859   5.196  1.9973  0.6411 -0.2598
   66MOL    H3724867   3.311   0.810   5.183  0.8311  0.8036  1.1896
   66MOL    H3824868   3.670   0.713   5.383  1.0217  0.7399  0.9437
   66MOL    H3924869   3.562   0.770   5.497 -0.4296  0.4012  0.0524
   66MOL    C4024870   3.567   0.897   5.316 -0.2593 -0.5005 -0.0895
   66MOL    C4124871   3.667   0.917   5.205 -0.3008  0.5546  0.4106
   66MOL    C4224872   3.794   0.859   5.206 -0.0052 -0.1376  0.0931
   66MOL    C4324873   3.878   0.875   5.091 -0.0308 -0.5342 -0.1469
   66MOL    C4424874   3.838   0.943   4.978 -0.0017  0.1295 -0.0809
   66MOL    C4524875   3.924   0.945   4.842  0.5326  0.2268  0.2740
   66MOL    C4624876   3.710   1.006   4.985  0.4114  0.5234 -0.0453
   66MOL    C4724877   3.626   0.991   5.092 -0.7374 -0.1355 -0.2585
   66MOL    C4824878   3.580   1.008   5.417 -0.9172 -0.1476  0.1856
   66MOL    H4924879   3.467   0.914   5.277 -0.8470  0.3255  1.7167
   66MOL    H5024880   3.840   0.805   5.288 -0.2450 -0.6677 -0.1191
   66MOL    H5124881   3.971   0.820   5.086 -0.1526 -0.9576  1.9716
   66MOL    H5224882   3.892   1.023   4.773 -1.9597  0.4820  1.6558
   66MOL    H5324883   4.031   0.958   4.863  0.9678 -3.0048  0.3675
   66MOL    H5424884   3.899   0.850   4.794 -0.8191  0.6221  0.1877
   66MOL    H5524885   3.666   1.061   4.903  0.3940 -1.6271 -1.5440
   66MOL    H5624886   3.529   1.039   5.091 -0.1661  1.0738  0.7004
   66MOL    H5724887   3.644   1.085   5.373  0.0415 -0.8672  0.3094
   66MOL    H5824888   3.643   0.968   5.496 -0.9465 -1.1726 -0.3079
   66MOL    C5924889   3.450   1.060   5.486  0.3643  0.1823  0.0895
   66MOL    C6024890   3.358   1.138   5.393  0.2260 -0.1737 -0.1969
   66MOL    C6124891   3.398   1.266   5.349 -0.2879  0.1920  0.0925
   66MOL    C6224892   3.311   1.336   5.261 -0.0034  0.3170  0.2170
   66MOL    C6324893   3.190   1.285   5.222  0.6062 -0.3462  0.1628
   66MOL    C6424894   3.101   1.362   5.119 -0.5002  0.3788 -0.4225
   66MOL    C6524895   3.144   1.163   5.276 -0.0947  0.0752 -0.5970
   66MOL    C6624896   3.229   1.090   5.364 -0.6771  0.4529 -0.3217
   66MOL    C6724897   3.492   1.144   5.606  0.3996  0.6524  0.6236
   66MOL    H6824898   3.395   0.973   5.520  0.0048  0.6672  0.7677
   66MOL    H6924899   3.483   1.321   5.387 -0.1416  1.6068 -2.1824
   66MOL    H7024900   3.345   1.432   5.224  2.0163 -0.7103 -0.6239
   66MOL    H7124901   3.075   1.291   5.040 -0.7437  0.3986 -0.3629
   66MOL    H7224902   3.009   1.410   5.154 -0.7562  0.1485 -0.7743
   66MOL    H7324903   3.174   1.427   5.072  0.7528 -0.8873 -0.2539
   66MOL    H7424904   3.047   1.123   5.250 -0.7930  1.7442 -0.6019
   66MOL    H7524905   3.209   0.994   5.409 -0.7716  0.4843 -0.2980
   66MOL    H7624906   3.419   1.223   5.623  0.9462  1.6570 -1.5613
   66MOL    H7724907   3.592   1.185   5.589 -0.0579  1.3406 -0.4663
   66MOL    C7824908   3.505   1.052   5.734  0.9440  0.3149 -0.2590
   66MOL    C7924909   3.370   0.989   5.773 -0.0804  0.7837 -0.1456
   66MOL    C8024910   3.373   0.859   5.838 -0.3225 -0.3155  0.2594
   66MOL    C8124911   3.255   0.799   5.875 -0.2194  0.1863  0.0925
   66MOL    C8224912   3.135   0.864   5.851 -0.2720 -0.0919 -0.0764
   66MOL    C8324913   3.006   0.789   5.896 -0.3602 -0.5137 -0.4071
   66MOL    C8424914   3.129   0.992   5.790  0.0065 -0.0031  0.0571
   66MOL    C8524915   3.246   1.052   5.744  0.1381 -0.2978 -0.9459
   66MOL    C8624916   3.566   1.139   5.852  0.1063  0.3648 -0.3633
   66MOL    H8724917   3.568   0.964   5.724  0.5273 -0.1101  0.7598
   66MOL    H8824918   3.471   0.813   5.845  0.2123  0.9365  1.2496
   66MOL    H8924919   3.257   0.701   5.920  0.3248 -0.3860 -1.1456
   66MOL    H9024920   3.007   0.762   6.002  0.8795 -0.2064 -0.3305
   66MOL    H9124921   2.922   0.850   5.862 -0.1826 -0.0990 -0.1123
   66MOL    H9224922   2.990   0.702   5.833 -0.3211 -1.3828  0.7675
   66MOL    H9324923   3.035   1.036   5.763  0.2553  0.0433 -0.7494
   66MOL    H9424924   3.235   1.151   5.703 -0.7361 -0.3743 -0.9074
   66MOL    H9524925   3.560   1.088   5.948  0.2602 -0.0192 -0.5583
   66MOL    H9624926   3.499   1.226   5.853  0.5017  0.6672 -0.2807
   66MOL    C9724927   3.716   1.179   5.832  0.2174  0.5402  0.1985
   66MOL    C9824928   3.803   1.077   5.759 -0.2937  0.1157 -0.7118
   66MOL    C9924929   3.869   1.113   5.637 -0.0425  0.2526  0.0307
   66MOL   C10024930   3.952   1.015   5.579  0.1771 -0.1908 -0.6107
   66MOL   C10124931   3.963   0.886   5.634  0.0771  1.0212 -0.4796
   66MOL   C10224932   4.042   0.779   5.559 -0.5645  0.3122  0.8302
   66MOL   C10324933   3.891   0.850   5.750 -0.4891 -0.6651 -0.0120
   66MOL   C10424934   3.819   0.948   5.814  0.4260  0.7633 -0.5893
   66MOL   C10524935   3.779   1.214   5.969  0.4641 -0.0877  0.0822
   66MOL   H10624936   3.705   1.270   5.774 -2.1759 -0.2487 -0.6243
   66MOL   H10724937   3.861   1.209   5.589 -1.8082 -1.7028 -3.8333
   66MOL   H10824938   4.004   1.039   5.487  1.1800  0.3230  0.0729
   66MOL   H10924939   4.144   0.817   5.553  0.4773 -2.1462  2.0409
   66MOL   H11024940   4.051   0.683   5.610 -1.7753  0.2304  0.9194
   66MOL   H11124941   3.987   0.759   5.467  1.8109 -1.5171 -0.2261
   66MOL   H11224942   3.898   0.749   5.790 -0.1715 -0.6027  0.0903
   66MOL   H11324943   3.773   0.921   5.908  3.1595 -0.7063  0.3905
   66MOL   H11424944   3.881   1.249   5.953  0.4362 -0.3629 -0.7268
   66MOL   H11524945   3.798   1.124   6.027  2.0478 -0.2437 -0.6397
   66MOL   C11624946   3.714   1.330   6.045 -0.0855  0.9495 -0.5218
   66MOL   C11724947   3.687   1.455   5.965 -0.0583  1.1501  0.4386
   66MOL   C11824948   3.771   1.509   5.866 -0.3265  0.8703  0.3122
   66MOL   C11924949   3.738   1.627   5.797  0.2638 -0.2808  0.3501
   66MOL   C12024950   3.610   1.690   5.821 -0.0401 -0.3456  0.1043
   66MOL   C12124951   3.562   1.812   5.737  0.5720 -0.1189  0.3495
   66MOL   C12224952   3.528   1.642   5.928 -0.8257  0.4531  0.2128
   66MOL   C12324953   3.573   1.533   6.004 -0.1078  0.2779  0.4225
   66MOL   C12424954   3.768   1.353   6.190  0.6653  0.0569 -0.2411
   66MOL   H12524955   3.615   1.288   6.065  0.7599 -0.0676  1.6364
   66MOL   H12624956   3.863   1.458   5.841 -0.8252 -0.6248  1.3929
   66MOL   H12724957   3.783   1.679   5.714  0.9828  0.0583  0.9476
   66MOL   H12824958   3.558   1.904   5.794 -1.5218  0.6966 -1.0512
   66MOL   H12924959   3.626   1.814   5.649  0.1643 -2.2653 -0.0388
   66MOL   H13024960   3.468   1.780   5.690  0.6918 -0.5988  0.4335
   66MOL   H13124961   3.433   1.687   5.955 -0.4414  1.9767 -0.9484
   66MOL   H13224962   3.517   1.501   6.091 -0.6045  1.0375  0.3865
   66MOL   H13324963   3.721   1.442   6.232 -1.6926 -0.6238 -1.3587
   66MOL   H13424964   3.871   1.387   6.183  0.0498  2.0406 -0.0934
   66MOL   C13524965   3.752   1.231   6.284  0.0898  0.0611 -0.0447
   66MOL   C13624966   3.607   1.187   6.304  0.1164  0.0485 -0.2227
   66MOL   C13724967   3.509   1.274   6.353 -0.2352  0.7127  0.3447
   66MOL   C13824968   3.374   1.235   6.363 -0.0424 -0.0039 -0.1636
   66MOL   C13924969   3.333   1.117   6.291  0.2171  0.1822  0.4351
   66MOL   C14024970   3.192   1.069   6.273  0.0793 -0.1290 -0.2147
   66MOL   C14124971   3.432   1.039   6.236  0.0340  0.5500  0.8289
   66MOL   C14224972   3.566   1.064   6.245 -0.5636 -0.6070  0.8608
   66MOL   C14324973   3.828   1.233   6.424  0.0870 -0.1172 -0.3406
   66MOL   H14424974   3.803   1.152   6.230 -1.8330 -1.8269  0.8096
   66MOL   H14524975   3.529   1.369   6.403 -2.2571  1.3481  0.0089
   66MOL   H14624976   3.309   1.311   6.403 -0.9561  0.6854 -2.8845
   66MOL   H14724977   3.128   1.135   6.215  0.7208 -0.7273 -1.6106
   66MOL   H14824978   3.192   0.970   6.228 -1.4704  0.4445 -1.5163
   66MOL   H14924979   3.151   1.064   6.374  1.2103  1.7891  0.3681
   66MOL   H15024980   3.413   0.939   6.201  1.3464  1.0040 -1.2758
   66MOL   H15124981   3.637   0.992   6.206 -1.3577  0.7563 -3.3626
   66MOL   H15224982   3.791   1.141   6.468 -2.5017  1.0103 -0.0555
   66MOL   H15324983   3.799   1.322   6.481  1.2330 -0.7987  1.3223
   66MOL   C15424984   3.984   1.224   6.418 -0.6449 -0.4019  0.7236
   66MOL   C15524985   4.037   1.144   6.300 -0.0451  0.0265 -0.6663
   66MOL   C15624986   4.006   1.009   6.298 -0.3242  0.7975  0.4761
   66MOL   C15724987   4.045   0.928   6.188  0.1237 -0.2503  0.5636
   66MOL   C15824988   4.129   0.985   6.085  0.3076 -0.7513 -0.4604
   66MOL   C15924989   4.165   0.912   5.959 -0.1476 -0.0931  0.6353
   66MOL   C16024990   4.163   1.127   6.091  0.6482 -0.4061 -0.3629
   66MOL   C16124991   4.120   1.204   6.199  0.6880  0.2819 -0.6690
   66MOL   C16224992   4.035   1.182   6.559 -0.3833 -0.0104  0.3854
   66MOL   H16324993   4.020   1.324   6.392 -0.6507 -0.5278  0.2190
   66MOL   H16424994   3.934   0.971   6.369 -2.3029  2.0920 -0.7963
   66MOL   H16524995   4.014   0.824   6.188  0.3611 -0.3241  1.1450
   66MOL   H16624996   4.169   0.988   5.881 -0.1216 -1.6379 -0.9096
   66MOL   H16724997   4.265   0.870   5.951 -0.3937 -0.4522 -0.7274
   66MOL   H16824998   4.096   0.831   5.935  0.1618  0.0280 -0.7119
   66MOL   H16924999   4.222   1.177   6.016 -2.4179  1.5832 -1.5271
   66MOL   H17025000   4.139   1.309   6.191  2.9980  0.0417  1.2157
   66MOL   H17125001   3.961   1.113   6.599  1.2699 -1.8899  0.2591
   66MOL   H17225002   4.026   1.266   6.627 -2.4521 -0.5353  0.7885
   66MOL   C17325003   4.164   1.105   6.578 -0.8419 -0.0505 -0.2064
   66MOL   C17425004   4.161   1.027   6.707  0.1432  0.9758 -0.0122
   66MOL   C17525005   4.137   1.087   6.836  0.1799  0.2770  0.3445
   66MOL   C17625006   4.147   1.003   6.952  0.0097  0.3164  0.2262
   66MOL   C17725007   4.159   0.865   6.938  0.2559 -0.6489 -0.1919
   66MOL   C17825008   4.132   0.783   7.058 -0.3466  0.2220  0.3715
   66MOL   C17925009   4.196   0.806   6.815  0.4096 -0.1296 -0.2463
   66MOL   C18025010   4.193   0.889   6.699 -0.2013 -0.0346  0.3820
   66MOL   C18125011   4.295   1.189   6.568  0.4052  0.3477  0.6148
   66MOL   H18225012   4.177   1.025   6.505 -1.4666  0.3059 -0.7064
   66MOL   H18325013   4.114   1.193   6.830  0.9931  0.4024 -0.5850
   66MOL   H18425014   4.141   1.046   7.051  0.3138  2.0088 -0.4810
   66MOL   H18525015   4.035   0.736   7.044 -0.3525  1.0262 -2.4362
   66MOL   H18625016   4.206   0.704   7.077  0.1255  0.7805  0.9020
   66MOL   H18725017   4.135   0.841   7.151 -0.9005 -0.1478  0.6221
   66MOL   H18825018   4.220   0.701   6.808 -1.6218 -0.6816  0.5548
   66MOL   H18925019   4.210   0.836   6.607 -0.7126  1.9486 -0.8818
   66MOL   H19025020   4.301   1.237   6.665 -2.4488 -2.4178  2.2583
   66MOL   H19125021   4.304   1.266   6.492 -0.7846  1.7129  1.8317
   66MOL   C19225022   4.420   1.096   6.545 -0.4057  0.4994 -0.1984
   66MOL   C19325023   4.533   1.174   6.620  0.0991  0.6404 -0.6318
   66MOL   C19425024   4.574   1.125   6.749  0.3937 -0.2916  0.8564
   66MOL   C19525025   4.671   1.197   6.824  0.4415  0.3218  0.0118
   66MOL   C19625026   4.718   1.317   6.778 -0.1802 -0.2754 -0.7814
   66MOL   C19725027   4.811   1.397   6.863 -0.4370 -0.3802 -0.0874
   66MOL   C19825028   4.670   1.364   6.656 -0.2663  0.1561 -0.1691
   66MOL   C19925029   4.580   1.296   6.574  0.7870  0.7013 -0.3253
   66MOL   C20025030   4.451   1.064   6.395 -0.2955  0.3579  0.9340
   66MOL   H20125031   4.397   1.004   6.598  0.7004  0.8015  0.8532
   66MOL   H20225032   4.552   1.026   6.788  1.6373 -0.8596  0.1325
   66MOL   H20325033   4.708   1.153   6.916 -0.5421 -0.3300  0.0977
   66MOL   H20425034   4.855   1.337   6.943  2.2835  0.6228 -0.7676
   66MOL   H20525035   4.894   1.431   6.801 -0.7428  1.1799  0.3500
   66MOL   H20625036   4.767   1.482   6.915  0.0416 -0.7578  0.9475
   66MOL   H20725037   4.703   1.457   6.613 -1.0456  0.4313 -0.1747
   66MOL   H20825038   4.547   1.334   6.479 -0.1548 -1.5722 -0.9254
   66MOL   H20925039   4.472   1.160   6.348  2.3324  0.0194  1.3525
   66MOL   H21025040   4.356   1.026   6.357 -0.0234  0.1376  0.4653
   66MOL   C21125041   4.559   0.958   6.369  0.1351  1.2489  0.1999
   66MOL   C21225042   4.696   1.024   6.359  0.4290  0.4497 -0.5478
   66MOL   C21325043   4.753   1.067   6.235 -0.5115 -0.4908 -0.0388
   66MOL   C21425044   4.882   1.127   6.226 -0.0394  0.3706  0.0788
   66MOL   C21525045   4.954   1.154   6.346  0.1633  0.5012  0.5363
   66MOL   C21625046   5.086   1.238   6.347 -0.0233 -0.2008 -0.3395
   66MOL   C21725047   4.909   1.094   6.468  0.7118  0.5396  0.9165
   66MOL   C21825048   4.781   1.041   6.470  0.0818 -0.9764 -0.0042
   66MOL   C21925049   4.544   0.853   6.262  0.1519 -0.0241  0.5198
   66MOL   H22025050   4.577   0.896   6.457  0.7889  2.0171  0.6198
   66MOL   H22125051   4.692   1.050   6.147 -0.8324  0.0038  0.0859
   66MOL   H22225052   4.904   1.165   6.128 -3.3639 -0.5502 -1.0974
   66MOL   H22325053   5.084   1.335   6.297  1.3784  0.4200  0.7698
   66MOL   H22425054   5.126   1.260   6.446 -1.7519  1.3990  0.0438
   66MOL   H22525055   5.167   1.183   6.300 -0.1716 -1.8031  1.2357
   66MOL   H22625056   4.953   1.107   6.566 -0.8700  0.7751  1.6190
   66MOL   H22725057   4.738   1.009   6.564  0.4350 -2.3183 -0.2874
   66MOL   H22825058   4.646   0.820   6.240  0.3469 -0.5608  2.1902
   66MOL   H22925059   4.516   0.903   6.169  0.9078  0.5046  0.5716
   66MOL   C23025060   4.468   0.723   6.284  0.0526 -0.4272 -0.5655
   66MOL   C23125061   4.526   0.649   6.403  0.9008  0.0555 -0.4686
   66MOL   C23225062   4.660   0.622   6.401 -0.1317  0.0734 -0.5250
   66MOL   C23325063   4.718   0.574   6.520 -0.2265 -0.7950  0.3556
   66MOL   C23425064   4.646   0.557   6.640  0.1380 -0.0988  0.8927
   66MOL   C23525065   4.716   0.529   6.767  0.5556  0.4865  0.2321
   66MOL   C23625066   4.507   0.576   6.636  0.0645 -0.4637 -0.4533
   66MOL   C23725067   4.449   0.626   6.518  0.4068  0.4427 -0.5444
   66MOL   C23825068   4.457   0.631   6.163  0.5533 -0.2665  0.3885
   66MOL   H23925069   4.370   0.755   6.317 -0.3711 -1.7428 -0.4980
   66MOL   H24025070   4.729   0.654   6.325  2.8112  1.3924  2.5447
   66MOL   H24125071   4.825   0.569   6.512 -0.1983  0.0712  0.2022
   66MOL   H24225072   4.817   0.495   6.743  0.3966 -0.3455  0.7370
   66MOL   H24325073   4.733   0.620   6.824  2.5326  0.5515 -0.4157
   66MOL   H24425074   4.674   0.455   6.836  0.5652 -0.7333 -1.0501
   66MOL   H24525075   4.456   0.560   6.730  1.8204 -2.6900  0.1579
   66MOL   H24625076   4.342   0.642   6.510  0.3735 -0.0323 -1.1069
   66MOL   H24725077   4.558   0.609   6.130 -0.2852 -0.3074 -2.3427
   66MOL   H24825078   4.411   0.692   6.084 -1.0530  0.0396  1.5251
   66MOL   C24925079   4.353   0.518   6.183  0.3427  0.0066  0.0527
   66MOL   C25025080   4.355   0.426   6.065  0.0510 -1.2150  0.1993
   66MOL   C25125081   4.394   0.292   6.067 -0.1432 -0.3976 -0.1273
   66MOL   C25225082   4.389   0.202   5.959  0.1432  0.1750  0.3113
   66MOL   C25325083   4.331   0.250   5.838  0.7416  0.0240  0.1331
   66MOL   C25425084   4.313   0.154   5.718  0.1334 -0.4246  0.0956
   66MOL   C25525085   4.290   0.385   5.824 -0.2139 -0.0324  0.1230
   66MOL   C25625086   4.302   0.474   5.939  0.9588 -0.0016  0.5117
   66MOL   C25725087   4.207   0.575   6.203 -0.0579  0.5232  0.6586
   66MOL   H25825088   4.384   0.458   6.269  0.7856  0.7913  0.4543
   66MOL   H25925089   4.433   0.254   6.160  0.4399  2.7847  0.9913
   66MOL   H26025090   4.428   0.101   5.965 -1.4001 -0.4308  0.3723
   66MOL   H26125091   4.214   0.179   5.680 -0.3338 -1.2508  0.7390
   66MOL   H26225092   4.393   0.176   5.646  1.4911  1.8118  2.2003
   66MOL   H26325093   4.329   0.053   5.756 -2.4600 -0.4386  1.2343
   66MOL   H26425094   4.236   0.418   5.737 -0.5852 -0.3463  0.2331
   66MOL   H26525095   4.271   0.577   5.933 -0.2413 -0.2152  2.5939
   66MOL   H26625096   4.193   0.653   6.129 -2.7889 -0.1575  0.3728
   66MOL   H26725097   4.199   0.623   6.301 -1.5713 -2.1416  1.9108
   66MOL   C26825098   4.094   0.475   6.188 -0.3309  0.3074 -0.0833
   66MOL   C26925099   3.957   0.540   6.162 -0.4461 -0.5410 -0.0067
   66MOL   C27025100   3.883   0.516   6.046 -0.6115 -0.4166  0.8395
   66MOL   C27125101   3.755   0.569   6.025 -0.7887 -0.5805  0.0669
   66MOL   C27225102   3.700   0.656   6.120  0.1701 -0.0074  0.4091
   66MOL   C27325103   3.561   0.720   6.102 -0.2656  0.3631 -0.5032
   66MOL   C27425104   3.770   0.678   6.240 -0.6701 -0.1579  0.2990
   66MOL   C27525105   3.897   0.619   6.261 -0.4420  0.0541 -0.4739
   66MOL   C27625106   4.085   0.382   6.313  0.1775  0.3274 -0.4065
   66MOL   H27725107   4.109   0.401   6.108 -0.8977 -0.1798  0.2513
   66MOL   H27825108   3.914   0.442   5.974 -0.2875  0.3501  0.1962
   66MOL   H27925109   3.690   0.560   5.940  0.3307 -2.6110 -0.5980
   66MOL   H28025110   3.518   0.756   6.195 -2.2182  2.8434 -2.3018
   66MOL   H28125111   3.570   0.813   6.046  0.9578  0.6124  0.0880
   66MOL   H28225112   3.504   0.653   6.039 -0.8263 -0.3719  0.7669
   66MOL   H28325113   3.729   0.740   6.318 -0.2096  1.1278 -0.4585
   66MOL   H28425114   3.930   0.635   6.362 -0.6513  1.6688 -0.6439
   66MOL   H28525115   4.057   0.444   6.398  1.6973 -0.7717  0.9332
   66MOL   H28625116   4.180   0.338   6.343  0.4621  0.9332 -0.4142
   66MOL   C28725117   3.991   0.261   6.299  0.5136  0.5341  0.0926
   66MOL   C28825118   3.973   0.197   6.438 -0.3899 -0.5394 -0.2863
   66MOL   C28925119   3.874   0.251   6.526 -0.3718 -0.6031 -0.6557
   66MOL   C29025120   3.863   0.188   6.653  0.2820 -0.4771  0.2276
   66MOL   C29125121   3.964   0.098   6.696 -0.1721  0.2813  0.3808
   66MOL   C29225122   3.957   0.045   6.837 -0.0086 -0.3566 -0.0708
   66MOL   C29325123   4.056   0.046   6.610 -0.8953  0.0506 -0.8791
   66MOL   C29425124   4.057   0.090   6.475 -0.6489 -0.4166 -1.0531
   66MOL   C29525125   4.037   0.164   6.185 -0.5107 -0.0333  0.2148
   66MOL   H29625126   3.894   0.299   6.266  0.5193 -0.3313 -0.9512
   66MOL   H29725127   3.813   0.331   6.488 -0.2859 -0.1274  0.1916
   66MOL   H29825128   3.781   0.222   6.715 -0.7573 -2.0149 -0.2535
   66MOL   H29925129   3.968   0.131   6.902  0.2719 -1.3681  1.2408
   66MOL   H30025130   3.858   0.003   6.851  0.2315 -0.8321  0.2253
   66MOL   H30125131   4.030   8.047   6.859 -0.4502 -0.6347  0.4076
   66MOL   H30225132   4.123   8.048   6.643 -0.0904  0.4681 -1.5166
   66MOL   H30325133   4.119   0.037   6.405  1.1826 -1.2320  1.1065
   66MOL   H30425134   4.139   0.133   6.210 -1.1139 -0.5663  2.0689
   66MOL   H30525135   4.039   0.210   6.086 -2.5699 -0.8496 -0.2292
   66MOL   C30625136   3.943   0.040   6.162 -0.3636 -0.0513  0.2395
   66MOL   C30725137   3.993   8.035   6.057  0.3499 -0.2466 -0.9089
   66MOL   C30825138   3.988   8.074   5.920 -0.0667 -0.3295  0.5479
   66MOL   C30925139   4.024   7.981   5.821 -0.6475 -0.3703 -0.3831
   66MOL   C31025140   4.063   7.851   5.856  0.2956  0.1675  0.6694
   66MOL   C31125141   4.098   7.752   5.748 -0.0012  0.5638  0.1267
   66MOL   C31225142   4.068   7.813   5.990 -0.3921 -0.3357  0.1172
   66MOL   C31325143   4.028   7.904   6.090 -0.5672  0.3067  0.0198
   66MOL   C31425144   3.801   0.081   6.132  0.5633 -0.4032  0.3257
   66MOL   H31525145   3.947   8.068   6.257  0.0841 -0.1471  0.1666
   66MOL   H31625146   3.955   0.091   5.886  1.3935 -0.3662 -1.0429
   66MOL   H31725147   4.023   8.008   5.716 -0.4547  2.3894  0.2980
   66MOL   H31825148   4.084   7.799   5.651  0.3471 -2.8125 -1.6255
   66MOL   H31925149   4.195   7.710   5.774  0.1782  1.7677  1.4648
   66MOL   H32025150   4.038   7.661   5.752  0.6628  0.0634 -0.8085
   66MOL   H32125151   4.082   7.708   6.014  1.1179 -0.6092 -1.8842
   66MOL   H32225152   4.025   7.868   6.192 -0.6514 -1.4997 -0.5991
   66MOL   H32325153   3.764   0.024   6.047 -0.8371 -0.7226  1.1303
   66MOL   H32425154   3.788   0.183   6.094  0.3108 -0.0275  1.4008
   66MOL   C32525155   3.688   0.057   6.238 -0.7465  0.5235  0.6118
   66MOL   C32625156   3.700   8.005   6.308  1.0889  0.7264 -0.3084
   66MOL   C32725157   3.723   7.997   6.445  1.1656 -0.6315 -0.0395
   66MOL   C32825158   3.739   7.880   6.514  0.1099  0.4470  0.1194
   66MOL   C32925159   3.738   7.761   6.446 -0.0069 -0.7690  0.4113
   66MOL   C33025160   3.767   7.635   6.516 -0.0104 -0.7111 -0.4950
   66MOL   C33125161   3.711   7.762   6.307 -0.1300  0.7471  0.1093
   66MOL   C33225162   3.694   7.885   6.233 -0.2272  0.3844 -0.1887
   66MOL   C33325163   3.543   0.071   6.178  0.1639 -0.5388  0.0985
   66MOL   H33425164   3.706   0.134   6.314  0.2587 -1.2138  2.1709
   66MOL   H33525165   3.738   0.007   6.502 -2.4085 -0.9055  1.5192
   66MOL   H33625166   3.781   7.885   6.614 -0.1910  1.7839  0.1852
   66MOL   H33725167   3.788   7.553   6.447  0.6304 -1.5350  0.6575
   66MOL   H33825168   3.858   7.649   6.574 -0.0826  1.6901 -0.9015
   66MOL   H33925169   3.693   7.618   6.595  0.3717  3.6041  0.9294
   66MOL   H34025170   3.716   7.673   6.246 -3.3803 -0.7585  1.8802
   66MOL   H34125171   3.687   7.887   6.125  0.9811 -1.3340 -0.3292
   66MOL   H34225172   3.470   0.020   6.241 -1.0008 -1.8110 -2.2137
   66MOL   H34325173   3.535   0.014   6.086 -0.5083 -2.2619  1.2020
   66MOL   C34425174   3.509   0.222   6.154  0.6544 -0.4069  0.4024
   66MOL   C34525175   3.485   0.289   6.288  0.3114  0.2177 -0.8337
   66MOL   C34625176   3.557   0.406   6.328  0.4295 -0.0254  0.7878
   66MOL   C34725177   3.538   0.465   6.454 -0.2183 -0.2683  0.7886
   66MOL   C34825178   3.433   0.418   6.531  0.9481 -0.6186  0.1440
   66MOL   C34925179   3.402   0.483   6.666  0.5026 -0.0274 -0.1655
   66MOL   C35025180   3.352   0.309   6.493 -0.8757 -0.0097 -0.2303
   66MOL   C35125181   3.382   0.246   6.373  0.4842 -0.7077  0.7912
   66MOL   C35225182   3.390   0.252   6.061  0.5452 -0.2568  0.1857
   66MOL   H35325183   3.596   0.271   6.109 -0.3408  1.4503  0.4697
   66MOL   H35425184   3.638   0.438   6.264  0.1634 -0.0442  0.4391
   66MOL   H35525185   3.590   0.555   6.484  0.9709  0.2753 -2.7014
   66MOL   H35625186   3.404   0.406   6.742 -1.9667 -1.0145 -1.0608
   66MOL   H35725187   3.470   0.558   6.708  0.8801 -0.3727 -0.1631
   66MOL   H35825188   3.302   0.524   6.679  0.6579  1.0113 -1.9943
   66MOL   H35925189   3.277   0.278   6.564  0.3109 -0.0959  1.0110
   66MOL   H36025190   3.325   0.159   6.345 -1.3845  0.6306  0.3743
   66MOL   H36125191   3.372   0.360   6.063  1.0221 -0.1791  0.2981
   66MOL   H36225192   3.301   0.207   6.105  0.3767  0.1985  0.3175
   66MOL   C36325193   3.403   0.206   5.911  0.2121 -0.0861 -0.4579
   66MOL   C36425194   3.497   0.301   5.830  0.6100 -0.9874  0.0285
   66MOL   C36525195   3.448   0.425   5.783  0.5108  0.3349 -0.7986
   66MOL   C36625196   3.540   0.504   5.711 -0.3854 -0.0355 -0.5577
   66MOL   C36725197   3.670   0.461   5.678  0.0915 -0.4302 -0.5951
   66MOL   C36825198   3.759   0.543   5.584 -0.2787 -0.1102  0.3494
   66MOL   C36925199   3.714   0.337   5.727 -0.3587  0.0545  0.3575
   66MOL   C37025200   3.628   0.264   5.810 -0.0340 -0.2372 -0.1173
   66MOL   C37125201   3.267   0.180   5.843  0.6046  0.1446  0.1014
   66MOL   H37225202   3.453   0.109   5.911  0.6267  0.1135  1.2100
   66MOL   H37325203   3.348   0.459   5.802  0.4816 -0.2421  0.1138
   66MOL   H37425204   3.507   0.604   5.686  1.9300  0.9487  0.2749
   66MOL   H37525205   3.753   0.517   5.479 -1.2178  0.7423  0.1945
   66MOL   H37625206   3.740   0.650   5.591 -0.1217 -0.0324 -0.4496
   66MOL   H37725207   3.862   0.535   5.618 -0.5816 -1.1938  1.0543
   66MOL   H37825208   3.806   0.290   5.694 -1.3448 -0.3941 -1.8222
   66MOL   H37925209   3.676   0.174   5.846  0.2825 -0.2947 -0.6730
   66MOL   H38025210   3.203   0.268   5.849  0.2519  0.0755 -2.1317
   66MOL   H38125211   3.210   0.100   5.890 -0.7887 -0.9231 -3.1925
   66MOL   H38225212   3.287   0.151   5.739 -2.0610  1.3145 -0.7777
   67MOL     C125213   5.833   5.247   2.652  0.3343  0.7094  0.5450
   67MOL     C225214   5.962   5.164   2.635 -0.2356  0.0368  0.2381
   67MOL     C325215   6.081   5.217   2.691 -0.5059 -0.2326  0.4050
   67MOL     C425216   6.206   5.155   2.666 -0.1156  0.5271 -1.2082
   67MOL     C525217   6.217   5.035   2.604  0.7628  0.3478 -0.2180
   67MOL     C625218   6.354   4.964   2.587 -0.2186  0.1411 -0.0066
   67MOL     C725219   6.094   4.973   2.570 -0.2226  0.3670 -0.3152
   67MOL     C825220   5.972   5.037   2.569 -0.5740  0.0605  0.4298
   67MOL     C925221   5.781   5.311   2.512 -0.4585 -0.4316  0.3828
   67MOL    H1025222   5.757   5.180   2.693  0.2331  0.6968  0.3413
   67MOL    H1125223   6.078   5.315   2.736 -1.7852 -1.4474  3.0390
   67MOL    H1225224   6.292   5.205   2.708 -0.6348 -0.3344  0.9547
   67MOL    H1325225   6.344   4.893   2.505  1.5272  1.6475 -1.5640
   67MOL    H1425226   6.446   5.021   2.600  1.0589 -1.7198 -0.5367
   67MOL    H1525227   6.369   4.909   2.680  0.4781 -0.4309 -0.4441
   67MOL    H1625228   6.101   4.873   2.528 -1.1045  0.1944 -0.0586
   67MOL    H1725229   5.887   4.981   2.536  0.3342 -2.0397  1.5492
   67MOL    H1825230   5.778   5.239   2.430  0.6576  0.4877 -0.4805
   67MOL    H1925231   5.842   5.394   2.475 -0.3631 -1.3030 -1.4823
   67MOL    H2025232   5.854   5.330   2.719 -3.3520  0.0010  2.7431
   67MOL    C2125233   5.640   5.374   2.527  0.7528  0.4564 -0.4690
   67MOL    C2225234   5.581   5.427   2.394  0.8975 -0.5865  0.1484
   67MOL    C2325235   5.447   5.399   2.358  0.6707  0.1588 -0.3329
   67MOL    C2425236   5.392   5.441   2.236 -0.1820 -0.2828  0.3030
   67MOL    C2525237   5.483   5.507   2.146  0.6970  0.3895  0.0542
   67MOL    C2625238   5.431   5.568   2.020  0.3606  0.3393 -0.2182
   67MOL    C2725239   5.613   5.534   2.177  0.1293 -0.3284  0.1101
   67MOL    C2825240   5.664   5.487   2.298 -0.3279 -0.3838  0.0047
   67MOL    C2925241   5.642   5.497   2.629 -0.0027  0.0494  0.0286
   67MOL    H3025242   5.569   5.304   2.570 -0.4127  1.6623 -0.3860
   67MOL    H3125243   5.383   5.347   2.427 -0.2324 -0.1436 -1.4017
   67MOL    H3225244   5.292   5.413   2.206 -0.1311 -2.5613  2.1042
   67MOL    H3325245   5.325   5.545   2.011  0.4648 -0.6853  1.0152
   67MOL    H3425246   5.446   5.676   2.027  0.7831  0.1155  3.3612
   67MOL    H3525247   5.479   5.512   1.940 -0.0020 -0.4533  0.1128
   67MOL    H3625248   5.671   5.574   2.096 -3.3416 -0.2577 -2.4331
   67MOL    H3725249   5.771   5.495   2.309 -0.3621 -0.0634  0.0965
   67MOL    H3825250   5.727   5.555   2.595  0.3484 -0.0247  0.7693
   67MOL    H3925251   5.656   5.455   2.729 -3.8720 -0.0205  0.6311
   67MOL    C4025252   5.530   5.604   2.635 -0.4214 -0.1284  0.4029
   67MOL    C4125253   5.587   5.733   2.695 -0.2538  0.4529  0.2285
   67MOL    C4225254   5.579   5.856   2.623 -0.2128 -0.4179 -0.4189
   67MOL    C4325255   5.638   5.973   2.667 -0.1132  0.1786 -0.4571
   67MOL    C4425256   5.709   5.967   2.783  0.0641 -0.5692 -0.5785
   67MOL    C4525257   5.760   6.096   2.838 -0.4714  0.1041  0.7044
   67MOL    C4625258   5.722   5.850   2.860  0.0088  0.2893  0.0937
   67MOL    C4725259   5.665   5.733   2.812  0.4084 -0.5933  0.0466
   67MOL    C4825260   5.410   5.553   2.715  0.0949  0.0811  0.6755
   67MOL    H4925261   5.492   5.630   2.536 -0.5760 -0.1441  0.4600
   67MOL    H5025262   5.525   5.865   2.529 -1.9534  1.0255  0.6801
   67MOL    H5125263   5.631   6.064   2.609 -1.1053 -0.5779 -1.5462
   67MOL    H5225264   5.822   6.156   2.770 -1.9195 -0.4095 -1.0900
   67MOL    H5325265   5.679   6.155   2.880 -2.3198 -0.5141 -1.8339
   67MOL    H5425266   5.830   6.081   2.920 -0.4585 -1.4394  0.4104
   67MOL    H5525267   5.785   5.853   2.948  0.5931  0.3996 -0.3275
   67MOL    H5625268   5.684   5.645   2.871 -0.9242 -0.6277  0.4303
   67MOL    H5725269   5.432   5.540   2.821 -0.3992 -2.3493  0.5081
   67MOL    H5825270   5.397   5.450   2.682  0.3570  0.3858 -0.3880
   67MOL    C5925271   5.280   5.634   2.690 -0.2263 -0.7337 -0.6043
   67MOL    C6025272   5.285   5.785   2.723  0.3545  0.5085 -0.2614
   67MOL    C6125273   5.318   5.823   2.856 -0.1050  0.1243  0.2116
   67MOL    C6225274   5.316   5.955   2.896  0.6073  0.5655  0.6899
   67MOL    C6325275   5.281   6.056   2.802  0.2954  0.4190 -0.0758
   67MOL    C6425276   5.300   6.205   2.831 -0.2649  0.3265 -0.5868
   67MOL    C6525277   5.241   6.025   2.673  0.3975 -0.2460  0.7909
   67MOL    C6625278   5.241   5.890   2.634  0.5314  0.1565  0.4639
   67MOL    C6725279   5.152   5.576   2.755  0.5577 -0.1358  0.3180
   67MOL    H6825280   5.265   5.642   2.582 -0.1444 -1.5104 -0.6785
   67MOL    H6925281   5.352   5.754   2.932  1.0769 -1.1293 -1.4171
   67MOL    H7025282   5.358   5.982   2.991  1.7349  0.4921  0.2136
   67MOL    H7125283   5.388   6.204   2.895 -0.9555  1.8776  0.4265
   67MOL    H7225284   5.338   6.266   2.749 -0.2477  2.4934  0.9776
   67MOL    H7325285   5.217   6.259   2.877 -0.4514  0.7096 -1.3498
   67MOL    H7425286   5.235   6.109   2.605  1.3899 -1.4082 -0.7638
   67MOL    H7525287   5.209   5.861   2.535  3.0954 -1.2755 -0.0147
   67MOL    H7625288   5.084   5.654   2.723  2.1048  1.2673  0.4154
   67MOL    H7725289   5.165   5.595   2.862 -1.9781  0.5251  0.5442
   67MOL    C7825290   5.104   5.435   2.735  0.1571  0.1994 -0.7472
   67MOL    C7925291   5.107   5.387   2.592  0.3572 -0.7706 -0.3741
   67MOL    C8025292   5.070   5.469   2.491  0.4026  0.2913  0.1775
   67MOL    C8125293   5.051   5.420   2.354 -0.0284 -0.2835  0.2693
   67MOL    C8225294   5.083   5.286   2.324  0.0686  0.0512  0.4709
   67MOL    C8325295   5.054   5.232   2.182  0.8394  0.0808 -0.0791
   67MOL    C8425296   5.124   5.203   2.432  0.2692  0.4728 -0.2234
   67MOL    C8525297   5.127   5.250   2.562 -0.1446  0.6091  0.0015
   67MOL    C8625298   4.964   5.409   2.797  0.4035 -0.3666  0.3631
   67MOL    H8725299   5.167   5.365   2.790 -0.3574  1.5305  1.6008
   67MOL    H8825300   5.054   5.575   2.501 -2.1554 -0.0634  0.1054
   67MOL    H8925301   5.024   5.490   2.276 -0.8909  0.0560  0.8621
   67MOL    H9025302   5.143   5.170   2.169 -0.1226 -1.2700 -0.3362
   67MOL    H9125303   4.961   5.175   2.183  0.3225  0.9155 -0.0565
   67MOL    H9225304   5.060   5.316   2.113 -2.0563 -0.4782 -1.0707
   67MOL    H9325305   5.149   5.099   2.416  1.2387  0.8265 -1.0504
   67MOL    H9425306   5.145   5.178   2.641  1.4441  1.5582  0.5304
   67MOL    H9525307   4.934   5.307   2.772  2.4849 -1.4037  1.9054
   67MOL    H9625308   4.891   5.469   2.743 -0.3992  0.3924  2.2573
   67MOL    C9725309   4.948   5.441   2.949  0.2599  0.6820 -0.7210
   67MOL    C9825310   5.029   5.334   3.028  0.0127 -0.1104  0.3611
   67MOL    C9925311   5.012   5.194   3.018  0.1772  0.3355  0.5470
   67MOL   C10025312   5.078   5.100   3.100 -0.0279  0.2761 -0.1509
   67MOL   C10125313   5.189   5.143   3.176 -0.1521 -0.6793 -0.5115
   67MOL   C10225314   5.273   5.045   3.252  0.1651 -0.3423 -0.3818
   67MOL   C10325315   5.213   5.281   3.184 -0.2720 -0.0887  0.2093
   67MOL   C10425316   5.132   5.377   3.113  0.0907  0.2433  0.0691
   67MOL   C10525317   4.800   5.452   2.992  0.0685 -0.1153  0.0076
   67MOL   H10625318   4.991   5.535   2.982  1.6358 -0.7635  1.7059
   67MOL   H10725319   4.937   5.145   2.957  1.2961 -0.3583 -0.2698
   67MOL   H10825320   5.051   4.997   3.080  1.2468 -0.2625  0.8677
   67MOL   H10925321   5.229   5.016   3.347 -2.0765 -1.0307 -1.6090
   67MOL   H11025322   5.278   4.950   3.199  2.5182 -0.3865 -0.1402
   67MOL   H11125323   5.370   5.093   3.267  0.3991 -0.4530 -1.5172
   67MOL   H11225324   5.283   5.310   3.261  0.2446 -3.3157  1.0276
   67MOL   H11325325   5.157   5.480   3.135 -0.1497  0.6051 -1.3425
   67MOL   H11425326   4.768   5.349   2.974  1.6217 -0.4596 -0.8273
   67MOL   H11525327   4.738   5.511   2.924 -1.0522 -0.8299  0.3969
   67MOL   C11625328   4.773   5.485   3.140  0.1082  0.2456  0.5146
   67MOL   C11725329   4.636   5.446   3.186 -0.0815  0.4374  0.1140
   67MOL   C11825330   4.618   5.401   3.321 -0.2168 -0.2079 -0.1255
   67MOL   C11925331   4.495   5.361   3.365 -0.0388  0.8381 -0.1055
   67MOL   C12025332   4.378   5.363   3.275 -0.3250  0.0951  0.2451
   67MOL   C12125333   4.242   5.328   3.331  0.0653  0.2408  0.0039
   67MOL   C12225334   4.396   5.417   3.149  0.3532  0.3178 -0.4350
   67MOL   C12325335   4.522   5.461   3.101 -0.2691  0.5643 -0.9474
   67MOL   C12425336   4.815   5.621   3.194  0.1881 -0.3666  0.1544
   67MOL   H12525337   4.821   5.399   3.189  1.3111  1.1708  0.9769
   67MOL   H12625338   4.708   5.388   3.379  0.4329 -0.4613 -1.1899
   67MOL   H12725339   4.470   5.335   3.467  0.0016 -1.7586 -0.7320
   67MOL   H12825340   4.201   5.253   3.263 -0.5976  0.7641 -0.1790
   67MOL   H12925341   4.250   5.280   3.428 -2.3279 -2.4174 -1.0477
   67MOL   H13025342   4.171   5.411   3.325 -0.3640 -0.2398 -1.9431
   67MOL   H13125343   4.307   5.421   3.088 -0.7744 -3.3138  0.8274
   67MOL   H13225344   4.537   5.473   2.994  0.0432  1.1581 -0.8410
   67MOL   H13325345   4.921   5.634   3.171  0.1368 -1.0309 -0.4499
   67MOL   H13425346   4.811   5.625   3.303  2.9202 -2.4580  0.3885
   67MOL   C13525347   4.727   5.740   3.141 -0.3182  0.5889 -0.0084
   67MOL   C13625348   4.765   5.778   2.998  0.5760  0.0287  0.1247
   67MOL   C13725349   4.669   5.783   2.896  0.5228 -0.2199  0.0673
   67MOL   C13825350   4.712   5.829   2.770  0.5371 -0.3024  0.4364
   67MOL   C13925351   4.846   5.859   2.743  0.2556 -0.1290 -0.5093
   67MOL   C14025352   4.879   5.918   2.615  0.1268 -0.2487  0.6893
   67MOL   C14125353   4.945   5.856   2.849 -0.0836  0.1019  0.0785
   67MOL   C14225354   4.901   5.817   2.974  0.2957  0.2189  0.4785
   67MOL   C14325355   4.721   5.866   3.223 -0.3586  0.1816  0.2364
   67MOL   H14425356   4.625   5.702   3.133  0.1630 -0.0976 -3.6839
   67MOL   H14525357   4.566   5.757   2.917  0.5392  0.3108  0.8138
   67MOL   H14625358   4.642   5.854   2.691  0.4629  0.4403  0.7369
   67MOL   H14725359   4.878   6.026   2.625 -1.0089 -0.0085 -1.7453
   67MOL   H14825360   4.980   5.883   2.592  0.5557  1.5830 -0.3510
   67MOL   H14925361   4.803   5.885   2.544 -0.2527 -2.6291  2.1570
   67MOL   H15025362   5.046   5.887   2.824 -0.3733 -0.5824 -2.0774
   67MOL   H15125363   4.971   5.816   3.057  0.4667 -0.6335  0.3257
   67MOL   H15225364   4.699   5.950   3.158 -2.3727 -1.5971 -1.4634
   67MOL   H15325365   4.814   5.884   3.276 -0.1881 -0.5954  0.2038
   67MOL   C15425366   4.608   5.869   3.329 -0.5949 -0.1434  0.5299
   67MOL   C15525367   4.464   5.855   3.271  0.2428  0.1058 -0.5661
   67MOL   C15625368   4.416   5.946   3.174  0.1294 -0.3960  0.1735
   67MOL   C15725369   4.291   5.925   3.122 -0.5829 -0.5260 -0.8267
   67MOL   C15825370   4.210   5.829   3.176  0.1336  0.0903  0.6358
   67MOL   C15925371   4.065   5.823   3.128  0.2713 -0.3163  0.1274
   67MOL   C16025372   4.255   5.730   3.264 -0.1942 -0.1901 -0.0910
   67MOL   C16125373   4.387   5.742   3.307  0.1775  0.5666 -0.2407
   67MOL   C16225374   4.612   5.998   3.411  0.3940 -0.2481  0.1325
   67MOL   H16325375   4.616   5.783   3.396  2.2709  0.6163  1.2266
   67MOL   H16425376   4.478   6.029   3.145 -0.1500  0.0162  0.7701
   67MOL   H16525377   4.260   6.002   3.052 -0.1883 -0.6747 -1.1675
   67MOL   H16625378   4.060   5.889   3.041  0.7497 -0.3020  0.1087
   67MOL   H16725379   4.043   5.721   3.099 -2.5548  0.2407  0.1523
   67MOL   H16825380   4.000   5.867   3.204  1.0888  0.1097  0.5767
   67MOL   H16925381   4.194   5.647   3.297  2.0722 -1.6710  0.5592
   67MOL   H17025382   4.432   5.673   3.377 -1.9644 -1.4300 -0.7690
   67MOL   H17125383   4.517   6.003   3.464  0.4791  0.9148  0.1832
   67MOL   H17225384   4.615   6.084   3.345 -0.6794  0.4566  0.9760
   67MOL   C17325385   4.719   6.000   3.523 -0.3233  0.2024 -0.2897
   67MOL   C17425386   4.660   5.922   3.644 -0.3853  0.3552 -0.5548
   67MOL   C17525387   4.572   5.981   3.735  0.3608  0.1020 -0.1671
   67MOL   C17625388   4.540   5.910   3.850 -0.1212 -0.3180 -0.1039
   67MOL   C17725389   4.567   5.778   3.870 -0.4233 -0.3032  0.2810
   67MOL   C17825390   4.510   5.697   3.993  0.0396 -0.2305 -0.7398
   67MOL   C17925391   4.656   5.719   3.774 -0.2332 -0.1201  0.1720
   67MOL   C18025392   4.701   5.785   3.659 -0.6440 -0.5998  0.4105
   67MOL   C18125393   4.756   6.144   3.564  0.4485  0.1260 -0.8006
   67MOL   H18225394   4.810   5.950   3.487  0.5498  0.0481  2.0299
   67MOL   H18325395   4.553   6.086   3.720  3.4513  0.5528 -1.4056
   67MOL   H18425396   4.470   5.947   3.924  2.6806  3.4840  0.8095
   67MOL   H18525397   4.531   5.738   4.092  1.0999 -2.4932  0.0058
   67MOL   H18625398   4.402   5.709   3.983  0.1403  0.9971 -0.5194
   67MOL   H18725399   4.538   5.593   4.005 -0.0690 -0.3870 -1.8086
   67MOL   H18825400   4.706   5.626   3.797 -1.3418 -0.6329  0.5679
   67MOL   H18925401   4.767   5.744   3.584  0.7725  1.6709  0.3491
   67MOL   H19025402   4.795   6.137   3.665 -0.1168  1.3718 -0.4763
   67MOL   H19125403   4.661   6.197   3.569  0.7962  0.8502 -1.6557
   67MOL   C19225404   4.854   6.226   3.474  0.1963 -0.0603 -0.0482
   67MOL   C19325405   4.977   6.150   3.442 -0.2677  0.3514  0.0393
   67MOL   C19425406   5.021   6.122   3.311  0.4409 -0.2557  0.0286
   67MOL   C19525407   5.148   6.063   3.285 -0.0820  0.2835  0.2153
   67MOL   C19625408   5.237   6.040   3.391  0.2904  0.1935  0.3259
   67MOL   C19725409   5.377   5.986   3.360 -0.0722  0.2742  0.4138
   67MOL   C19825410   5.199   6.078   3.520 -0.0397  0.1793 -0.1671
   67MOL   C19925411   5.068   6.129   3.543 -0.1544 -0.5750 -0.3488
   67MOL   C20025412   4.883   6.366   3.535 -0.4179 -0.4816 -0.4362
   67MOL   H20125413   4.811   6.236   3.374  0.2011  0.6466  0.0178
   67MOL   H20225414   4.961   6.152   3.226 -0.4448  0.4822  0.8937
   67MOL   H20325415   5.169   6.039   3.182 -1.3322 -1.1357  0.2697
   67MOL   H20425416   5.457   6.040   3.410  1.6245  0.0927 -2.0223
   67MOL   H20525417   5.388   5.881   3.387 -1.3306 -0.6323 -2.3615
   67MOL   H20625418   5.403   5.983   3.254 -2.9872  2.0916 -0.4135
   67MOL   H20725419   5.270   6.063   3.600 -0.1059 -0.6553 -0.2626
   67MOL   H20825420   5.045   6.164   3.643 -0.8626  1.5960 -1.2383
   67MOL   H20925421   4.932   6.347   3.630 -0.8223 -0.9248 -0.3145
   67MOL   H21025422   4.793   6.427   3.546  0.2919  0.2150  1.7086
   67MOL   C21125423   4.982   6.452   3.447 -0.3704  0.0356  0.5400
   67MOL   C21225424   5.086   6.523   3.542  0.7939 -0.2735  0.1153
   67MOL   C21325425   5.225   6.509   3.523 -0.0843 -0.5000 -0.0513
   67MOL   C21425426   5.315   6.561   3.621 -0.1647 -0.1614  0.0849
   67MOL   C21525427   5.266   6.642   3.733  0.7176  0.6319  0.2685
   67MOL   C21625428   5.360   6.712   3.829 -0.2177 -0.6816  0.5617
   67MOL   C21725429   5.125   6.653   3.747  0.5385  0.4970 -0.0273
   67MOL   C21825430   5.040   6.597   3.654 -1.0769  0.0065 -0.3367
   67MOL   C21925431   4.906   6.564   3.368 -0.5505  0.1798 -0.8626
   67MOL   H22025432   5.037   6.388   3.378  0.4158  0.2399  0.9729
   67MOL   H22125433   5.251   6.462   3.429 -2.1232  1.5969 -1.7146
   67MOL   H22225434   5.421   6.543   3.608 -0.1818 -0.1859 -0.0236
   67MOL   H22325435   5.432   6.638   3.865 -1.1190 -0.8587  2.0770
   67MOL   H22425436   5.405   6.802   3.788 -2.9789  0.5319  0.0767
   67MOL   H22525437   5.310   6.747   3.920  1.1754 -0.6049  1.3132
   67MOL   H22625438   5.089   6.717   3.826  3.3205  2.4914 -0.3026
   67MOL   H22725439   4.933   6.612   3.664 -0.8150  1.0509  1.0662
   67MOL   H22825440   4.981   6.633   3.332 -1.2310  1.5530  0.3136
   67MOL   H22925441   4.858   6.624   3.446  0.6927 -2.2161  1.8521
   67MOL   C23025442   4.801   6.517   3.261  0.3347 -0.0159 -0.3853
   67MOL   C23125443   4.848   6.458   3.134 -0.2584 -0.3047  0.1999
   67MOL   C23225444   4.799   6.336   3.091 -0.2009  0.1954  0.0763
   67MOL   C23325445   4.837   6.273   2.975 -0.3553  0.5441 -0.3902
   67MOL   C23425446   4.925   6.342   2.895 -0.0845  0.0779 -0.3065
   67MOL   C23525447   4.959   6.285   2.760  0.7499  0.2624  0.2900
   67MOL   C23625448   4.984   6.463   2.936 -0.1272 -0.3662 -0.2536
   67MOL   C23725449   4.947   6.524   3.060  0.2852  0.1044 -0.3076
   67MOL   C23825450   4.691   6.629   3.231  0.1730 -1.0824 -0.3660
   67MOL   H23925451   4.757   6.432   3.315 -1.6371 -0.0029 -1.9345
   67MOL   H24025452   4.731   6.283   3.156 -1.2788  2.6647  1.0148
   67MOL   H24125453   4.806   6.175   2.941  0.9585  0.0316 -0.1218
   67MOL   H24225454   4.883   6.288   2.682  0.3484  0.9469  0.7024
   67MOL   H24325455   5.049   6.330   2.717  1.1264 -0.2845  0.5032
   67MOL   H24425456   4.976   6.177   2.770 -0.7695 -0.1347 -1.2266
   67MOL   H24525457   5.069   6.497   2.878 -0.9505 -2.9116 -3.0532
   67MOL   H24625458   4.989   6.619   3.087 -0.3257 -0.1513  1.5870
   67MOL   H24725459   4.653   6.611   3.130 -2.0509 -0.6552  0.3740
   67MOL   H24825460   4.734   6.729   3.226 -2.6149  0.1067 -1.4250
   67MOL   C24925461   4.577   6.635   3.343 -0.0815 -0.4162 -0.5499
   67MOL   C25025462   4.501   6.502   3.348 -0.4131  0.4398 -0.2663
   67MOL   C25125463   4.476   6.416   3.236 -0.2579  0.0741  0.0619
   67MOL   C25225464   4.409   6.299   3.253  0.3548  0.3473  0.2880
   67MOL   C25325465   4.352   6.263   3.378  0.8436  0.5715 -0.1133
   67MOL   C25425466   4.256   6.146   3.399 -0.4843  0.0252  0.5097
   67MOL   C25525467   4.379   6.344   3.490  0.3783  0.0628  0.1528
   67MOL   C25625468   4.460   6.461   3.478 -0.2895 -0.1405  0.6616
   67MOL   C25725469   4.473   6.752   3.321 -0.6013 -0.0704 -0.9431
   67MOL   H25825470   4.629   6.645   3.438  1.2635 -1.5755 -1.1320
   67MOL   H25925471   4.500   6.438   3.133  1.1329 -2.7150 -0.2469
   67MOL   H26025472   4.379   6.237   3.170  1.2228 -0.1955  0.3840
   67MOL   H26125473   4.183   6.142   3.318  1.3200  1.0275 -1.2000
   67MOL   H26225474   4.313   6.056   3.418 -1.1982 -0.3578  0.8706
   67MOL   H26325475   4.189   6.177   3.480  0.8147  0.9033  1.2592
   67MOL   H26425476   4.344   6.321   3.589 -2.5416  3.5396  0.0370
   67MOL   H26525477   4.477   6.529   3.560 -1.0187  0.8705 -0.0186
   67MOL   H26625478   4.379   6.725   3.367 -0.7700 -0.1390 -1.3228
   67MOL   H26725479   4.456   6.756   3.213  1.0649 -0.0903 -1.2266
   67MOL   C26825480   4.515   6.889   3.373 -1.4832 -0.0531  0.6524
   67MOL   C26925481   4.592   6.884   3.504  0.0327 -0.0700 -0.2804
   67MOL   C27025482   4.731   6.911   3.504 -0.1614  0.0939 -1.4582
   67MOL   C27125483   4.796   6.912   3.629  0.2992  0.0498 -0.2966
   67MOL   C27225484   4.732   6.875   3.750  0.3438  0.0577 -0.3525
   67MOL   C27325485   4.815   6.866   3.877 -0.3125  0.9764  0.3455
   67MOL   C27425486   4.592   6.852   3.745  0.0609  0.7893 -0.4102
   67MOL   C27525487   4.520   6.852   3.621  0.0174  0.2665 -0.0713
   67MOL   C27625488   4.386   6.975   3.378 -0.0302  0.3362  0.0286
   67MOL   H27725489   4.581   6.930   3.297 -1.9337  1.3194  0.9798
   67MOL   H27825490   4.786   6.943   3.417  0.1309 -0.7182 -1.5714
   67MOL   H27925491   4.900   6.942   3.632  0.4955 -0.7872  1.9785
   67MOL   H28025492   4.765   6.939   3.941 -2.3777 -1.5942  1.7500
   67MOL   H28125493   4.808   6.770   3.927  0.0684  1.2095  0.8494
   67MOL   H28225494   4.915   6.900   3.852 -0.1652  0.2123 -0.1243
   67MOL   H28325495   4.544   6.818   3.836  0.8095 -1.8922 -0.9647
   67MOL   H28425496   4.414   6.833   3.633 -0.1111  2.0208  1.8277
   67MOL   H28525497   4.313   6.920   3.437  0.4444  0.2393  0.5393
   67MOL   H28625498   4.357   6.984   3.274  1.8110  2.0198 -0.3882
   67MOL   C28725499   4.382   7.119   3.428 -0.3074 -0.3572 -0.0163
   67MOL   C28825500   4.488   7.206   3.373 -0.0751  0.3142  0.0670
   67MOL   C28925501   4.610   7.220   3.443 -0.3566 -0.8074 -0.0111
   67MOL   C29025502   4.715   7.303   3.390 -0.0755 -0.5108 -0.6612
   67MOL   C29125503   4.690   7.372   3.267 -0.1935 -0.2472  0.3056
   67MOL   C29225504   4.794   7.462   3.205 -0.2285  0.3465  0.4008
   67MOL   C29325505   4.573   7.345   3.194  1.2233  0.3283  0.1383
   67MOL   C29425506   4.476   7.258   3.246 -0.0202  0.9510 -0.2066
   67MOL   C29525507   4.349   7.126   3.585 -0.0251  0.9353  0.7026
   67MOL   H29625508   4.296   7.166   3.379  0.4659  0.4699 -0.5962
   67MOL   H29725509   4.633   7.189   3.544 -1.1973  0.2346  0.5076
   67MOL   H29825510   4.803   7.320   3.450 -1.4685 -0.5071  1.4042
   67MOL   H29925511   4.879   7.398   3.183 -0.3175  0.4146 -0.1548
   67MOL   H30025512   4.761   7.500   3.108 -2.7263 -3.6361 -0.4049
   67MOL   H30125513   4.837   7.535   3.274 -0.7048  1.4209 -0.4321
   67MOL   H30225514   4.563   7.384   3.094  2.2384 -1.0604 -0.5202
   67MOL   H30325515   4.383   7.237   3.196 -1.4226  1.8853  1.8985
   67MOL   H30425516   4.435   7.082   3.635  1.2030  1.5858 -0.8016
   67MOL   H30525517   4.260   7.065   3.605  1.3304 -1.4027 -0.1586
   67MOL   C30625518   4.330   7.268   3.645  0.4534  1.0120  0.0685
   67MOL   C30725519   4.338   7.275   3.795  0.4354 -0.3530  0.5860
   67MOL   C30825520   4.311   7.166   3.876 -0.0983  0.0973 -0.1373
   67MOL   C30925521   4.307   7.173   4.020  0.6070 -0.5742 -0.1680
   67MOL   C31025522   4.307   7.306   4.070 -0.0208 -0.1312  0.8659
   67MOL   C31125523   4.254   7.333   4.208 -0.2858 -0.3868  0.1615
   67MOL   C31225524   4.324   7.423   3.994  0.4746 -0.0990  0.6778
   67MOL   C31325525   4.357   7.406   3.852 -0.7527  0.9465 -1.1331
   67MOL   C31425526   4.203   7.337   3.594 -0.1281 -0.2495 -0.6932
   67MOL   H31525527   4.413   7.332   3.615 -1.8868  4.1644  0.0173
   67MOL   H31625528   4.303   7.070   3.827 -0.9669 -1.2422  2.5622
   67MOL   H31725529   4.285   7.085   4.079 -0.2695  0.1276  0.5629
   67MOL   H31825530   4.145   7.330   4.209 -0.3534  1.1008 -0.7398
   67MOL   H31925531   4.305   7.257   4.267 -0.5350  0.0009  0.8835
   67MOL   H32025532   4.282   7.425   4.260  1.3427 -0.9782  0.3669
   67MOL   H32125533   4.323   7.524   4.031  0.7318 -0.3199  1.2990
   67MOL   H32225534   4.378   7.491   3.788 -0.3644 -0.4327 -2.8651
   67MOL   H32325535   4.198   7.356   3.487  2.2026  2.2699 -0.4258
   67MOL   H32425536   4.197   7.439   3.632 -0.9385 -0.8754  0.8749
   67MOL   C32525537   4.071   7.275   3.644  0.3553 -0.7429 -0.4576
   67MOL   C32625538   4.020   7.167   3.549 -0.3269  0.4854 -0.1081
   67MOL   C32725539   3.993   7.037   3.605  0.2957 -0.1737  0.1970
   67MOL   C32825540   3.981   6.923   3.521  0.3214  0.3044 -0.4199
   67MOL   C32925541   3.980   6.945   3.382  0.5139 -0.2305  0.3496
   67MOL   C33025542   3.963   6.824   3.288  0.8517  0.2199 -0.0086
   67MOL   C33125543   3.985   7.069   3.324 -0.8615 -0.6737 -0.1223
   67MOL   C33225544   4.001   7.184   3.406 -0.5247  0.4010 -0.8900
   67MOL   C33325545   3.955   7.382   3.652  0.2827  0.0711 -0.5619
   67MOL   H33425546   4.087   7.232   3.742 -1.0724  0.5077  0.3419
   67MOL   H33525547   4.013   7.033   3.711 -1.0135 -1.1025  0.4188
   67MOL   H33625548   3.978   6.822   3.560 -0.1337 -0.1720 -1.6517
   67MOL   H33725549   4.058   6.806   3.237 -0.7750 -0.1558 -3.0485
   67MOL   H33825550   3.930   6.734   3.340 -2.5515 -1.0874 -4.0824
   67MOL   H33925551   3.884   6.843   3.215  1.1902 -1.5081 -0.8509
   67MOL   H34025552   3.991   7.078   3.216  0.6007  1.1798  0.0839
   67MOL   H34125553   4.020   7.281   3.363  0.0870  0.8626  0.4204
   67MOL   H34225554   3.919   7.424   3.559  0.1475 -2.5473 -1.7098
   67MOL   H34325555   4.001   7.471   3.696  0.5184 -0.6172  0.6130
   67MOL   C34425556   3.831   7.343   3.736  0.1158 -0.4087 -0.1118
   67MOL   C34525557   3.723   7.452   3.735  0.4133 -0.6541  0.1254
   67MOL   C34625558   3.742   7.567   3.809 -0.5569 -0.0811 -0.1480
   67MOL   C34725559   3.639   7.665   3.821 -0.7179 -0.0045  0.1942
   67MOL   C34825560   3.522   7.646   3.748  0.2964  0.9892 -0.4026
   67MOL   C34925561   3.403   7.740   3.754 -0.6865  0.1163  0.1250
   67MOL   C35025562   3.506   7.526   3.671  0.2429  1.4852 -0.0818
   67MOL   C35125563   3.602   7.423   3.671  0.2631 -0.0660 -0.2858
   67MOL   C35225564   3.860   7.282   3.876  0.5128 -0.1687  0.4371
   67MOL   H35325565   3.788   7.261   3.679 -2.5207  0.0742  1.0924
   67MOL   H35425566   3.834   7.583   3.864 -0.5939 -1.9862  0.5199
   67MOL   H35525567   3.659   7.758   3.872  1.8606 -0.0743 -0.6129
   67MOL   H35625568   3.432   7.833   3.804  0.6390 -1.0501  1.5583
   67MOL   H35725569   3.378   7.762   3.650  0.3536 -1.0104 -0.3762
   67MOL   H35825570   3.326   7.692   3.815 -1.4162  2.4117  1.0708
   67MOL   H35925571   3.408   7.513   3.625  0.5673 -2.1958  0.0658
   67MOL   H36025572   3.578   7.327   3.626 -0.8340 -0.3846  0.9425
   67MOL   H36125573   3.911   7.365   3.925  1.4561 -0.1514 -0.5364
   67MOL   H36225574   3.944   7.212   3.866  1.7768  1.2806  0.6183
   67MOL   C36325575   3.754   7.239   3.971  0.5025  0.4457 -0.3457
   67MOL   C36425576   3.812   7.206   4.108 -0.0205  0.9622 -0.6324
   67MOL   C36525577   3.754   7.263   4.224  0.9914  0.6660  0.1222
   67MOL   C36625578   3.815   7.248   4.349  1.2298 -0.4970 -0.4703
   67MOL   C36725579   3.912   7.153   4.369 -0.7049 -0.0383  0.1509
   67MOL   C36825580   3.955   7.108   4.505  0.0474  0.4003 -0.2026
   67MOL   C36925581   3.973   7.092   4.256 -0.8770  0.5435 -0.5928
   67MOL   C37025582   3.914   7.114   4.124  0.4256  0.4640 -0.6524
   67MOL   C37125583   3.659   7.134   3.902  0.2045  0.8590  0.0209
   67MOL   H37225584   3.692   7.327   3.987  1.2949  0.6440  1.8073
   67MOL   H37325585   3.670   7.330   4.217 -0.1473 -0.6841  0.6382
   67MOL   H37425586   3.781   7.291   4.442 -0.9061 -0.0838 -1.4093
   67MOL   H37525587   3.889   7.025   4.528 -2.3820  2.9572  2.6591
   67MOL   H37625588   4.055   7.066   4.504 -0.6521 -1.2978 -0.5492
   67MOL   H37725589   3.955   7.175   4.591 -0.6236  1.0759 -0.7193
   67MOL   H37825590   4.066   7.036   4.255 -0.5357  1.1006 -0.3306
   67MOL   H37925591   3.961   7.070   4.038 -1.4693  0.1163 -1.5315
   67MOL   H38025592   3.723   7.050   3.876 -1.2858 -1.0045  2.1183
   67MOL   H38125593   3.600   7.173   3.819  2.9218  1.4676 -1.6881
   67MOL   H38225594   3.581   7.096   3.969 -1.2307  1.2350 -1.3899
   68MOL     C125595   7.787   2.762   4.671 -0.4949  0.1817 -0.0805
   68MOL     C225596   7.815   2.616   4.658  0.0655 -0.5011 -0.5015
   68MOL     C325597   7.710   2.527   4.638 -0.2684  0.1384 -0.0617
   68MOL     C425598   7.719   2.385   4.628 -0.0481  0.3902 -0.5690
   68MOL     C525599   7.848   2.329   4.648  0.5454 -0.3550 -0.2031
   68MOL     C625600   7.872   2.184   4.660 -0.8896 -0.6004 -0.2517
   68MOL     C725601   7.954   2.419   4.660 -0.2825  0.4407 -1.0860
   68MOL     C825602   7.946   2.560   4.663  0.3398 -0.0101 -0.3803
   68MOL     C925603   7.823   2.833   4.537 -0.5966  0.0687 -0.1608
   68MOL    H1025604   7.685   2.779   4.703 -1.9164 -1.2804 -3.5399
   68MOL    H1125605   7.611   2.571   4.635 -0.3864 -0.1549 -0.5810
   68MOL    H1225606   7.627   2.329   4.627 -0.7686  1.5451 -0.0734
   68MOL    H1325607   7.869   2.129   4.567  1.3289 -1.0640 -0.0632
   68MOL    H1425608   7.970   2.171   4.705 -0.4275 -1.0889 -1.3842
   68MOL    H1525609   7.798   2.151   4.733 -0.5375  2.2567  1.4907
   68MOL    H1625610   8.048   2.368   4.679 -0.8718 -0.6977 -1.1797
   68MOL    H1725611   8.029   2.623   4.692  0.8188 -0.1226 -1.4891
   68MOL    H1825612   7.781   2.763   4.464  0.2742 -1.0078  0.3483
   68MOL    H1925613   7.931   2.824   4.528 -0.3949  1.3431  0.8530
   68MOL    H2025614   7.846   2.790   4.758 -1.9170 -1.3590  1.4110
   68MOL    C2125615   7.765   2.974   4.524 -0.1041 -0.2254  0.6514
   68MOL    C2225616   7.615   2.972   4.529  0.6266  0.0067  0.4833
   68MOL    C2325617   7.548   2.949   4.404  0.4915 -1.1870  0.0340
   68MOL    C2425618   7.409   2.931   4.396 -0.1617  0.4587 -0.4843
   68MOL    C2525619   7.331   2.956   4.506  0.5431  0.2998  0.0591
   68MOL    C2625620   7.178   2.955   4.500  0.2497  0.4760  0.3820
   68MOL    C2725621   7.391   2.992   4.632 -0.8851 -0.1330  0.8755
   68MOL    C2825622   7.535   3.005   4.647  0.0172  0.4976 -0.2103
   68MOL    C2925623   7.823   3.060   4.404  0.0469  0.0045 -0.2055
   68MOL    H3025624   7.784   3.023   4.620 -0.1205  1.3333 -0.1234
   68MOL    H3125625   7.610   2.923   4.319  0.8926  2.3294 -0.8070
   68MOL    H3225626   7.373   2.901   4.299 -0.0521 -0.2244 -0.3140
   68MOL    H3325627   7.140   2.899   4.414  2.6710  1.9053 -1.6802
   68MOL    H3425628   7.137   2.915   4.593  4.4136  1.3060  2.7072
   68MOL    H3525629   7.131   3.052   4.488  0.8035  0.4753 -2.0567
   68MOL    H3625630   7.326   3.012   4.715 -0.9346  0.8249  0.6108
   68MOL    H3725631   7.575   3.038   4.741  2.4998  1.8393 -1.6848
   68MOL    H3825632   7.777   3.158   4.409  0.2336  0.1261 -0.8492
   68MOL    H3925633   7.796   3.022   4.306  1.4514  1.0319 -1.0136
   68MOL    C4025634   7.977   3.089   4.414  0.3077 -0.5004 -0.0433
   68MOL    C4125635   8.035   3.103   4.557 -0.7510 -0.3797  0.2623
   68MOL    C4225636   0.056   3.015   4.606  0.4578 -0.4025 -0.1196
   68MOL    C4325637   0.117   3.032   4.736  0.6264  0.3930  0.3464
   68MOL    C4425638   0.080   3.144   4.816  0.6311  0.4359  0.0693
   68MOL    C4525639   0.117   3.157   4.966 -0.4511 -0.0587  0.3811
   68MOL    C4625640   8.065   3.234   4.762 -0.2575  0.2515 -0.3399
   68MOL    C4725641   8.001   3.215   4.639  0.1717 -0.0515 -0.6387
   68MOL    C4825642   8.010   3.213   4.321 -0.3621 -0.0003  0.4624
   68MOL    H4925643   8.031   3.007   4.368  0.6176  0.4554 -1.4201
   68MOL    H5025644   0.076   2.924   4.552 -1.1996 -1.2264  0.6357
   68MOL    H5125645   0.186   2.966   4.787 -0.4679 -1.3276 -0.3395
   68MOL    H5225646   0.167   3.066   5.001  1.1453  0.5019 -0.4411
   68MOL    H5325647   0.186   3.237   4.993 -0.7437  0.4607 -0.3987
   68MOL    H5425648   0.035   3.167   5.037  0.3325 -1.0711  1.4589
   68MOL    H5525649   8.013   3.306   4.823 -0.0617 -1.2837  1.7067
   68MOL    H5625650   7.914   3.275   4.616 -0.6992 -1.1189 -0.1973
   68MOL    H5725651   0.037   3.233   4.329 -0.7069  1.3032  2.1581
   68MOL    H5825652   7.978   3.313   4.348 -0.2249  0.3823 -0.7734
   68MOL    C5925653   7.982   3.187   4.169  0.0725  0.3926  0.1011
   68MOL    C6025654   0.033   3.184   4.077 -0.6227  0.0043 -0.4540
   68MOL    C6125655   0.063   3.065   4.005 -0.0669 -0.0195 -0.4265
   68MOL    C6225656   0.167   3.077   3.911  0.3723 -0.0663  0.2212
   68MOL    C6325657   0.246   3.194   3.896  0.9790 -0.4386  0.3834
   68MOL    C6425658   0.346   3.200   3.782  0.3262  0.6799 -0.1876
   68MOL    C6525659   0.219   3.302   3.975  0.5322  0.0681 -0.5615
   68MOL    C6625660   0.110   3.302   4.061  0.6851 -0.5614  0.2576
   68MOL    C6725661   7.881   3.294   4.107 -0.6431 -0.3471  0.1805
   68MOL    H6825662   7.940   3.087   4.155  1.2948  0.0036 -0.8603
   68MOL    H6925663   0.000   2.979   4.023  0.9668 -0.8525 -0.7503
   68MOL    H7025664   0.187   3.001   3.836 -1.5650  0.5954 -1.0006
   68MOL    H7125665   0.345   3.301   3.741  0.7625 -0.2361 -2.5583
   68MOL    H7225666   0.443   3.179   3.826 -0.1766  0.6645  0.9376
   68MOL    H7325667   0.324   3.130   3.701  1.5424 -0.2757  0.3113
   68MOL    H7425668   0.277   3.393   3.961  0.1527  0.4393  0.2462
   68MOL    H7525669   0.079   3.389   4.118  0.6647 -0.5227  0.1882
   68MOL    H7625670   7.911   3.340   4.013 -1.3357 -0.6792 -0.2033
   68MOL    H7725671   7.881   3.385   4.167 -0.6897  0.7606 -1.4814
   68MOL    C7825672   7.740   3.242   4.093 -0.8087  0.1561  0.6909
   68MOL    C7925673   7.720   3.119   4.006  0.0789  0.2926 -0.3409
   68MOL    C8025674   7.815   3.085   3.907  0.4791  0.4504 -0.6264
   68MOL    C8125675   7.805   2.968   3.828  0.1212 -0.4138  0.4882
   68MOL    C8225676   7.688   2.889   3.845  0.4771 -0.5292 -0.5748
   68MOL    C8325677   7.662   2.767   3.760 -0.3048 -0.1269  0.2144
   68MOL    C8425678   7.603   2.911   3.959 -0.0234  0.1393  0.2545
   68MOL    C8525679   7.612   3.032   4.028 -0.6313  0.2472 -0.5981
   68MOL    C8625680   7.653   3.359   4.041  0.4650 -0.7630 -0.6069
   68MOL    H8725681   7.713   3.201   4.190 -1.0385  0.5731  0.8049
   68MOL    H8825682   7.898   3.151   3.888  0.1850  0.7883 -0.7279
   68MOL    H8925683   7.880   2.942   3.754 -1.2430  0.4151 -1.2024
   68MOL    H9025684   7.730   2.762   3.674 -2.5176 -2.9374 -1.4641
   68MOL    H9125685   7.677   2.668   3.805 -0.8443  0.4727  1.7435
   68MOL    H9225686   7.558   2.773   3.729 -0.7464  0.1434  1.7320
   68MOL    H9325687   7.519   2.849   3.984  0.6295 -0.8440  0.0415
   68MOL    H9425688   7.551   3.061   4.112 -2.0073  0.0043 -1.5038
   68MOL    H9525689   7.552   3.321   4.026  0.6208 -0.6337 -2.1110
   68MOL    H9625690   7.698   3.387   3.946  1.1555 -1.1135 -0.3842
   68MOL    C9725691   7.643   3.488   4.131 -0.6383 -0.2042  0.5984
   68MOL    C9825692   7.658   3.463   4.277 -0.0843  0.6297  0.2725
   68MOL    C9925693   7.743   3.540   4.365 -0.3399 -0.0735  0.9639
   68MOL   C10025694   7.740   3.514   4.503  0.1467  0.8437 -0.3333
   68MOL   C10125695   7.657   3.413   4.554 -0.3846  0.1838 -0.3877
   68MOL   C10225696   7.653   3.384   4.700  0.6252  0.4235  0.6343
   68MOL   C10325697   7.574   3.339   4.471 -0.0351 -0.3136 -0.1155
   68MOL   C10425698   7.568   3.371   4.333 -0.4030  0.5517  0.2633
   68MOL   C10525699   7.523   3.578   4.108 -0.7663  0.3819 -0.2744
   68MOL   H10625700   7.737   3.541   4.115 -1.7871  1.7405  0.1322
   68MOL   H10725701   7.799   3.620   4.320 -0.0380 -1.6314 -1.5294
   68MOL   H10825702   7.800   3.567   4.576 -0.1876 -1.8758  2.0559
   68MOL   H10925703   7.554   3.378   4.745  0.3207  2.1369  0.2296
   68MOL   H11025704   7.698   3.286   4.716  0.0582  0.1559  0.6071
   68MOL   H11125705   7.720   3.448   4.757  0.1031  1.2229  0.3630
   68MOL   H11225706   7.517   3.259   4.516 -2.0016  1.0739 -0.0703
   68MOL   H11325707   7.503   3.320   4.263  0.4509  0.2439 -0.3119
   68MOL   H11425708   7.533   3.660   4.179 -0.8459 -1.2812  1.6875
   68MOL   H11525709   7.425   3.534   4.128  0.0781 -1.6326 -0.5447
   68MOL   C11625710   7.519   3.650   3.968  0.6942  0.0243 -0.2610
   68MOL   C11725711   7.637   3.744   3.934  0.1469  0.8124  0.0062
   68MOL   C11825712   7.687   3.845   4.020  0.8431 -0.0549  0.1180
   68MOL   C11925713   7.811   3.908   3.986  1.4745  0.5207 -0.0766
   68MOL   C12025714   7.867   3.893   3.858  0.2005 -0.0650 -0.3155
   68MOL   C12125715   7.985   3.981   3.817 -0.6148 -0.2103 -0.1638
   68MOL   C12225716   7.813   3.797   3.767  0.0291 -0.9056 -0.1721
   68MOL   C12325717   7.694   3.726   3.804 -0.0858  0.4993 -0.0164
   68MOL   C12425718   7.378   3.709   3.939  0.2187 -0.4834 -0.7263
   68MOL   H12525719   7.541   3.565   3.904  0.1119 -0.1478 -0.2339
   68MOL   H12625720   7.647   3.861   4.119 -0.3296 -0.7920 -0.2302
   68MOL   H12725721   7.857   3.981   4.052  0.6147  1.2900 -0.3135
   68MOL   H12825722   8.028   4.020   3.908 -1.6470 -1.7016  0.9880
   68MOL   H12925723   8.056   3.918   3.764 -1.3294  0.3588 -1.8419
   68MOL   H13025724   7.959   4.061   3.747  0.3588  1.6037  1.5284
   68MOL   H13125725   7.851   3.779   3.667  0.0782 -1.9046  0.0231
   68MOL   H13225726   7.656   3.645   3.742  1.1499 -0.2226  0.1468
   68MOL   H13325727   7.369   3.809   3.983  3.1874 -0.4210 -0.1939
   68MOL   H13425728   7.293   3.674   3.997 -0.3084 -0.4187 -1.4416
   68MOL   C13525729   7.347   3.727   3.784 -0.2690  0.8837 -0.0196
   68MOL   C13625730   7.354   3.869   3.723 -0.7040 -0.6938 -0.2939
   68MOL   C13725731   7.455   3.901   3.630 -0.0735 -0.0726 -0.1620
   68MOL   C13825732   7.458   4.026   3.570 -0.8646  0.6587  0.1578
   68MOL   C13925733   7.370   4.131   3.607 -0.2822 -1.1791  0.3928
   68MOL   C14025734   7.373   4.261   3.524  0.5472 -0.4400 -0.2310
   68MOL   C14125735   7.271   4.105   3.700 -0.6193 -0.2847  0.1320
   68MOL   C14225736   7.256   3.971   3.757  0.2396  0.4893 -0.1692
   68MOL   C14325737   7.210   3.655   3.757  0.1900  0.3867 -0.8616
   68MOL   H14425738   7.413   3.667   3.722 -0.3901  2.0329 -1.2765
   68MOL   H14525739   7.525   3.827   3.595 -0.1815 -0.6073  0.7192
   68MOL   H14625740   7.530   4.038   3.491 -0.8510 -0.4573 -0.0071
   68MOL   H14725741   7.370   4.352   3.585  0.6188  1.4336 -2.9153
   68MOL   H14825742   7.465   4.267   3.466  1.7462  0.1561  1.6737
   68MOL   H14925743   7.279   4.253   3.469 -0.1836  3.7095  0.2286
   68MOL   H15025744   7.190   4.175   3.708 -1.4545 -1.4409  2.2449
   68MOL   H15125745   7.171   3.951   3.822  1.2738 -1.9162  0.4853
   68MOL   H15225746   7.181   3.672   3.653 -1.6205 -2.1997 -0.8391
   68MOL   H15325747   7.133   3.704   3.815  0.8232 -0.8668  1.0958
   68MOL   C15425748   7.198   3.505   3.792 -0.6764  0.1180  0.0397
   68MOL   C15525749   7.295   3.418   3.716  0.7053 -0.4048  0.1042
   68MOL   C15625750   7.372   3.319   3.785  0.2167  0.1881 -1.1793
   68MOL   C15725751   7.447   3.219   3.717 -0.1409  0.1594 -0.1491
   68MOL   C15825752   7.444   3.221   3.576  0.1680  0.1253 -0.9962
   68MOL   C15925753   7.524   3.118   3.501  0.0606  0.3879 -0.8475
   68MOL   C16025754   7.370   3.322   3.508  0.8594 -1.0098  0.3876
   68MOL   C16125755   7.294   3.424   3.578 -0.1677 -0.1178  0.4242
   68MOL   C16225756   7.052   3.453   3.774 -0.1944  0.0046  0.2995
   68MOL   H16325757   7.219   3.490   3.898 -1.0972 -0.2323  0.0720
   68MOL   H16425758   7.373   3.317   3.893 -0.4010  1.7289 -1.1328
   68MOL   H16525759   7.517   3.153   3.765  2.3312  2.7505 -0.0271
   68MOL   H16625760   7.510   3.123   3.393  1.1628  3.1346 -0.9190
   68MOL   H16725761   7.623   3.138   3.542 -0.6540 -1.4326  1.8402
   68MOL   H16825762   7.505   3.019   3.542  0.7241  0.2722 -0.8169
   68MOL   H16925763   7.370   3.328   3.400  0.3000  1.6078  0.4822
   68MOL   H17025764   7.243   3.490   3.510  1.0236 -0.7050 -1.0764
   68MOL   H17125765   7.039   3.429   3.668 -1.6621 -0.7326  0.6319
   68MOL   H17225766   6.990   3.537   3.805 -0.5430 -0.5586  1.1275
   68MOL   C17325767   7.016   3.333   3.850 -0.1859  0.2509  0.5542
   68MOL   C17425768   6.907   3.253   3.785  0.0847 -0.9801 -0.0496
   68MOL   C17525769   6.787   3.309   3.732  0.2957 -0.3794 -0.2357
   68MOL   C17625770   6.694   3.224   3.663  0.4883 -0.2612 -0.7530
   68MOL   C17725771   6.727   3.088   3.653  0.2573  0.1255  0.1165
   68MOL   C17825772   6.630   3.005   3.565  0.4549  0.6098 -0.0299
   68MOL   C17925773   6.845   3.032   3.704  0.7061  0.3119  0.1451
   68MOL   C18025774   6.932   3.118   3.774  0.9088  0.1912  1.1058
   68MOL   C18125775   6.972   3.371   4.000  0.3148  0.0027  0.1284
   68MOL   H18225776   7.103   3.268   3.857 -1.3989 -1.1169  4.1871
   68MOL   H18325777   6.768   3.413   3.757 -0.5322 -0.2950 -1.1644
   68MOL   H18425778   6.605   3.260   3.612  0.1459 -0.2210 -0.1281
   68MOL   H18525779   6.666   2.902   3.572 -0.5980  0.2655  0.3494
   68MOL   H18625780   6.538   3.005   3.623 -0.7076  1.9412 -1.8337
   68MOL   H18725781   6.615   3.052   3.468 -0.8931  0.6408  0.1839
   68MOL   H18825782   6.850   2.925   3.705 -0.9955  0.2329  1.3494
   68MOL   H18925783   7.021   3.068   3.808  0.1444 -2.7571 -0.9666
   68MOL   H19025784   6.871   3.330   4.010  0.2252  0.4184  0.9598
   68MOL   H19125785   6.962   3.479   4.012 -1.1876 -0.2175  0.9833
   68MOL   C19225786   7.041   3.311   4.122  0.6398  0.6038  0.3138
   68MOL   C19325787   7.079   3.163   4.102  0.3813 -0.0125  0.4385
   68MOL   C19425788   6.979   3.059   4.097  0.0907 -0.5234 -0.1514
   68MOL   C19525789   7.011   2.927   4.057  0.3079 -0.3122 -0.8074
   68MOL   C19625790   7.145   2.895   4.023 -0.4240  0.2589 -0.0757
   68MOL   C19725791   7.187   2.753   3.985  0.2565  0.0938 -0.1676
   68MOL   C19825792   7.241   2.997   4.028  0.3301 -0.5543  0.1346
   68MOL   C19925793   7.216   3.128   4.071  0.2080 -0.4528  0.6656
   68MOL   C20025794   6.961   3.332   4.256 -0.0456  0.0508  0.1910
   68MOL   H20125795   7.136   3.365   4.123  1.3496 -0.6283  1.1217
   68MOL   H20225796   6.875   3.086   4.105 -0.0134 -0.7291 -0.7372
   68MOL   H20325797   6.934   2.855   4.038 -0.7415  0.5386  0.1442
   68MOL   H20425798   7.175   2.727   3.880  0.3391  0.4536 -0.2640
   68MOL   H20525799   7.287   2.733   4.022  0.0668 -0.9403 -0.1760
   68MOL   H20625800   7.110   2.685   4.025 -1.2884  0.6587 -2.0925
   68MOL   H20725801   7.345   2.974   4.008  0.4440 -2.6496  2.6952
   68MOL   H20825802   7.295   3.202   4.069  0.6367 -0.7913  3.4695
   68MOL   H20925803   7.015   3.278   4.334 -1.3547 -0.3426  0.8466
   68MOL   H21025804   6.872   3.269   4.247  1.2305 -1.9702  1.2119
   68MOL   C21125805   6.919   3.478   4.289  0.6371 -0.0369 -0.0412
   68MOL   C21225806   7.024   3.583   4.285  0.2054 -0.4654  0.1585
   68MOL   C21325807   7.153   3.549   4.333  0.6937  0.6610 -0.0186
   68MOL   C21425808   7.259   3.648   4.349  0.3347 -0.2133  0.2341
   68MOL   C21525809   7.232   3.782   4.319 -0.0310  1.0595  0.1377
   68MOL   C21625810   7.344   3.879   4.348  0.0374  0.2269 -0.1172
   68MOL   C21725811   7.103   3.816   4.260  0.2081  0.5217 -0.2240
   68MOL   C21825812   6.999   3.721   4.245  0.1726 -0.5892  0.5877
   68MOL   C21925813   6.832   3.483   4.416  0.1570 -0.9207 -0.1629
   68MOL   H22025814   6.846   3.502   4.211 -0.0919  1.2880  1.0126
   68MOL   H22125815   7.171   3.448   4.365 -0.0773  0.0985 -1.3402
   68MOL   H22225816   7.349   3.605   4.391  1.3194 -0.3355 -1.9363
   68MOL   H22325817   7.431   3.822   4.382  0.9206  0.3324 -2.1409
   68MOL   H22425818   7.383   3.934   4.262 -0.9318  0.1634 -0.5962
   68MOL   H22525819   7.320   3.947   4.430  1.2059 -0.3814  0.7501
   68MOL   H22625820   7.094   3.914   4.216  3.8318  1.3591  0.6511
   68MOL   H22725821   6.900   3.737   4.205  1.1859 -1.3054 -2.3861
   68MOL   H22825822   6.845   3.586   4.450  0.8055 -1.0733  0.0792
   68MOL   H22925823   6.891   3.436   4.496 -0.6181  2.1374  2.2889
   68MOL   C23025824   6.684   3.431   4.414 -0.0019 -0.5590 -0.9188
   68MOL   C23125825   6.580   3.526   4.358  0.8368  0.7202  0.2835
   68MOL   C23225826   6.537   3.516   4.225 -0.3477  0.4184 -0.0607
   68MOL   C23325827   6.437   3.603   4.175  0.7352 -0.5030  0.7277
   68MOL   C23425828   6.366   3.696   4.252 -0.3299 -0.0970  0.8690
   68MOL   C23525829   6.253   3.779   4.194  0.7806  0.3163 -0.2878
   68MOL   C23625830   6.406   3.697   4.386  0.2857 -0.6959 -0.0247
   68MOL   C23725831   6.504   3.614   4.444  0.4249 -0.0149 -0.2768
   68MOL   C23825832   6.650   3.387   4.558  0.2688 -0.4672  0.0886
   68MOL   H23925833   6.671   3.345   4.348  2.2811 -0.4722 -1.5501
   68MOL   H24025834   6.588   3.452   4.155 -1.9808  0.9167 -1.7420
   68MOL   H24125835   6.411   3.602   4.070 -0.3386 -2.4373  0.9904
   68MOL   H24225836   6.159   3.742   4.237  1.6599  1.1892  2.5353
   68MOL   H24325837   6.265   3.886   4.207 -0.0274  0.3923 -0.1397
   68MOL   H24425838   6.259   3.758   4.088 -2.1428 -0.9491 -0.2767
   68MOL   H24525839   6.346   3.746   4.461  1.9383  3.0815 -1.0517
   68MOL   H24625840   6.516   3.608   4.551 -1.3120  1.9257  0.0371
   68MOL   H24725841   6.542   3.375   4.565  0.1128  2.0782  2.6440
   68MOL   H24825842   6.672   3.465   4.630  2.5140 -0.5844 -0.4282
   68MOL   C24925843   6.715   3.255   4.621 -0.2152  0.3041  0.3388
   68MOL   C25025844   6.698   3.130   4.533 -0.3589 -0.1388  0.4853
   68MOL   C25125845   6.570   3.084   4.509  0.2034  0.3703 -0.1297
   68MOL   C25225846   6.555   2.969   4.426 -0.3282 -0.5290  0.6386
   68MOL   C25325847   6.664   2.914   4.367  0.1993  0.3005 -0.0025
   68MOL   C25425848   6.652   2.785   4.287  0.2002  0.4527  0.7688
   68MOL   C25525849   6.794   2.962   4.388 -0.6713 -1.0828  0.5782
   68MOL   C25625850   6.814   3.075   4.474  0.0248 -0.8788  0.5448
   68MOL   C25725851   6.654   3.229   4.762 -0.2737  0.1113  0.3246
   68MOL   H25825852   6.823   3.259   4.630 -0.0386 -0.5857 -1.3303
   68MOL   H25925853   6.485   3.125   4.560 -0.9845  1.9951 -3.2951
   68MOL   H26025854   6.457   2.924   4.417 -0.0753 -0.9601  0.0547
   68MOL   H26125855   6.737   2.719   4.305 -0.9162 -0.9056  1.0961
   68MOL   H26225856   6.559   2.730   4.298 -0.0110  0.4247 -1.0994
   68MOL   H26325857   6.665   2.818   4.184 -0.2625  0.2741  0.6544
   68MOL   H26425858   6.881   2.921   4.340 -0.7415 -1.5175  0.8181
   68MOL   H26525859   6.906   3.128   4.491  0.9520 -3.1698  3.0094
   68MOL   H26625860   6.683   3.132   4.802 -0.6210  0.0947  0.5421
   68MOL   H26725861   6.545   3.224   4.762 -0.2940 -0.9364 -3.0153
   68MOL   C26825862   6.694   3.335   4.867 -1.3666 -0.2996 -0.6417
   68MOL   C26925863   6.844   3.335   4.869 -0.7780 -0.3675  0.2978
   68MOL   C27025864   6.915   3.453   4.845  0.0182  0.2642  0.4253
   68MOL   C27125865   7.058   3.453   4.847  0.2247  0.2336 -0.8036
   68MOL   C27225866   7.129   3.336   4.866 -0.0862  0.3286 -0.1442
   68MOL   C27325867   7.280   3.332   4.866  0.3574 -0.3249 -0.2437
   68MOL   C27425868   7.061   3.218   4.890 -0.6235  0.0437 -0.1818
   68MOL   C27525869   6.922   3.215   4.883 -0.0661  0.5176  0.1406
   68MOL   C27625870   6.648   3.313   5.013 -0.4659 -0.0619 -0.9590
   68MOL   H27725871   6.674   3.440   4.845  1.6001  0.6086  0.6500
   68MOL   H27825872   6.869   3.550   4.834 -2.0269 -0.6262  0.8811
   68MOL   H27925873   7.117   3.543   4.837  0.2870 -0.0359 -3.0250
   68MOL   H28025874   7.320   3.262   4.939 -1.1565  1.1244  2.0489
   68MOL   H28125875   7.326   3.308   4.770 -0.4035  2.0055 -1.2164
   68MOL   H28225876   7.330   3.429   4.869 -0.9071  0.4035 -2.0952
   68MOL   H28325877   7.111   3.129   4.924  0.0271 -0.1957 -1.7542
   68MOL   H28425878   6.874   3.120   4.902  0.0768  0.2404 -0.8569
   68MOL   H28525879   6.698   3.380   5.082 -0.0504 -1.4641  0.1228
   68MOL   H28625880   6.690   3.216   5.041 -0.6313  0.2198  0.2671
   68MOL   C28725881   6.493   3.314   5.030 -0.5719 -0.3092 -0.1360
   68MOL   C28825882   6.431   3.448   4.979  0.0149  0.1781 -0.2135
   68MOL   C28925883   6.319   3.452   4.892  0.5215 -0.5388  0.0005
   68MOL   C29025884   6.278   3.575   4.835  0.1173  0.3409 -0.7667
   68MOL   C29125885   6.353   3.690   4.862 -0.0983 -0.0093 -0.0635
   68MOL   C29225886   6.335   3.814   4.786 -0.2539  0.0798 -0.3644
   68MOL   C29325887   6.456   3.685   4.954 -0.3886 -1.1681  0.9536
   68MOL   C29425888   6.493   3.563   5.015  1.0856  0.0405  0.3106
   68MOL   C29525889   6.450   3.292   5.179 -0.1170  0.7157  0.4076
   68MOL   H29625890   6.455   3.237   4.963 -0.9375  1.7163 -2.3328
   68MOL   H29725891   6.279   3.358   4.856 -0.7292  0.3750 -1.0536
   68MOL   H29825892   6.196   3.560   4.765 -1.7040  2.3896  0.8505
   68MOL   H29925893   6.231   3.831   4.757 -0.7892  0.3829  1.6344
   68MOL   H30025894   6.365   3.906   4.836  0.8262 -1.2355  1.4628
   68MOL   H30125895   6.397   3.806   4.697  0.8402 -2.1410  0.5557
   68MOL   H30225896   6.510   3.775   4.982 -1.7553  1.0270 -3.0329
   68MOL   H30325897   6.572   3.561   5.088  1.9008 -0.5876 -0.5701
   68MOL   H30425898   6.341   3.299   5.188 -0.2971  1.7243 -2.0136
   68MOL   H30525899   6.468   3.386   5.230 -0.0804  0.3627  1.0538
   68MOL   C30625900   6.508   3.171   5.252 -0.0305 -0.3377 -0.4485
   68MOL   C30725901   6.523   3.045   5.158 -0.3528  0.6549  0.0156
   68MOL   C30825902   6.418   3.012   5.072  0.1794 -1.0855 -0.8561
   68MOL   C30925903   6.434   2.903   4.977 -0.1944  0.5181  0.1629
   68MOL   C31025904   6.549   2.824   4.977 -0.6042 -0.2221  0.6956
   68MOL   C31125905   6.571   2.710   4.878  0.0253  0.5515  0.1086
   68MOL   C31225906   6.653   2.860   5.062  0.8105  0.5969  0.2893
   68MOL   C31325907   6.640   2.964   5.156 -0.1402 -0.3810 -0.0806
   68MOL   C31425908   6.447   3.147   5.390  0.7219 -0.3602  0.4512
   68MOL   H31525909   6.607   3.204   5.280 -0.6053 -0.2900  1.5971
   68MOL   H31625910   6.323   3.059   5.088 -0.3280 -1.8809 -1.5049
   68MOL   H31725911   6.351   2.875   4.914  0.3016  2.2309 -1.2782
   68MOL   H31825912   6.608   2.630   4.942 -0.8086  0.3151  0.2980
   68MOL   H31925913   6.484   2.659   4.837 -1.8744  2.8859  1.0939
   68MOL   H32025914   6.658   2.718   4.814  1.2645  1.8100  1.8978
   68MOL   H32125915   6.732   2.787   5.071  0.4891 -0.0831 -2.0931
   68MOL   H32225916   6.731   2.980   5.212  0.2535  0.0850 -0.8381
   68MOL   H32325917   6.363   3.078   5.386  0.4988  0.0303 -2.7895
   68MOL   H32425918   6.395   3.238   5.420  0.9846  0.4493 -1.4323
   68MOL   C32525919   6.550   3.116   5.516  0.0824 -0.0242 -1.2049
   68MOL   C32625920   6.586   2.969   5.532  0.2935 -0.2165 -0.3579
   68MOL   C32725921   6.719   2.931   5.551 -0.6490  0.1265 -0.8166
   68MOL   C32825922   6.761   2.793   5.559 -0.2829  0.5200  0.2179
   68MOL   C32925923   6.663   2.694   5.567  0.1710 -0.2936 -0.7750
   68MOL   C33025924   6.688   2.552   5.594  0.1801 -0.0923 -0.2242
   68MOL   C33125925   6.525   2.733   5.549  0.2697  0.5090 -0.0085
   68MOL   C33225926   6.492   2.873   5.529 -0.1114  0.2809  0.2402
   68MOL   C33325927   6.488   3.171   5.649 -0.0178  0.6045 -0.7885
   68MOL   H33425928   6.644   3.171   5.510  1.6583 -2.4267  0.9190
   68MOL   H33525929   6.799   3.003   5.556 -0.9141  0.4769 -1.5406
   68MOL   H33625930   6.868   2.778   5.558 -0.2539  0.7190 -1.1644
   68MOL   H33725931   6.597   2.506   5.633 -0.2509  1.0697  0.1781
   68MOL   H33825932   6.721   2.520   5.496  0.3042 -0.1297 -0.1692
   68MOL   H33925933   6.778   2.519   5.644  0.4481 -0.7289 -1.1260
   68MOL   H34025934   6.451   2.656   5.559 -1.0883  1.7038 -0.7565
   68MOL   H34125935   6.387   2.897   5.522 -0.3388 -0.9409 -0.7919
   68MOL   H34225936   6.525   3.122   5.739 -0.5400 -1.5615 -1.7306
   68MOL   H34325937   6.381   3.153   5.644 -0.3418  1.9335  1.0843
   68MOL   C34425938   6.513   3.320   5.670  0.6552  0.2664 -0.0202
   68MOL   C34525939   6.657   3.358   5.691 -0.4516 -0.4251  0.2593
   68MOL   C34625940   6.728   3.293   5.799 -0.6419 -0.6043  0.5513
   68MOL   C34725941   6.865   3.313   5.820  0.5502  0.0064  0.7725
   68MOL   C34825942   6.933   3.393   5.722  0.6517  0.2073 -0.5385
   68MOL   C34925943   7.083   3.409   5.736  0.7996 -0.8000  0.5826
   68MOL   C35025944   6.866   3.461   5.618  0.3504 -0.4657  0.2851
   68MOL   C35125945   6.727   3.439   5.600  0.2423 -0.3559  0.3799
   68MOL   C35225946   6.432   3.372   5.790 -0.1988  0.2822 -0.4163
   68MOL   H35325947   6.475   3.380   5.587  0.7026  0.5609  0.1703
   68MOL   H35425948   6.667   3.228   5.859 -1.0079 -1.1645 -0.4194
   68MOL   H35525949   6.922   3.271   5.901  1.4453  0.5960  0.4563
   68MOL   H35625950   7.128   3.323   5.786  0.2090 -0.9968  0.7704
   68MOL   H35725951   7.134   3.419   5.640  0.3325  0.4051  0.4451
   68MOL   H35825952   7.098   3.499   5.797 -0.2141 -1.2252  1.4799
   68MOL   H35925953   6.922   3.527   5.554 -0.2848  0.4253  0.6521
   68MOL   H36025954   6.672   3.479   5.516 -1.4314 -1.5445  0.8992
   68MOL   H36125955   6.467   3.476   5.790  1.2203 -0.1814 -0.2895
   68MOL   H36225956   6.474   3.337   5.884  4.0678  2.9836 -1.1568
   68MOL   C36325957   6.274   3.369   5.782 -0.2046 -0.5314 -0.3631
   68MOL   C36425958   6.221   3.402   5.640 -0.1032  0.1979  0.1859
   68MOL   C36525959   6.139   3.314   5.563 -0.4449 -0.4228 -0.8071
   68MOL   C36625960   6.093   3.361   5.441  0.0247  0.0838  0.4555
   68MOL   C36725961   6.121   3.488   5.386  0.0706  0.3614 -0.0253
   68MOL   C36825962   6.066   3.531   5.252  0.1667  0.7350  0.0851
   68MOL   C36925963   6.199   3.576   5.459  0.0201 -0.0597 -1.2981
   68MOL   C37025964   6.245   3.533   5.588 -0.1418  0.0019 -0.3269
   68MOL   C37125965   6.213   3.461   5.881  0.3635 -0.2924  0.0708
   68MOL   H37225966   6.240   3.267   5.801 -0.9910 -0.3242 -0.6521
   68MOL   H37325967   6.114   3.213   5.591 -0.3212  0.0575  1.0977
   68MOL   H37425968   6.042   3.286   5.383  0.8693 -1.3183  1.4847
   68MOL   H37525969   5.961   3.556   5.245 -0.5740 -1.4849  2.5453
   68MOL   H37625970   6.131   3.610   5.212  0.8771  1.2454  2.2109
   68MOL   H37725971   6.080   3.449   5.182  0.2601  0.9809 -0.1876
   68MOL   H37825972   6.209   3.677   5.424  0.5349  0.1096 -0.6671
   68MOL   H37925973   6.313   3.594   5.647 -0.6484  1.7450 -1.5124
   68MOL   H38025974   6.225   3.569   5.865 -0.7377 -0.2689 -0.6848
   68MOL   H38125975   6.257   3.441   5.978 -0.0594 -1.6684 -0.0151
   68MOL   H38225976   6.108   3.435   5.894 -0.2227  3.3087  3.4748
   69MOL     C125977   4.200   1.047   3.708  0.5291 -0.1636 -0.5063
   69MOL     C225978   4.131   0.925   3.678  0.9914  0.4924  0.0574
   69MOL     C325979   4.156   0.870   3.552 -0.3680 -0.4462  0.2417
   69MOL     C425980   4.095   0.748   3.517  1.1983  0.3585  0.1588
   69MOL     C525981   3.995   0.698   3.601  0.2027  0.9153  0.0475
   69MOL     C625982   3.921   0.575   3.565 -0.2501 -0.2938  0.3300
   69MOL     C725983   3.970   0.749   3.725  0.2390  0.0863 -1.4954
   69MOL     C825984   4.044   0.864   3.769  0.3881  0.2790  0.2783
   69MOL     C925985   4.106   1.159   3.759 -0.8042  0.2029 -0.3704
   69MOL    H1025986   4.272   1.019   3.785 -0.8741 -0.8189  0.5837
   69MOL    H1125987   4.237   0.914   3.496  1.1390 -3.1634  0.2084
   69MOL    H1225988   4.115   0.707   3.419 -4.7783 -0.0532 -1.0680
   69MOL    H1325989   3.975   0.519   3.488  0.2301 -2.5402  2.2657
   69MOL    H1425990   3.900   0.517   3.654  1.9593  0.3429  1.3007
   69MOL    H1525991   3.826   0.595   3.515 -0.9846 -0.2950  1.7053
   69MOL    H1625992   3.894   0.718   3.795  0.7246 -1.1595 -1.4987
   69MOL    H1725993   4.025   0.899   3.870  1.6084 -1.1580  1.0296
   69MOL    H1825994   4.066   1.124   3.854  2.2129  3.0554  2.0639
   69MOL    H1925995   4.020   1.181   3.696 -0.3538  2.4381 -0.2334
   69MOL    H2025996   4.254   1.084   3.621  2.2370  0.0182  0.5990
   69MOL    C2125997   4.184   1.291   3.779  0.2105 -0.1083 -0.3784
   69MOL    C2225998   4.114   1.393   3.880 -0.4538 -0.2875  0.5901
   69MOL    C2325999   3.979   1.425   3.865  0.3791 -0.3567  0.5672
   69MOL    C2426000   3.918   1.520   3.950  0.6105  0.4553 -0.0968
   69MOL    C2526001   3.992   1.571   4.058 -0.5953 -0.0036 -0.0697
   69MOL    C2626002   3.926   1.675   4.149  0.0868 -0.2808  0.2251
   69MOL    C2726003   4.130   1.541   4.080  0.6930 -0.1113  0.5490
   69MOL    C2826004   4.189   1.455   3.985 -0.2766  0.6031 -0.2071
   69MOL    C2926005   4.227   1.370   3.651 -0.1957 -0.4427  0.0994
   69MOL    H3026006   4.278   1.258   3.822  0.3516 -0.8386 -1.2268
   69MOL    H3126007   3.919   1.375   3.789  2.8826 -2.3502 -0.1652
   69MOL    H3226008   3.822   1.563   3.924  0.3137 -0.4832 -0.5764
   69MOL    H3326009   3.862   1.630   4.226 -2.5520  1.9913 -0.5713
   69MOL    H3426010   4.003   1.739   4.191 -0.0031  1.1123 -1.7022
   69MOL    H3526011   3.860   1.741   4.093 -2.2903 -1.7133  1.2413
   69MOL    H3626012   4.183   1.574   4.169  0.7325 -0.2265  0.5683
   69MOL    H3726013   4.296   1.442   3.998 -0.4168 -0.9172 -0.4569
   69MOL    H3826014   4.221   1.478   3.656 -0.1275 -0.4029 -0.5279
   69MOL    H3926015   4.154   1.340   3.576 -2.1397 -1.5506  2.3721
   69MOL    C4026016   4.373   1.336   3.594 -0.0737  0.0581  0.1108
   69MOL    C4126017   4.491   1.391   3.677 -1.3787 -0.2082 -0.4981
   69MOL    C4226018   4.594   1.311   3.735 -0.5925 -0.0365  0.0730
   69MOL    C4326019   4.696   1.368   3.809  0.3213  0.2152 -0.4898
   69MOL    C4426020   4.698   1.507   3.838 -0.6585  0.5943 -0.4835
   69MOL    C4526021   4.817   1.562   3.921  0.6386 -0.2190 -0.2247
   69MOL    C4626022   4.596   1.584   3.788 -0.2965 -0.2310  0.3734
   69MOL    C4726023   4.501   1.530   3.695 -1.0986  0.3722 -0.5112
   69MOL    C4826024   4.387   1.382   3.449 -0.2532 -0.7408  0.2403
   69MOL    H4926025   4.388   1.228   3.601 -2.0099 -0.2354  0.0194
   69MOL    H5026026   4.599   1.204   3.721  3.1391  0.0093  0.7707
   69MOL    H5126027   4.772   1.304   3.849 -0.4648  0.3220  1.2244
   69MOL    H5226028   4.907   1.564   3.859  0.6356 -0.6909 -0.2505
   69MOL    H5326029   4.803   1.658   3.969  0.3186  0.4043 -1.5544
   69MOL    H5426030   4.842   1.500   4.007 -2.0304  1.3405  1.7539
   69MOL    H5526031   4.583   1.690   3.808 -2.4840 -0.4975  0.4233
   69MOL    H5626032   4.425   1.593   3.652 -1.2142  1.1568  0.8197
   69MOL    H5726033   4.378   1.490   3.454 -1.8895 -0.8186 -0.6233
   69MOL    H5826034   4.305   1.339   3.391 -1.7042  0.8556  1.0964
   69MOL    C5926035   4.520   1.353   3.386 -0.2137 -0.4775  0.3295
   69MOL    C6026036   4.540   1.428   3.247 -0.2930 -0.7330 -0.3221
   69MOL    C6126037   4.644   1.522   3.240  0.0037  0.0683 -0.6915
   69MOL    C6226038   4.652   1.607   3.129  0.2941  0.6533  1.1010
   69MOL    C6326039   4.564   1.588   3.023  0.4659  0.2508 -0.3577
   69MOL    C6426040   4.577   1.678   2.901  0.0659  0.2360  0.1538
   69MOL    C6526041   4.462   1.489   3.025 -0.2455 -0.1732  0.2369
   69MOL    C6626042   4.451   1.407   3.144 -0.7229  0.2158  0.4464
   69MOL    C6726043   4.554   1.206   3.368 -0.5955  0.1134 -0.3908
   69MOL    H6826044   4.594   1.393   3.455 -1.4108  0.7653  0.9223
   69MOL    H6926045   4.707   1.541   3.325 -0.9319 -0.7101  0.1997
   69MOL    H7026046   4.722   1.689   3.138 -1.4826  2.6089 -2.2655
   69MOL    H7126047   4.626   1.634   2.815  1.2346  2.1376 -0.1578
   69MOL    H7226048   4.477   1.701   2.863  1.3646  1.4737 -2.5701
   69MOL    H7326049   4.623   1.771   2.932  0.6844  1.5990 -4.4933
   69MOL    H7426050   4.397   1.473   2.940 -1.5645 -0.7394  1.3314
   69MOL    H7526051   4.369   1.339   3.154  0.3130 -1.1314 -0.0716
   69MOL    H7626052   4.471   1.159   3.315  0.2767  0.2551 -1.8869
   69MOL    H7726053   4.544   1.168   3.470  0.7829  0.4258 -0.1318
   69MOL    C7826054   4.673   1.161   3.291  0.0660 -0.1746  0.3348
   69MOL    C7926055   4.663   1.018   3.250  0.5034  0.1476 -0.3246
   69MOL    C8026056   4.671   0.981   3.117 -0.1465  0.4351 -0.0615
   69MOL    C8126057   4.648   0.846   3.082  0.3131 -0.6133 -0.0640
   69MOL    C8226058   4.615   0.747   3.178 -0.3522  0.3954  0.9818
   69MOL    C8326059   4.577   0.608   3.123  0.1021  0.1128  0.4773
   69MOL    C8426060   4.606   0.788   3.315  0.9517  0.7162  0.5966
   69MOL    C8526061   4.627   0.923   3.351 -0.4855  0.3626 -0.6035
   69MOL    C8626062   4.808   1.193   3.356  0.2658  0.2751  0.1682
   69MOL    H8726063   4.658   1.214   3.197  2.1442 -1.2177 -0.6118
   69MOL    H8826064   4.703   1.052   3.042  0.1621  1.7137  1.2749
   69MOL    H8926065   4.653   0.815   2.978 -0.4290 -0.1574 -0.2395
   69MOL    H9026066   4.613   0.596   3.020 -0.4028 -2.4496  0.5682
   69MOL    H9126067   4.618   0.531   3.188  1.2167  0.8447  0.6711
   69MOL    H9226068   4.468   0.611   3.120  0.0605  0.1623  2.0372
   69MOL    H9326069   4.582   0.710   3.385 -0.3774  0.4163 -0.1512
   69MOL    H9426070   4.623   0.950   3.455 -0.4191  0.8325 -0.7187
   69MOL    H9526071   4.834   1.122   3.435 -2.4398 -0.6850  0.2181
   69MOL    H9626072   4.796   1.289   3.406 -0.2012 -0.6853  1.9368
   69MOL    C9726073   4.932   1.206   3.270  0.5256 -0.3394 -0.0781
   69MOL    C9826074   5.049   1.229   3.360 -0.4666 -0.5754  0.0041
   69MOL    C9926075   5.066   1.350   3.430 -0.3002 -0.1434  0.2756
   69MOL   C10026076   5.172   1.374   3.522  1.2974  0.0659  0.9150
   69MOL   C10126077   5.260   1.269   3.550 -0.0876 -0.4850 -0.3444
   69MOL   C10226078   5.383   1.287   3.631 -0.3646 -0.1749  0.4746
   69MOL   C10326079   5.234   1.142   3.490  0.4693 -0.0492  0.1120
   69MOL   C10426080   5.134   1.123   3.388 -0.5032  0.1846 -0.7241
   69MOL   C10526081   4.920   1.320   3.166  0.0123 -0.3227  0.4802
   69MOL   H10626082   4.936   1.108   3.222 -3.0694 -0.3292 -0.5441
   69MOL   H10726083   5.002   1.436   3.420 -1.3668 -0.9740 -0.0965
   69MOL   H10826084   5.195   1.468   3.569  0.1278  1.7706 -1.7860
   69MOL   H10926085   5.448   1.364   3.590 -2.4572 -0.2351 -3.2037
   69MOL   H11026086   5.363   1.328   3.729 -1.7834  1.2736 -0.4089
   69MOL   H11126087   5.436   1.191   3.632  0.2186  0.1409  0.0732
   69MOL   H11226088   5.294   1.058   3.524 -1.1042 -0.7486  1.2201
   69MOL   H11326089   5.128   1.025   3.344  2.0842 -0.2038 -0.3381
   69MOL   H11426090   4.895   1.414   3.215  0.1137  0.2681 -0.5723
   69MOL   H11526091   4.832   1.313   3.101 -1.3299 -0.2907  2.2590
   69MOL   C11626092   5.036   1.350   3.072  0.5617  0.7806 -0.1544
   69MOL   C11726093   5.029   1.484   3.014 -1.1847 -0.1640 -0.7610
   69MOL   C11826094   5.103   1.589   3.081  0.6000  0.2004 -0.1352
   69MOL   C11926095   5.079   1.724   3.050 -0.6119  0.4625 -0.1787
   69MOL   C12026096   4.990   1.750   2.948 -0.4545 -0.6758  0.2012
   69MOL   C12126097   4.946   1.892   2.910 -0.0559 -0.2637  0.3483
   69MOL   C12226098   4.929   1.649   2.874 -0.8574  0.1613 -0.1640
   69MOL   C12326099   4.937   1.516   2.909  0.8582 -0.1480 -0.6538
   69MOL   C12426100   5.055   1.239   2.963  0.1448  0.0100 -0.8817
   69MOL   H12526101   5.123   1.343   3.137 -0.5457 -0.7171  1.2111
   69MOL   H12626102   5.162   1.561   3.167  0.6118 -0.8730 -0.4871
   69MOL   H12726103   5.124   1.805   3.106  1.5193 -1.5801  1.1679
   69MOL   H12826104   4.982   1.914   2.810  0.1096  1.3826  0.7581
   69MOL   H12926105   4.839   1.899   2.928  0.3036 -2.3213  3.9283
   69MOL   H13026106   4.994   1.955   2.985 -1.5128  1.4663 -0.1471
   69MOL   H13126107   4.854   1.670   2.799  0.3282 -1.6487 -1.8892
   69MOL   H13226108   4.878   1.443   2.856  1.1632 -0.8046 -0.1032
   69MOL   H13326109   4.962   1.227   2.908 -0.9247  0.3136  0.8353
   69MOL   H13426110   5.078   1.149   3.020 -0.2029 -0.9588 -2.2371
   69MOL   C13526111   5.170   1.270   2.855  0.4597 -0.0115  0.3169
   69MOL   C13626112   5.110   1.307   2.716  0.3981 -0.3478 -0.0040
   69MOL   C13726113   5.039   1.213   2.635 -0.5599 -0.5106 -0.3388
   69MOL   C13826114   4.978   1.260   2.513 -0.0912  0.1356  0.1696
   69MOL   C13926115   4.989   1.393   2.473  0.1849  0.0629  0.1312
   69MOL   C14026116   4.905   1.449   2.360 -0.0572 -0.6447  0.2608
   69MOL   C14126117   5.061   1.481   2.548 -1.6378 -0.0376  0.3983
   69MOL   C14226118   5.126   1.439   2.670 -0.2263  0.2042  0.3388
   69MOL   C14326119   5.262   1.152   2.836 -0.0865 -0.7646 -0.3529
   69MOL   H14426120   5.237   1.351   2.887  1.1958 -0.6198  0.3151
   69MOL   H14526121   5.016   1.111   2.662 -0.4762 -1.0704 -2.2791
   69MOL   H14626122   4.918   1.193   2.454 -0.9765  0.9963  0.0749
   69MOL   H14726123   4.955   1.446   2.264  1.5528 -2.3432  1.1181
   69MOL   H14826124   4.816   1.386   2.348  0.4704 -1.1853 -0.8569
   69MOL   H14926125   4.864   1.549   2.376  1.8925  0.9340 -3.9919
   69MOL   H15026126   5.069   1.588   2.533  0.2815 -0.0835  0.9250
   69MOL   H15126127   5.195   1.500   2.726 -0.4693 -0.4382  1.3560
   69MOL   H15226128   5.323   1.166   2.747 -2.2221 -0.8090 -1.8747
   69MOL   H15326129   5.196   1.070   2.806 -0.6962 -0.1006 -0.8553
   69MOL   C15426130   5.346   1.114   2.956 -0.1125 -0.0511 -0.6816
   69MOL   C15526131   5.415   1.235   3.020 -0.1462  0.5775  0.5367
   69MOL   C15626132   5.393   1.261   3.155  0.6734 -0.2841  0.3719
   69MOL   C15726133   5.448   1.373   3.217  0.1501 -0.1479 -0.2531
   69MOL   C15826134   5.525   1.461   3.143 -0.4407 -0.4509 -0.1701
   69MOL   C15926135   5.575   1.585   3.212  0.1005  0.8883 -1.0211
   69MOL   C16026136   5.551   1.435   3.004  0.1044  0.2034  0.3445
   69MOL   C16126137   5.493   1.322   2.943 -1.0597  0.0220  0.6712
   69MOL   C16226138   5.455   0.995   2.937  0.3545  0.1993 -0.9427
   69MOL   H16326139   5.277   1.078   3.032  0.8053  1.9700  1.1734
   69MOL   H16426140   5.330   1.187   3.202  1.2752  0.0747  1.7859
   69MOL   H16526141   5.424   1.379   3.323 -1.3796  1.0241 -0.6490
   69MOL   H16626142   5.622   1.650   3.138  0.1163  1.6389 -0.3494
   69MOL   H16726143   5.489   1.638   3.253 -1.3240 -1.8754 -0.2859
   69MOL   H16826144   5.639   1.557   3.296 -1.3753 -0.1135 -0.2229
   69MOL   H16926145   5.610   1.510   2.952  0.2169  0.1652  0.4176
   69MOL   H17026146   5.515   1.315   2.838 -2.2742 -0.2653  0.4306
   69MOL   H17126147   5.532   1.003   3.013 -0.7240 -1.4111  0.3451
   69MOL   H17226148   5.507   1.031   2.848  3.5959 -0.8732  0.4734
   69MOL   C17326149   5.384   0.856   2.922  0.1375  0.3047  0.1933
   69MOL   C17426150   5.273   0.827   3.027  0.5733 -0.2315  0.2856
   69MOL   C17526151   5.294   0.832   3.165 -0.4037 -0.4382  0.2765
   69MOL   C17626152   5.194   0.788   3.258 -0.1223 -0.2482  0.3428
   69MOL   C17726153   5.064   0.759   3.204 -0.3402  0.3633 -0.0945
   69MOL   C17826154   4.954   0.708   3.293 -0.8093 -0.0731  0.6464
   69MOL   C17926155   5.047   0.755   3.064  0.5543  0.1735 -0.0248
   69MOL   C18026156   5.147   0.799   2.972 -0.4719  0.5811 -0.0341
   69MOL   C18126157   5.481   0.737   2.938  0.5620  0.1727 -0.0566
   69MOL   H18226158   5.341   0.850   2.822  0.3089 -3.4851  0.2521
   69MOL   H18326159   5.394   0.852   3.198 -0.2854  0.6448 -0.6954
   69MOL   H18426160   5.216   0.773   3.362  0.1309  0.4689  0.3935
   69MOL   H18526161   4.994   0.683   3.391  2.1858  0.1895 -0.4347
   69MOL   H18626162   4.877   0.785   3.293  0.2753  1.1558 -3.2996
   69MOL   H18726163   4.919   0.614   3.251  2.1659 -1.5127  1.2253
   69MOL   H18826164   4.949   0.733   3.025  0.8889 -1.4200  0.0112
   69MOL   H18926165   5.123   0.787   2.867 -0.1081  0.0915 -0.0610
   69MOL   H19026166   5.428   0.643   2.954  0.4932  0.3094  0.5313
   69MOL   H19126167   5.524   0.746   3.038 -0.2804  4.0095  0.0432
   69MOL   C19226168   5.587   0.722   2.828  0.0146  0.3687 -0.4088
   69MOL   C19326169   5.524   0.719   2.682  0.0886 -0.1734 -0.2311
   69MOL   C19426170   5.421   0.631   2.653  0.1292  0.0085 -0.8000
   69MOL   C19526171   5.344   0.659   2.533 -0.0146  0.8919 -0.6538
   69MOL   C19626172   5.391   0.750   2.438  0.6258  0.3891 -0.9791
   69MOL   C19726173   5.317   0.774   2.309  0.9756 -0.7484  0.1469
   69MOL   C19826174   5.498   0.833   2.471  0.0121  0.0551 -0.2295
   69MOL   C19926175   5.565   0.819   2.591 -1.1310 -0.1735 -0.3732
   69MOL   C20026176   5.692   0.615   2.861  0.6760  0.7003  0.0249
   69MOL   H20126177   5.639   0.818   2.828  3.1756 -1.2612 -0.6128
   69MOL   H20226178   5.384   0.553   2.718  1.4782  1.8587  2.2738
   69MOL   H20326179   5.266   0.589   2.507  0.9094 -0.6458  0.5733
   69MOL   H20426180   5.375   0.823   2.231  1.3167  0.8754  1.3970
   69MOL   H20526181   5.267   0.688   2.264 -1.1574  0.6518 -0.2656
   69MOL   H20626182   5.239   0.847   2.333  0.6608 -1.1026  0.2017
   69MOL   H20726183   5.533   0.907   2.399 -0.8922 -0.3601 -1.1150
   69MOL   H20826184   5.642   0.891   2.609 -1.0969 -0.5668  1.1106
   69MOL   H20926185   5.757   0.607   2.774  3.2059 -0.1440  1.9631
   69MOL   H21026186   5.646   0.516   2.869 -1.5578  1.3241 -3.5790
   69MOL   C21126187   5.772   0.634   2.993 -0.1862  0.2893  0.1161
   69MOL   C21226188   5.809   0.786   3.018 -1.0080  0.9441 -0.3217
   69MOL   C21326189   5.894   0.856   2.934 -0.2370 -0.7647 -0.1926
   69MOL   C21426190   5.923   0.990   2.953  0.4036 -0.0634 -0.3289
   69MOL   C21526191   5.858   1.062   3.051 -0.4420  0.6758  0.1438
   69MOL   C21626192   5.871   1.211   3.065  0.2661 -0.2736 -0.0681
   69MOL   C21726193   5.769   0.995   3.139 -0.5468  0.6963  0.2947
   69MOL   C21826194   5.753   0.854   3.133 -0.5213  0.1400 -0.1533
   69MOL   C21926195   5.893   0.543   2.991 -0.0516  0.0459  0.3467
   69MOL   H22026196   5.704   0.610   3.075 -1.1093  0.7483 -0.5103
   69MOL   H22126197   5.936   0.809   2.846  0.7617  0.0392 -0.1493
   69MOL   H22226198   5.992   1.045   2.892  1.9260 -0.1013  1.3186
   69MOL   H22326199   5.809   1.257   3.141 -0.1313 -1.7828  0.5303
   69MOL   H22426200   5.974   1.230   3.096  0.1559  1.1664 -0.5171
   69MOL   H22526201   5.844   1.272   2.979 -3.2335  0.8475  1.7544
   69MOL   H22626202   5.706   1.052   3.205 -0.6299  0.6199  0.2809
   69MOL   H22726203   5.686   0.800   3.199  0.1788  1.3771  1.6239
   69MOL   H22826204   5.969   0.589   3.054 -0.6019  3.4916 -1.3706
   69MOL   H22926205   5.935   0.552   2.890 -0.2990 -0.4630  0.1960
   69MOL   C23026206   5.880   0.394   3.029  0.2715 -0.1689  0.4117
   69MOL   C23126207   5.848   0.368   3.177 -0.8286  0.5734  0.1873
   69MOL   C23226208   5.852   0.469   3.281 -0.6676 -0.3202 -0.4479
   69MOL   C23326209   5.826   0.433   3.409  0.0301 -0.0609  0.6097
   69MOL   C23426210   5.796   0.297   3.440 -0.0040  0.0834  0.1299
   69MOL   C23526211   5.769   0.259   3.585 -0.4948  0.3309 -0.0080
   69MOL   C23626212   5.787   0.202   3.339  0.6487 -0.7212 -0.2445
   69MOL   C23726213   5.805   0.242   3.209  0.5579  0.0444  0.5335
   69MOL   C23826214   6.009   0.314   2.990  0.4502 -0.3115  0.1355
   69MOL   H23926215   5.799   0.341   2.980  0.5245 -3.1164  3.0521
   69MOL   H24026216   5.881   0.572   3.263  0.5071 -0.6940 -0.7613
   69MOL   H24126217   5.818   0.496   3.496 -1.9786  1.5583 -0.6889
   69MOL   H24226218   5.703   0.326   3.640 -0.3716 -0.0581  0.6328
   69MOL   H24326219   5.727   0.158   3.591 -2.6858  1.2550  0.8374
   69MOL   H24426220   5.864   0.261   3.639  0.0956  1.9392 -1.0858
   69MOL   H24526221   5.761   0.097   3.334  0.5686 -0.5949 -3.2601
   69MOL   H24626222   5.803   0.171   3.127 -0.0491 -0.3742  0.9053
   69MOL   H24726223   6.010   0.222   3.048 -2.6082 -0.3553  0.2078
   69MOL   H24826224   6.091   0.365   3.041  0.2244  0.3378 -0.1450
   69MOL   C24926225   6.045   0.302   2.835 -0.9296 -0.4171  0.9144
   69MOL   C25026226   5.966   0.183   2.781 -0.4732  0.1480 -0.2494
   69MOL   C25126227   6.023   0.057   2.812  0.6733  0.3041  0.0908
   69MOL   C25226228   5.962   8.017   2.772  0.7923  0.1819  0.4564
   69MOL   C25326229   5.848   8.025   2.691  0.7024 -1.1701  0.2578
   69MOL   C25426230   5.784   7.906   2.640  0.5215 -0.1697 -0.4404
   69MOL   C25526231   5.797   0.073   2.650  0.1601 -0.0793  0.1392
   69MOL   C25626232   5.851   0.193   2.699 -0.4272  0.1923  1.0976
   69MOL   C25726233   6.204   0.300   2.815  0.0285  0.2049 -0.2077
   69MOL   H25826234   6.014   0.386   2.772 -0.8736 -1.6559 -0.7854
   69MOL   H25926235   6.111   0.038   2.873  0.8744 -1.1098 -0.6157
   69MOL   H26026236   6.004   7.923   2.804 -1.8799 -0.6129  1.8557
   69MOL   H26126237   5.761   7.928   2.536  0.9547 -1.0335 -0.7211
   69MOL   H26226238   5.860   7.829   2.652  0.9382  0.1872 -0.8038
   69MOL   H26326239   5.689   7.894   2.692  0.3608 -1.8824 -1.0897
   69MOL   H26426240   5.721   0.083   2.575 -0.9847  0.0531  1.2913
   69MOL   H26526241   5.810   0.286   2.662 -1.0934 -1.2842 -2.0313
   69MOL   H26626242   6.245   0.211   2.864  0.1996  0.9960  1.1129
   69MOL   H26726243   6.254   0.385   2.861  1.3722 -1.1594  0.9443
   69MOL   C26826244   6.253   0.295   2.669  0.5396 -0.5559 -0.2028
   69MOL   C26926245   6.339   0.166   2.644 -0.9807 -0.3974 -1.1033
   69MOL   C27026246   6.473   0.162   2.705  0.6030 -0.1564  0.1909
   69MOL   C27126247   6.553   0.046   2.684 -0.2880  0.3608  0.2070
   69MOL   C27226248   6.497   8.019   2.610  0.7224  0.3469  0.3692
   69MOL   C27326249   6.571   7.896   2.576 -0.4129 -0.1999  0.1321
   69MOL   C27426250   6.368   8.023   2.559  0.7111 -0.3400  0.4560
   69MOL   C27526251   6.287   0.059   2.571 -0.1680  0.5511  0.2322
   69MOL   C27626252   6.308   0.426   2.604  0.3946 -0.3509  0.1391
   69MOL   H27726253   6.165   0.279   2.607  0.2831  0.8440 -0.2117
   69MOL   H27826254   6.512   0.247   2.759 -1.1616  1.1174 -0.4841
   69MOL   H27926255   6.652   0.042   2.727 -0.5704  3.7168  1.3397
   69MOL   H28026256   6.662   7.920   2.520 -0.4504  1.5641  0.8062
   69MOL   H28126257   6.617   7.845   2.661 -2.4061 -0.7998  0.8597
   69MOL   H28226258   6.503   7.833   2.519  1.2040 -0.5851 -1.4153
   69MOL   H28326259   6.322   7.932   2.523  0.0502 -0.3566  1.3156
   69MOL   H28426260   6.188   0.066   2.527  0.6311 -2.2891 -2.2544
   69MOL   H28526261   6.318   0.398   2.499 -0.5221 -0.4916  0.0861
   69MOL   H28626262   6.405   0.446   2.650  0.2936  0.1252  0.1514
   69MOL   C28726263   6.203   0.546   2.602 -0.0243  0.5577 -0.7179
   69MOL   C28826264   6.070   0.517   2.518  0.2082  0.6585  0.2216
   69MOL   C28926265   6.072   0.451   2.398 -2.1343 -0.2986 -0.0942
   69MOL   C29026266   5.951   0.426   2.332  0.8668  0.2107  0.2772
   69MOL   C29126267   5.827   0.472   2.382 -1.1988  0.5014 -0.5087
   69MOL   C29226268   5.698   0.445   2.301  0.8776 -0.4617 -0.1576
   69MOL   C29326269   5.825   0.547   2.503  0.0730  0.2501 -0.3273
   69MOL   C29426270   5.947   0.565   2.568  0.1483 -0.1854 -0.1002
   69MOL   C29526271   6.270   0.666   2.539 -0.7088  0.0857 -0.1498
   69MOL   H29626272   6.166   0.569   2.701  2.8307 -0.7659  0.7116
   69MOL   H29726273   6.165   0.415   2.355 -0.8530  1.5345  1.0972
   69MOL   H29826274   5.947   0.380   2.234 -0.5854  1.1441 -0.1198
   69MOL   H29926275   5.608   0.486   2.347  1.0970  1.3834 -1.3124
   69MOL   H30026276   5.704   0.488   2.201  2.0894 -0.2245  0.0094
   69MOL   H30126277   5.679   0.340   2.281  1.6774 -0.7960  0.7844
   69MOL   H30226278   5.729   0.571   2.547  1.4234  0.3710  2.7096
   69MOL   H30326279   5.946   0.621   2.661 -1.1995 -0.0103 -0.2112
   69MOL   H30426280   6.197   0.719   2.478 -0.2724 -1.3047 -1.9365
   69MOL   H30526281   6.342   0.642   2.460  0.7175 -0.6063  1.3364
   69MOL   C30626282   6.321   0.783   2.635  0.3222 -0.1580  0.0471
   69MOL   C30726283   6.326   0.925   2.569  0.0332  0.2610 -0.7830
   69MOL   C30826284   6.308   1.036   2.652  0.6515 -0.7020 -0.3406
   69MOL   C30926285   6.323   1.166   2.604 -0.5779 -0.2575 -0.5174
   69MOL   C31026286   6.357   1.184   2.464 -0.1090 -0.0617 -0.5610
   69MOL   C31126287   6.357   1.320   2.406  0.3785 -0.4684  0.6371
   69MOL   C31226288   6.385   1.068   2.388 -0.2770 -0.4622 -0.5250
   69MOL   C31326289   6.367   0.942   2.443  0.3419 -0.3710 -0.4922
   69MOL   C31426290   6.453   0.762   2.711 -0.3163  0.1871  0.4486
   69MOL   H31526291   6.244   0.794   2.712  1.7116  1.2430  1.2763
   69MOL   H31626292   6.273   1.019   2.753 -0.6594 -0.5128 -0.7516
   69MOL   H31726293   6.303   1.249   2.670 -0.4568 -0.4546 -0.2359
   69MOL   H31826294   6.309   1.395   2.470  0.5342 -0.4907  0.7807
   69MOL   H31926295   6.458   1.360   2.404  0.4172 -0.6081 -0.1533
   69MOL   H32026296   6.307   1.325   2.310  1.8999  0.1448 -0.1403
   69MOL   H32126297   6.413   1.076   2.285 -0.1139 -1.1825 -0.5337
   69MOL   H32226298   6.401   0.852   2.393  1.8023 -0.8838  1.3862
   69MOL   H32326299   6.492   0.859   2.742 -1.0710  1.0564 -1.2161
   69MOL   H32426300   6.533   0.724   2.647  1.1987  1.6283  1.4499
   69MOL   C32526301   6.445   0.690   2.841  0.5550  0.3441 -0.6191
   69MOL   C32626302   6.372   0.755   2.955  0.4693 -0.6143  0.7399
   69MOL   C32726303   6.407   0.887   2.986  0.8440  0.0326  0.3384
   69MOL   C32826304   6.342   0.961   3.084  1.1207 -0.4330 -0.1854
   69MOL   C32926305   6.225   0.905   3.147  0.3865 -0.0074 -0.1760
   69MOL   C33026306   6.146   0.997   3.240  0.2127 -0.5552 -0.1870
   69MOL   C33126307   6.187   0.768   3.114  0.3552  0.6034 -0.4255
   69MOL   C33226308   6.258   0.695   3.011  0.4520 -0.2222 -0.1888
   69MOL   C33326309   6.593   0.666   2.897 -0.5375  0.4716 -0.9560
   69MOL   H33426310   6.402   0.593   2.814 -0.2490 -0.1096  2.0808
   69MOL   H33526311   6.493   0.940   2.947  0.3988  1.7524  1.6206
   69MOL   H33626312   6.385   1.054   3.119  0.4680 -0.4406  0.6591
   69MOL   H33726313   6.090   1.062   3.174  0.2674  1.5277  1.7553
   69MOL   H33826314   6.083   0.935   3.304 -1.0833  1.2877  0.3595
   69MOL   H33926315   6.201   1.063   3.307  0.1939 -0.2946 -0.4296
   69MOL   H34026316   6.114   0.715   3.173  2.3122  1.1597  2.5762
   69MOL   H34126317   6.224   0.595   2.990 -2.9216  0.7501  0.2843
   69MOL   H34226318   6.647   0.761   2.902  1.6428 -0.7918  0.4770
   69MOL   H34326319   6.646   0.618   2.814 -2.4742  0.3548 -2.1432
   69MOL   C34426320   6.614   0.576   3.018 -0.2428  0.0695 -0.2566
   69MOL   C34526321   6.759   0.563   3.045 -0.1135  0.0164  0.5884
   69MOL   C34626322   6.807   0.628   3.157  0.3578  0.6467 -0.5441
   69MOL   C34726323   6.945   0.634   3.189  0.3822 -0.2176  0.2969
   69MOL   C34826324   7.036   0.575   3.098 -0.1878 -0.1949  0.6642
   69MOL   C34926325   7.183   0.574   3.134  1.0715  0.6862  0.3210
   69MOL   C35026326   6.985   0.496   2.988 -0.7474 -0.6077  0.4749
   69MOL   C35126327   6.846   0.495   2.960 -0.6503 -0.0429  0.7433
   69MOL   C35226328   6.537   0.440   3.016  0.4404 -0.6406  0.7800
   69MOL   H35326329   6.560   0.635   3.092 -0.6639 -0.5487 -0.0737
   69MOL   H35426330   6.740   0.689   3.215 -0.0385  0.5595 -0.9086
   69MOL   H35526331   6.981   0.703   3.264  1.6268 -2.0846  1.4392
   69MOL   H35626332   7.230   0.672   3.126 -1.6533  2.1545  1.3903
   69MOL   H35726333   7.215   0.564   3.237  0.2459  2.3207  0.7627
   69MOL   H35826334   7.239   0.505   3.071  2.7399  0.5768  1.8981
   69MOL   H35926335   7.054   0.428   2.939  0.0609  0.4223  0.1606
   69MOL   H36026336   6.798   0.441   2.879  1.0944  1.1000 -1.0942
   69MOL   H36126337   6.587   0.370   2.949  3.1883  0.2009  1.8900
   69MOL   H36226338   6.439   0.452   2.970  1.5453  1.5030 -1.1447
   69MOL   C36326339   6.521   0.358   3.149  0.8649  0.9425 -0.7470
   69MOL   C36426340   6.455   0.230   3.125  0.5199  0.2742 -0.2789
   69MOL   C36526341   6.522   0.129   3.055 -0.6861  0.5937 -0.1528
   69MOL   C36626342   6.455   0.009   3.025 -0.0741 -0.5359 -0.3909
   69MOL   C36726343   6.316   8.070   3.059 -0.3877 -0.1509 -0.7049
   69MOL   C36826344   6.255   7.945   3.018 -0.2276 -0.1378 -0.0532
   69MOL   C36926345   6.251   0.091   3.137 -0.0820  0.1077 -0.4685
   69MOL   C37026346   6.319   0.213   3.162  0.1224  0.6807 -0.1635
   69MOL   C37126347   6.464   0.443   3.263  0.0874  0.9773 -0.2561
   69MOL   H37226348   6.623   0.329   3.175  0.5180 -0.5386 -1.0059
   69MOL   H37326349   6.627   0.132   3.029 -0.8071 -0.7445 -0.8270
   69MOL   H37426350   6.516   8.013   2.980  1.3155  0.3144  0.0305
   69MOL   H37526351   6.250   7.940   2.909 -0.8730  1.5393 -0.1145
   69MOL   H37626352   6.317   7.859   3.041  0.6891  0.1448 -1.4017
   69MOL   H37726353   6.157   7.922   3.061 -0.3641  1.1883  0.3879
   69MOL   H37826354   6.150   0.065   3.163  0.7745 -2.0698  0.7546
   69MOL   H37926355   6.265   0.293   3.209 -2.6203  0.3590 -2.6023
   69MOL   H38026356   6.530   0.520   3.303  1.9995 -0.5108 -0.4643
   69MOL   H38126357   6.435   0.380   3.347 -2.0409  0.4131 -1.3632
   69MOL   H38226358   6.378   0.495   3.221 -2.5330 -2.3021  0.8758
   70MOL     C126359   6.800   0.459   1.393  0.2141 -0.7909  0.1249
   70MOL     C226360   6.749   0.350   1.299  0.6338 -0.6300  0.3858
   70MOL     C326361   6.614   0.340   1.258  0.2665 -0.1117 -0.0575
   70MOL     C426362   6.567   0.238   1.176 -0.5972 -0.3393  0.1663
   70MOL     C526363   6.664   0.149   1.120  0.2736 -0.7908 -0.6497
   70MOL     C626364   6.619   0.046   1.020  0.6211 -0.0836 -0.4398
   70MOL     C726365   6.798   0.154   1.162 -0.4602 -0.1379  0.2512
   70MOL     C826366   6.838   0.257   1.246 -0.0301  0.1405 -0.8836
   70MOL     C926367   6.907   0.418   1.499  0.0141  0.3632 -0.2838
   70MOL    H1026368   6.822   0.551   1.339 -1.5780 -1.7509 -2.3292
   70MOL    H1126369   6.549   0.415   1.299 -0.1436  0.5367 -1.8596
   70MOL    H1226370   6.462   0.231   1.156 -1.0132 -3.2819  2.7978
   70MOL    H1326371   6.530   0.077   0.965  0.7248 -0.0312 -0.5801
   70MOL    H1426372   6.695   0.030   0.944  0.8211  2.6780 -0.8872
   70MOL    H1526373   6.609   8.036   1.081  1.2629 -0.7803 -1.3483
   70MOL    H1626374   6.875   0.087   1.126  0.4023  0.2617  1.3286
   70MOL    H1726375   6.943   0.269   1.265  0.3641  0.8047 -3.3544
   70MOL    H1826376   6.970   0.505   1.520 -2.1403  1.6157  1.2697
   70MOL    H1926377   6.968   0.340   1.455 -0.5444 -0.8348  1.0310
   70MOL    H2026378   6.710   0.497   1.441  1.2572  2.6860 -0.5057
   70MOL    C2126379   6.849   0.379   1.641  0.7666 -0.3219  0.0179
   70MOL    C2226380   6.963   0.360   1.739  0.3728 -0.0911 -0.2445
   70MOL    C2326381   7.057   0.260   1.735  0.3732 -0.1486  0.9217
   70MOL    C2426382   7.168   0.261   1.815  0.5305  0.0328 -0.0610
   70MOL    C2526383   7.188   0.363   1.912  0.1777  0.8193 -0.5320
   70MOL    C2626384   7.317   0.375   1.991 -0.0970 -0.3017  0.7333
   70MOL    C2726385   7.086   0.458   1.929  0.2242 -0.4035 -0.7969
   70MOL    C2826386   6.975   0.457   1.842  0.4369 -0.3280 -0.3848
   70MOL    C2926387   6.753   0.263   1.624  0.8268 -0.3399  0.4766
   70MOL    H3026388   6.790   0.463   1.678 -1.8322 -1.5979 -1.0542
   70MOL    H3126389   7.035   0.167   1.683  1.6700 -0.3714  0.7740
   70MOL    H3226390   7.233   0.175   1.801  0.3065 -0.1441 -0.0221
   70MOL    H3326391   7.390   0.439   1.942 -0.2170 -0.2557  0.6147
   70MOL    H3426392   7.285   0.413   2.088 -0.0878 -2.4222  1.5789
   70MOL    H3526393   7.365   0.278   2.002  0.5752  0.0673  1.0558
   70MOL    H3626394   7.101   0.540   1.998 -2.6588 -1.0423  0.6805
   70MOL    H3726395   6.911   0.542   1.855  1.2392  0.0853  0.9545
   70MOL    H3826396   6.800   0.173   1.584 -0.6904 -0.8129 -0.2548
   70MOL    H3926397   6.673   0.289   1.555  1.1095 -0.2266  0.1883
   70MOL    C4026398   6.681   0.214   1.744  0.1235 -0.1877 -0.1188
   70MOL    C4126399   6.628   0.076   1.733 -0.5742  0.2273 -0.1682
   70MOL    C4226400   6.646   8.059   1.833 -0.2222 -0.2759  0.0485
   70MOL    C4326401   6.606   7.927   1.804  0.4620 -0.2756  0.7711
   70MOL    C4426402   6.517   7.900   1.698 -0.0644 -0.0302  0.5588
   70MOL    C4526403   6.464   7.757   1.681  0.5794 -0.3674 -0.1878
   70MOL    C4626404   6.493   7.999   1.603  0.3382 -0.1488  0.0186
   70MOL    C4726405   6.542   0.048   1.628  0.1085 -0.0099 -0.4469
   70MOL    C4826406   6.569   0.313   1.797 -0.4924 -0.6947 -0.1236
   70MOL    H4926407   6.758   0.204   1.820  0.4828  0.1514 -0.4373
   70MOL    H5026408   6.703   0.001   1.922 -2.3668  1.4818  1.0164
   70MOL    H5126409   6.627   7.851   1.878  0.1194  0.2129  1.3760
   70MOL    H5226410   6.440   7.740   1.576  0.8785  0.8026 -0.4505
   70MOL    H5326411   6.536   7.684   1.716  2.0858 -0.2933 -3.0152
   70MOL    H5426412   6.372   7.752   1.739 -0.5448  1.2284 -1.7827
   70MOL    H5526413   6.432   7.970   1.518 -2.9952  0.6759  2.0499
   70MOL    H5626414   6.542   0.118   1.546 -0.2423  0.7984  0.2320
   70MOL    H5726415   6.484   0.293   1.733 -1.8638 -1.4351  1.8626
   70MOL    H5826416   6.603   0.416   1.784 -0.9077 -0.5488 -0.0594
   70MOL    C5926417   6.516   0.305   1.940 -0.1087 -0.4937 -0.6817
   70MOL    C6026418   6.383   0.375   1.949  0.3311 -1.0096  0.3823
   70MOL    C6126419   6.268   0.300   1.989  0.2707 -0.3886  0.2561
   70MOL    C6226420   6.141   0.359   2.001 -0.2618 -0.1540 -0.1637
   70MOL    C6326421   6.125   0.498   1.976 -0.3334  0.0472 -0.0852
   70MOL    C6426422   5.989   0.558   1.972  0.7649  0.7162  0.3127
   70MOL    C6526423   6.241   0.576   1.935 -0.0586 -0.5320  0.6772
   70MOL    C6626424   6.368   0.512   1.926 -0.2710 -0.0593  0.3751
   70MOL    C6726425   6.619   0.357   2.042  0.2002  0.0661 -0.0788
   70MOL    H6826426   6.495   0.198   1.950  1.4996 -0.5684  2.8732
   70MOL    H6926427   6.277   0.194   2.007 -0.5010 -1.2712 -3.9685
   70MOL    H7026428   6.057   0.295   2.026  0.7523 -0.6798  2.0778
   70MOL    H7126429   5.991   0.651   1.915 -0.0691 -0.0309 -0.9698
   70MOL    H7226430   5.909   0.496   1.930  0.1919 -1.1137  3.8805
   70MOL    H7326431   5.947   0.589   2.068 -3.3873 -1.9576 -0.5161
   70MOL    H7426432   6.238   0.678   1.900  0.3581 -1.0908 -1.0187
   70MOL    H7526433   6.450   0.572   1.889 -1.1440 -0.3973 -2.1976
   70MOL    H7626434   6.627   0.466   2.034 -1.4828  0.1440 -0.8790
   70MOL    H7726435   6.721   0.331   2.012  0.6117  1.8989 -0.3769
   70MOL    C7826436   6.595   0.313   2.185 -0.0266 -0.3389 -0.5902
   70MOL    C7926437   6.666   0.399   2.287 -0.1145  0.0893 -1.2186
   70MOL    C8026438   6.777   0.480   2.251  0.4279  0.1487 -0.2800
   70MOL    C8126439   6.853   0.551   2.351  0.1217  0.5263  0.0746
   70MOL    C8226440   6.803   0.544   2.483 -0.0511 -0.3887  0.1106
   70MOL    C8326441   6.880   0.625   2.586 -0.2217 -1.3353 -0.2546
   70MOL    C8426442   6.686   0.478   2.518 -0.3311 -0.5610 -0.0124
   70MOL    C8526443   6.620   0.399   2.421 -0.4683 -0.1898 -0.2773
   70MOL    C8626444   6.630   0.157   2.209 -0.2162 -0.2331  0.3847
   70MOL    H8726445   6.489   0.323   2.206 -0.0410  1.0821 -1.3159
   70MOL    H8826446   6.811   0.483   2.148  1.1896  3.3066  0.0049
   70MOL    H8926447   6.942   0.609   2.331  0.9885 -1.0595 -0.7919
   70MOL    H9026448   6.938   0.566   2.657 -0.0099  0.4900  1.1309
   70MOL    H9126449   6.949   0.694   2.538  0.0438 -1.5368 -0.1611
   70MOL    H9226450   6.816   0.695   2.641 -1.8896 -2.3436 -0.8955
   70MOL    H9326451   6.661   0.483   2.623  0.0812  0.3679  0.0456
   70MOL    H9426452   6.537   0.339   2.453 -0.5068 -0.0655 -0.1400
   70MOL    H9526453   6.592   0.087   2.134  0.6914  0.3471 -0.6327
   70MOL    H9626454   6.573   0.133   2.298 -1.4603  1.0930 -0.0456
   70MOL    C9726455   6.776   0.120   2.241  0.3579  0.6481 -0.4810
   70MOL    C9826456   6.837   0.011   2.156 -0.5338 -0.4915 -0.0012
   70MOL    C9926457   6.801   7.952   2.170  0.5133 -0.0553  0.1623
   70MOL   C10026458   6.874   7.859   2.094  0.1580  0.5236  0.4877
   70MOL   C10126459   6.983   7.894   2.011  0.0864 -0.0834 -0.3172
   70MOL   C10226460   7.049   7.783   1.937 -0.7142 -0.2234  0.0139
   70MOL   C10326461   7.015   8.030   1.995  0.1027 -0.6887 -0.0609
   70MOL   C10426462   6.945   0.046   2.071  0.1251  0.2639 -0.4118
   70MOL   C10526463   6.800   0.103   2.393  0.1438 -0.0626  0.2092
   70MOL   H10626464   6.834   0.203   2.200  1.6103  0.1862  0.3047
   70MOL   H10726465   6.717   7.923   2.232  0.5939 -0.9781 -0.1589
   70MOL   H10826466   6.845   7.755   2.095  2.9912 -0.3177  0.1532
   70MOL   H10926467   7.009   7.685   1.963 -1.8511  0.5563  1.2675
   70MOL   H11026468   7.040   7.794   1.829  0.8700 -0.7154 -0.1823
   70MOL   H11126469   7.157   7.785   1.947 -0.6956  3.8680 -0.2392
   70MOL   H11226470   7.093   8.061   1.927 -0.1895  0.9092  0.3194
   70MOL   H11326471   6.966   0.150   2.055 -1.9450  1.0548  1.7003
   70MOL   H11426472   6.751   0.008   2.413  2.0311 -1.4301 -1.4071
   70MOL   H11526473   6.741   0.173   2.452  3.1574  2.8452 -0.0892
   70MOL   C11626474   6.947   0.086   2.443 -0.1600  0.4643  0.5475
   70MOL   C11726475   6.949   0.008   2.575  0.2036 -0.4538 -0.2444
   70MOL   C11826476   6.959   0.079   2.698 -0.3605  0.4018 -0.4060
   70MOL   C11926477   6.964   0.013   2.823 -0.3844  0.0846  0.3682
   70MOL   C12026478   6.945   7.953   2.819 -0.1845  0.3636 -0.7136
   70MOL   C12126479   6.913   7.887   2.947 -0.1277  0.1146  0.4332
   70MOL   C12226480   6.922   7.883   2.698  0.2926 -0.2633  0.2530
   70MOL   C12326481   6.925   7.954   2.571  0.8322 -0.3274  0.3892
   70MOL   C12426482   7.024   0.219   2.448  0.3958 -0.2699 -0.1306
   70MOL   H12526483   6.998   0.017   2.377 -0.8437  0.6097 -0.1380
   70MOL   H12626484   6.943   0.186   2.697  3.9299  1.1266 -0.2913
   70MOL   H12726485   6.974   0.068   2.915 -1.7357  0.7370  0.1475
   70MOL   H12826486   6.828   7.819   2.941  1.0029 -1.1752 -1.0151
   70MOL   H12926487   6.988   7.819   2.987 -0.1811  0.4331  1.0986
   70MOL   H13026488   6.896   7.962   3.025 -0.5872 -0.8952  1.3124
   70MOL   H13126489   6.900   7.778   2.698  0.7433 -0.3661 -1.4081
   70MOL   H13226490   6.917   7.896   2.480  3.7098  1.6035 -1.1506
   70MOL   H13326491   6.989   0.288   2.526  2.1298  0.3678  0.1058
   70MOL   H13426492   6.995   0.279   2.362  0.1017 -1.5221 -0.9143
   70MOL   C13526493   7.176   0.193   2.456 -0.2053 -0.2225 -0.0246
   70MOL   C13626494   7.243   0.317   2.514  1.5194 -1.0508 -0.1115
   70MOL   C13726495   7.308   0.305   2.638 -0.5568 -0.6241  0.1445
   70MOL   C13826496   7.340   0.418   2.711 -0.1102 -0.5374 -0.0585
   70MOL   C13926497   7.318   0.547   2.655 -0.4384  0.2941 -0.0367
   70MOL   C14026498   7.365   0.655   2.738  0.1854  0.0753  0.0281
   70MOL   C14126499   7.261   0.561   2.528 -0.1647  0.2088  0.7125
   70MOL   C14226500   7.228   0.444   2.458 -1.1119 -0.0703 -0.2217
   70MOL   C14326501   7.238   0.153   2.321 -0.0788 -0.2629 -0.2861
   70MOL   H14426502   7.186   0.107   2.523 -1.8866 -1.6734 -1.5993
   70MOL   H14526503   7.328   0.206   2.676 -1.8727 -1.3185 -0.9474
   70MOL   H14626504   7.381   0.403   2.810  1.4455 -1.2524 -0.7844
   70MOL   H14726505   7.311   0.661   2.833 -2.3905 -0.4169 -1.3513
   70MOL   H14826506   7.466   0.629   2.770 -1.2187 -0.2119  4.5643
   70MOL   H14926507   7.349   0.751   2.691  0.2884 -0.6410 -1.5001
   70MOL   H15026508   7.246   0.662   2.496  2.1686  0.1838 -0.5288
   70MOL   H15126509   7.187   0.449   2.358 -0.9548 -0.7544 -0.3226
   70MOL   H15226510   7.267   0.239   2.260  1.2886  1.2079  2.3540
   70MOL   H15326511   7.172   0.099   2.253 -1.1827 -0.2578  0.7724
   70MOL   C15426512   7.358   0.064   2.339 -0.6474  0.4672  0.1694
   70MOL   C15526513   7.440   0.046   2.209 -0.1023  1.5819 -0.4482
   70MOL   C15626514   7.370   8.066   2.104 -0.7298 -0.2335 -0.2008
   70MOL   C15726515   7.433   8.034   1.984 -1.3742  0.3431 -0.6549
   70MOL   C15826516   7.571   8.057   1.971 -0.4598  0.1278  0.4642
   70MOL   C15926517   7.646   8.011   1.848  0.6449  0.2063 -0.1874
   70MOL   C16026518   7.646   0.033   2.080  0.4766 -0.4500 -0.7841
   70MOL   C16126519   7.579   0.054   2.199  0.1259  0.5781 -0.2164
   70MOL   C16226520   7.348   8.008   2.415  0.0793 -0.4028 -0.1663
   70MOL   H16326521   7.423   0.136   2.389  0.3502 -0.3180  0.0180
   70MOL   H16426522   7.265   8.043   2.108 -0.3263 -2.2489 -0.7219
   70MOL   H16526523   7.380   7.990   1.902  1.6841  0.5520 -2.8182
   70MOL   H16626524   7.674   7.906   1.860  0.9663  0.2718 -0.3421
   70MOL   H16726525   7.589   8.039   1.758 -1.0048  0.7394  0.9945
   70MOL   H16826526   7.734   8.074   1.837  1.3658 -0.1820  2.9047
   70MOL   H16926527   7.753   0.049   2.075  0.3730  2.0590  2.9210
   70MOL   H17026528   7.627   0.092   2.288  3.7212 -0.5620 -1.6094
   70MOL   H17126529   7.355   7.922   2.348 -0.1896 -0.7183  0.1966
   70MOL   H17226530   7.243   7.999   2.447 -0.6346  0.7699 -2.1504
   70MOL   C17326531   7.412   7.996   2.549 -0.6624 -0.1640 -0.1271
   70MOL   C17426532   7.564   8.008   2.527 -0.5132  0.5111 -0.3094
   70MOL   C17526533   7.638   7.908   2.462  0.3581  0.6846  0.8669
   70MOL   C17626534   7.773   7.924   2.424  0.7542  0.5235  0.2129
   70MOL   C17726535   7.845   8.040   2.467  0.2810 -0.4595 -0.3036
   70MOL   C17826536   7.993   8.042   2.439 -0.4046  0.3083  0.1539
   70MOL   C17926537   7.775   0.056   2.542  0.1458 -0.0516  0.2933
   70MOL   C18026538   7.638   0.042   2.561  0.4524  0.4298  0.2250
   70MOL   C18126539   7.367   7.858   2.620 -0.4929  0.0504  0.2561
   70MOL   H18226540   7.385   0.001   2.611 -2.5121 -1.9721  1.6120
   70MOL   H18326541   7.588   7.814   2.443  2.0885 -0.2661  0.9205
   70MOL   H18426542   7.814   7.842   2.368 -1.9906 -0.0364 -1.0556
   70MOL   H18526543   8.059   0.049   2.448 -0.2711  0.0591  1.8899
   70MOL   H18626544   8.042   7.965   2.499  1.0772  2.1676  1.4020
   70MOL   H18726545   8.015   8.009   2.338  0.4037  2.8151 -0.5410
   70MOL   H18826546   7.820   0.150   2.570 -2.5249  0.9796  1.2645
   70MOL   H18926547   7.597   0.130   2.609  0.2487 -0.4055  1.6351
   70MOL   H19026548   7.404   7.773   2.562  0.0871  1.4518 -1.4795
   70MOL   H19126549   7.258   7.861   2.625 -0.4283  0.0018  1.8996
   70MOL   C19226550   7.410   7.851   2.769 -0.0268  0.1748  0.2043
   70MOL   C19326551   7.361   7.725   2.839  0.4382 -0.0552 -0.4827
   70MOL   C19426552   7.451   7.640   2.904  0.0254  0.0148  0.0007
   70MOL   C19526553   7.400   7.533   2.975 -0.2527 -0.3367  0.4357
   70MOL   C19626554   7.264   7.509   2.974  1.0297  0.3247  0.2459
   70MOL   C19726555   7.202   7.407   3.067 -0.9106 -0.4063 -0.1300
   70MOL   C19826556   7.175   7.586   2.896  0.7940 -0.0827 -0.7167
   70MOL   C19926557   7.225   7.689   2.823 -0.3643  0.6422  0.0043
   70MOL   C20026558   7.361   7.973   2.857 -0.4840  0.1551  0.1639
   70MOL   H20126559   7.518   7.835   2.770 -0.3589 -2.3582 -0.9985
   70MOL   H20226560   7.557   7.662   2.907  0.0867 -0.4490  2.8358
   70MOL   H20326561   7.462   7.475   3.042  3.1424 -1.0021 -3.1435
   70MOL   H20426562   7.203   7.302   3.038 -0.2594 -0.2575 -0.6651
   70MOL   H20526563   7.228   7.429   3.170 -1.5275  1.9040 -0.4558
   70MOL   H20626564   7.094   7.421   3.068 -1.0078 -0.8955  3.6112
   70MOL   H20726565   7.070   7.560   2.894  0.9361 -0.7219 -0.3194
   70MOL   H20826566   7.165   7.756   2.764 -0.7235  0.0050 -0.3476
   70MOL   H20926567   7.252   7.979   2.852 -0.3805  1.3813 -1.0117
   70MOL   H21026568   7.395   8.067   2.812 -0.2413  0.9634  2.0038
   70MOL   C21126569   7.401   7.976   3.007  0.2184  0.1869 -0.1918
   70MOL   C21226570   7.316   8.070   3.093  0.0314  0.9608 -0.5401
   70MOL   C21326571   7.254   8.017   3.211  0.2176 -0.0833 -0.0069
   70MOL   C21426572   7.158   0.014   3.280  0.4946  0.2565  0.2755
   70MOL   C21526573   7.125   0.143   3.238 -0.3644 -0.0116 -0.3097
   70MOL   C21626574   7.016   0.223   3.307  0.3723 -0.6504 -0.3403
   70MOL   C21726575   7.177   0.189   3.114 -0.1960 -0.0313 -0.4880
   70MOL   C21826576   7.272   0.115   3.046  0.2968  0.0489  1.1609
   70MOL   C21926577   7.549   8.009   3.026 -0.3497 -0.3107  0.3044
   70MOL   H22026578   7.382   7.876   3.047 -1.8291  0.9279  0.7582
   70MOL   H22126579   7.284   7.918   3.243  1.5641  0.3789  0.1761
   70MOL   H22226580   7.115   8.037   3.361 -1.5508  1.9250  0.3947
   70MOL   H22326581   6.983   0.170   3.396  3.7191 -1.2714  0.6068
   70MOL   H22426582   7.054   0.323   3.332 -0.0174 -0.3360 -0.9944
   70MOL   H22526583   6.927   0.237   3.246 -2.2460  0.8399  3.5964
   70MOL   H22626584   7.148   0.288   3.081 -2.7968  0.1487  2.2075
   70MOL   H22726585   7.313   0.141   2.950  0.4949  2.2445  1.8206
   70MOL   H22826586   7.558   0.022   3.080  0.8183 -1.3070  1.8713
   70MOL   H22926587   7.592   8.029   2.928 -0.0771  1.0022  0.6876
   70MOL   C23026588   7.635   7.910   3.100  0.2696  0.4566 -0.1939
   70MOL   C23126589   7.582   7.847   3.225 -0.0237 -0.1759  0.3637
   70MOL   C23226590   7.586   7.706   3.239  0.0277  0.2452 -0.8119
   70MOL   C23326591   7.565   7.647   3.366 -0.3922 -0.1360  0.0196
   70MOL   C23426592   7.537   7.731   3.475  0.1641  0.4093  0.1240
   70MOL   C23526593   7.528   7.673   3.617 -0.7029  0.2677 -0.0773
   70MOL   C23626594   7.524   7.871   3.454  1.2342  0.3266 -0.5308
   70MOL   C23726595   7.550   7.929   3.334 -0.6330 -0.2754  0.3887
   70MOL   C23826596   7.790   7.949   3.120  0.5255  0.4566  0.0889
   70MOL   H23926597   7.633   7.825   3.032  2.6988 -0.0768  0.3562
   70MOL   H24026598   7.599   7.645   3.150 -0.4486 -1.9861  0.5851
   70MOL   H24126599   7.566   7.541   3.386 -0.9801 -0.3972 -1.3042
   70MOL   H24226600   7.525   7.564   3.620 -0.6785  0.2350 -1.0909
   70MOL   H24326601   7.611   7.704   3.680 -1.2370 -1.1107  1.3627
   70MOL   H24426602   7.434   7.715   3.654 -0.5855  1.8161 -1.5281
   70MOL   H24526603   7.505   7.930   3.543 -0.1230 -1.2057  0.2208
   70MOL   H24626604   7.548   8.037   3.325 -3.9303 -0.2851  0.2521
   70MOL   H24726605   7.834   7.872   3.183  3.0822  0.1481 -1.9807
   70MOL   H24826606   7.788   8.038   3.183  0.6740  1.5665 -1.4363
   70MOL   C24926607   7.863   7.954   2.978  0.4291 -0.6488 -0.6381
   70MOL   C25026608   7.860   7.828   2.893  0.4401 -0.0135  0.3642
   70MOL   C25126609   7.808   7.835   2.761  0.2587 -0.2402  0.2103
   70MOL   C25226610   7.797   7.715   2.690  0.5640  0.3576  0.3915
   70MOL   C25326611   7.831   7.594   2.750 -0.1800  0.0638  0.5776
   70MOL   C25426612   7.814   7.469   2.665 -0.2432 -0.0761 -0.0812
   70MOL   C25526613   7.871   7.581   2.881  0.1272 -0.3200 -0.1204
   70MOL   C25626614   7.889   7.704   2.954  0.6720  1.1042 -0.1256
   70MOL   C25726615   8.011   8.013   2.995  0.6634 -0.3479  0.5544
   70MOL   H25826616   7.811   8.026   2.916 -1.0042 -1.9880 -1.0283
   70MOL   H25926617   7.783   7.932   2.719  0.9600 -0.0370  0.2596
   70MOL   H26026618   7.783   7.703   2.583  1.1930  0.1252  0.3357
   70MOL   H26126619   7.747   7.497   2.584  0.9510  0.0532 -1.0299
   70MOL   H26226620   7.907   7.443   2.615  0.4986  0.8512  0.7988
   70MOL   H26326621   7.786   7.379   2.720 -0.3086  0.6287  1.0545
   70MOL   H26426622   7.880   7.486   2.932  1.7065 -0.9811 -1.5903
   70MOL   H26526623   7.921   7.706   3.057 -1.9421  2.9950  0.7044
   70MOL   H26626624   8.056   8.016   2.896 -1.8842  2.0897 -0.5453
   70MOL   H26726625   8.068   7.940   3.054  0.7637 -0.2760  0.5448
   70MOL   C26826626   8.026   0.076   3.047 -0.4288  1.2162 -0.3147
   70MOL   C26926627   7.953   0.181   2.967 -0.4063 -0.4928 -0.0181
   70MOL   C27026628   7.993   0.210   2.834 -0.2583 -0.2672 -0.2202
   70MOL   C27126629   7.924   0.314   2.765  0.1645 -0.4794  0.2665
   70MOL   C27226630   7.819   0.386   2.823  0.1550 -0.0127  0.4633
   70MOL   C27326631   7.748   0.498   2.744 -0.5106 -0.2400  0.9758
   70MOL   C27426632   7.770   0.342   2.950 -0.5954 -0.0913 -0.0412
   70MOL   C27526633   7.833   0.239   3.020 -0.5687 -0.2269 -0.1299
   70MOL   C27626634   0.104   0.091   3.074 -0.0893 -0.1317  0.2205
   70MOL   H27726635   7.989   0.082   3.149  2.8920  1.6452  0.9279
   70MOL   H27826636   8.068   0.151   2.783  1.1627 -0.6502  2.2689
   70MOL   H27926637   7.958   0.335   2.665  2.0746  0.0042  0.9871
   70MOL   H28026638   7.813   0.556   2.677 -0.9765 -1.0818 -0.2331
   70MOL   H28126639   7.660   0.461   2.691  0.3857  1.1668 -1.6325
   70MOL   H28226640   7.716   0.572   2.817 -0.4463 -0.2411  1.0058
   70MOL   H28326641   7.682   0.387   2.993  0.4990  0.6461  1.4731
   70MOL   H28426642   7.799   0.209   3.118 -2.2693  0.8881 -0.3702
   70MOL   H28526643   0.148   8.072   3.061  2.0335  0.9187 -0.9446
   70MOL   H28626644   0.116   0.096   3.182 -0.7047 -0.0777  0.2872
   70MOL   C28726645   0.196   0.198   2.995 -0.2051  0.0099  0.1395
   70MOL   C28826646   0.338   0.147   3.007 -0.3959  0.0680  0.7711
   70MOL   C28926647   0.414   0.100   2.893  0.1996  0.1204  0.7900
   70MOL   C29026648   0.542   0.034   2.911  0.9241 -0.4582 -0.0524
   70MOL   C29126649   0.596   0.020   3.042  0.6897 -0.0243  0.7315
   70MOL   C29226650   0.725   8.023   3.073  0.3245 -0.1394 -0.1262
   70MOL   C29326651   0.528   0.082   3.152 -0.0595  0.1696  0.1721
   70MOL   C29426652   0.403   0.145   3.135 -0.7909  0.2971 -0.2004
   70MOL   C29526653   0.179   0.343   3.053  0.1175 -0.0863  0.6863
   70MOL   H29626654   0.172   0.183   2.890 -2.6188 -0.4900  0.7192
   70MOL   H29726655   0.375   0.113   2.794 -2.0434 -1.8320  1.3831
   70MOL   H29826656   0.597   8.073   2.828 -0.2499 -2.4865  0.1554
   70MOL   H29926657   0.797   8.074   3.008 -0.3487  1.9852  0.7526
   70MOL   H30026658   0.752   8.029   3.179  0.4549 -0.7195 -0.1254
   70MOL   H30126659   0.705   7.917   3.056 -1.7010  0.3747 -1.0154
   70MOL   H30226660   0.554   0.064   3.255  0.8445  1.7190  0.2221
   70MOL   H30326661   0.353   0.181   3.224  0.8090 -0.4317  1.0024
   70MOL   H30426662   0.191   0.356   3.160  0.2410  2.2742  0.4082
   70MOL   H30526663   0.080   0.381   3.028  0.3758  0.9932  1.2597
   70MOL   C30626664   0.286   0.443   2.985 -0.0592  0.3077  0.1423
   70MOL   C30726665   0.297   0.560   3.071 -0.1811  0.3538 -0.3903
   70MOL   C30826666   0.422   0.595   3.131 -0.5353  0.8110  0.6629
   70MOL   C30926667   0.431   0.702   3.220  0.1671  0.0781  0.7467
   70MOL   C31026668   0.323   0.788   3.245  0.0486  0.1876  0.7635
   70MOL   C31126669   0.329   0.905   3.336 -0.1461 -1.0168  0.6579
   70MOL   C31226670   0.202   0.758   3.167  0.3478 -0.3067 -0.0684
   70MOL   C31326671   0.185   0.647   3.088  0.2722  0.2906  0.4241
   70MOL   C31426672   0.262   0.469   2.839 -0.0212  0.1936  0.0464
   70MOL   H31526673   0.385   0.398   2.991 -0.7214 -1.2765 -0.4701
   70MOL   H31626674   0.513   0.546   3.099 -0.1116  1.2169  1.2341
   70MOL   H31726675   0.526   0.707   3.270  0.7737 -1.0343 -0.2512
   70MOL   H31826676   0.372   0.997   3.296 -0.5197 -1.3930 -0.6414
   70MOL   H31926677   0.235   0.920   3.388 -1.0106  6.0097 -2.2994
   70MOL   H32026678   0.408   0.891   3.409  0.6614 -2.5291 -0.4773
   70MOL   H32126679   0.118   0.826   3.165  0.8922  0.3852  0.4436
   70MOL   H32226680   0.090   0.638   3.037 -0.7495  0.5601  2.2318
   70MOL   H32326681   0.228   0.571   2.823 -0.7752  0.3050  2.2892
   70MOL   H32426682   0.185   0.399   2.804  0.9724 -0.4323 -0.9257
   70MOL   C32526683   0.380   0.444   2.741  0.0533  0.2633  0.3950
   70MOL   C32626684   0.505   0.518   2.794  0.4466 -0.1450 -0.2783
   70MOL   C32726685   0.628   0.458   2.827  0.5911  0.3324 -0.4065
   70MOL   C32826686   0.730   0.533   2.899 -0.7641 -0.2265  0.3171
   70MOL   C32926687   0.714   0.673   2.922  0.0012 -0.2157  0.2305
   70MOL   C33026688   0.837   0.745   2.977 -0.9375 -0.4429  0.0988
   70MOL   C33126689   0.596   0.734   2.876 -0.4389 -0.4027  0.3990
   70MOL   C33226690   0.497   0.653   2.819  0.1362 -0.1146  0.2066
   70MOL   C33326691   0.349   0.484   2.592 -0.3902  0.3938 -0.2282
   70MOL   H33426692   0.412   0.340   2.750  1.6694  0.6564 -0.6176
   70MOL   H33526693   0.651   0.356   2.801  1.3431 -0.0246  1.5872
   70MOL   H33626694   0.821   0.479   2.921 -0.2097 -0.0752 -1.4955
   70MOL   H33726695   0.810   0.850   2.965 -2.1608 -0.9132 -1.3608
   70MOL   H33826696   0.831   0.725   3.084  0.5831  2.0287  0.6788
   70MOL   H33926697   0.930   0.712   2.931 -0.9529 -1.0033  0.4709
   70MOL   H34026698   0.582   0.840   2.894 -0.6372 -0.5180  0.9661
   70MOL   H34126699   0.409   0.704   2.783  0.1925  0.8491  1.3966
   70MOL   H34226700   0.444   0.507   2.546 -0.8369  3.6760  0.3422
   70MOL   H34326701   0.303   0.583   2.589 -0.6853  0.2756  0.2017
   70MOL   C34426702   0.266   0.392   2.500  0.0586  0.7305  0.7297
   70MOL   C34526703   0.307   0.249   2.503 -0.2594 -0.3845  0.5574
   70MOL   C34626704   0.433   0.212   2.455 -0.3129  0.3356 -0.9722
   70MOL   C34726705   0.472   0.082   2.467  0.3686  0.2218 -0.3758
   70MOL   C34826706   0.381   8.070   2.528 -0.2169 -0.9087  0.3301
   70MOL   C34926707   0.434   7.923   2.538 -0.3027 -0.2379  0.2977
   70MOL   C35026708   0.251   0.026   2.565  0.2027  0.9461  0.4032
   70MOL   C35126709   0.211   0.157   2.546 -0.1019 -0.5445 -0.1441
   70MOL   C35226710   0.247   0.455   2.360 -0.5505  0.6378 -0.0296
   70MOL   H35326711   0.166   0.402   2.542 -0.1460 -3.2594  1.3692
   70MOL   H35426712   0.507   0.282   2.418  1.3241  1.5663  4.2293
   70MOL   H35526713   0.571   0.050   2.440  0.0294 -0.0324 -1.3257
   70MOL   H35626714   0.354   7.854   2.563 -0.7129  0.1896  0.1626
   70MOL   H35726715   0.495   7.896   2.452  1.4472  0.4525  1.2749
   70MOL   H35826716   0.505   7.919   2.621  1.0144  0.8347 -0.7549
   70MOL   H35926717   0.188   8.030   2.608  0.8237 -0.2867 -0.7932
   70MOL   H36026718   0.116   0.204   2.565  0.1619  1.2479 -2.9776
   70MOL   H36126719   0.346   0.450   2.314 -0.0082 -0.4531  1.2079
   70MOL   H36226720   0.221   0.561   2.367 -5.0839 -0.4678  1.6321
   70MOL   C36326721   0.148   0.380   2.269  0.1668 -0.3097 -0.0194
   70MOL   C36426722   0.169   0.396   2.119 -0.0674 -0.0776  0.6571
   70MOL   C36526723   0.126   0.291   2.032 -0.0824 -0.1290 -0.0627
   70MOL   C36626724   0.138   0.307   1.887 -0.3354 -0.2256 -0.2840
   70MOL   C36726725   0.200   0.430   1.838  0.3436  0.6242  0.5335
   70MOL   C36826726   0.207   0.438   1.688  1.1782 -0.6004 -0.4729
   70MOL   C36926727   0.237   0.533   1.926  0.8055  0.3872 -0.3904
   70MOL   C37026728   0.217   0.515   2.066  0.1961  0.0474  0.0121
   70MOL   C37126729   0.001   0.420   2.299  0.0334 -0.6747 -0.1972
   70MOL   H37226730   0.153   0.272   2.284 -0.6252 -0.5044 -1.0729
   70MOL   H37326731   0.067   0.210   2.071  1.5279 -1.0294  0.5814
   70MOL   H37426732   0.105   0.238   1.810 -0.6553  0.5128 -0.8092
   70MOL   H37526733   0.109   0.468   1.650  0.3908 -2.4209  0.0182
   70MOL   H37626734   0.292   0.503   1.669 -0.1321  1.3478  0.2446
   70MOL   H37726735   0.230   0.338   1.649  1.1456 -0.8826  0.2219
   70MOL   H37826736   0.289   0.619   1.885  1.7171  0.3397  0.6411
   70MOL   H37926737   0.241   0.601   2.128  0.5697  0.4063 -0.6164
   70MOL   H38026738   8.063   0.524   2.271  0.1047 -0.5434  0.2511
   70MOL   H38126739   8.051   0.404   2.402  1.2162 -1.3709  0.0437
   70MOL   H38226740   8.011   0.365   2.236  1.6675 -1.9859 -0.8911
   71MOL     C126741   2.957   0.814   3.391 -0.8788  1.3328  0.3241
   71MOL     C226742   3.070   0.720   3.356  0.5934  0.3941  0.4999
   71MOL     C326743   3.207   0.742   3.380  1.0322 -0.2349 -0.4731
   71MOL     C426744   3.311   0.649   3.343  0.3430 -0.0375 -1.3766
   71MOL     C526745   3.282   0.526   3.295  0.6676 -0.3026 -0.6349
   71MOL     C626746   3.387   0.423   3.269  0.3599  0.2082  0.0263
   71MOL     C726747   3.142   0.499   3.270 -0.2296 -0.0003  0.6573
   71MOL     C826748   3.042   0.595   3.301  0.3148  0.2243 -0.1524
   71MOL     C926749   2.831   0.795   3.323 -0.2823  0.2716  0.4284
   71MOL    H1026750   2.940   0.807   3.499 -0.0255  0.1682  0.3854
   71MOL    H1126751   3.240   0.830   3.433 -0.5295  0.6300 -0.8964
   71MOL    H1226752   3.414   0.663   3.371 -0.3934 -1.3200  2.1516
   71MOL    H1326753   3.345   0.326   3.298 -1.4378  0.5046 -1.4854
   71MOL    H1426754   3.410   0.397   3.166 -0.9144 -0.5365 -0.0919
   71MOL    H1526755   3.479   0.451   3.320  0.5717 -1.2680  0.5013
   71MOL    H1626756   3.123   0.408   3.216  2.1290 -0.0897 -0.0885
   71MOL    H1726757   2.941   0.573   3.267 -0.0044 -0.4196  1.1737
   71MOL    H1826758   2.791   0.695   3.346  2.5160 -0.8452  0.6012
   71MOL    H1926759   2.866   0.802   3.220 -0.1622 -0.3386  0.4236
   71MOL    H2026760   3.003   0.907   3.359  0.5963  0.3216 -0.5145
   71MOL    C2126761   2.718   0.896   3.353  0.2585  0.2137  0.1537
   71MOL    C2226762   2.638   0.849   3.472  0.1878 -0.2745 -0.6465
   71MOL    C2326763   2.643   0.920   3.590  0.2691  0.0809  0.3677
   71MOL    C2426764   2.553   0.899   3.692 -0.1995 -0.7798  0.4048
   71MOL    C2526765   2.458   0.791   3.683  0.2317 -0.4022  0.2094
   71MOL    C2626766   2.359   0.764   3.790 -0.0357  0.3208 -0.2827
   71MOL    C2726767   2.459   0.709   3.568 -0.2890  0.0810  0.5911
   71MOL    C2826768   2.543   0.746   3.458 -0.0942 -0.5509  0.1738
   71MOL    C2926769   2.618   0.921   3.243 -0.1120 -0.0300  0.2639
   71MOL    H3026770   2.766   0.990   3.380  0.9122 -0.2470  0.6232
   71MOL    H3126771   2.709   1.004   3.599 -0.4528  0.9288 -1.8718
   71MOL    H3226772   2.554   0.965   3.778 -0.4086 -1.6721  1.0985
   71MOL    H3326773   2.357   0.662   3.830  0.1822  0.5720  0.3749
   71MOL    H3426774   2.376   0.829   3.876  0.4559 -3.1451  2.3933
   71MOL    H3526775   2.263   0.783   3.744  0.2556  1.2822 -0.4962
   71MOL    H3626776   2.388   0.630   3.547 -0.3376  0.4771 -0.7537
   71MOL    H3726777   2.527   0.683   3.372  0.4193 -0.5039  0.0427
   71MOL    H3826778   2.531   0.972   3.285  2.0114  1.3070  3.2039
   71MOL    H3926779   2.578   0.832   3.195 -0.7968  0.2342  0.3273
   71MOL    C4026780   2.677   1.017   3.133 -0.6496 -0.0202  0.7655
   71MOL    C4126781   2.685   1.155   3.181  0.2693  0.3089 -0.0087
   71MOL    C4226782   2.576   1.240   3.204  0.2773  0.0932 -0.6738
   71MOL    C4326783   2.591   1.370   3.253 -0.4340 -0.4571  0.4556
   71MOL    C4426784   2.725   1.412   3.272 -0.1560 -0.8075 -0.4950
   71MOL    C4526785   2.754   1.554   3.328  0.2148 -0.4739  1.0409
   71MOL    C4626786   2.839   1.325   3.249  0.2468 -0.1090 -0.5174
   71MOL    C4726787   2.819   1.203   3.192 -0.4418 -0.0552  0.3290
   71MOL    C4826788   2.585   0.988   3.003 -0.0517  0.1028  0.0370
   71MOL    H4926789   2.777   0.979   3.113 -1.0717 -1.0448  0.5338
   71MOL    H5026790   2.478   1.195   3.194  0.7580 -0.9249 -0.8271
   71MOL    H5126791   2.506   1.429   3.283  0.0946  0.0851  0.9220
   71MOL    H5226792   2.670   1.619   3.349  0.8141  1.0172 -1.0209
   71MOL    H5326793   2.799   1.542   3.426  1.6214 -2.3420  0.2126
   71MOL    H5426794   2.830   1.598   3.263 -0.2140  0.6523  1.3041
   71MOL    H5526795   2.939   1.351   3.281 -0.3388  1.9689 -0.3046
   71MOL    H5626796   2.901   1.136   3.173 -0.4120  0.1049 -0.0951
   71MOL    H5726797   2.481   0.985   3.035  1.1028 -2.6560  3.8557
   71MOL    H5826798   2.609   0.887   2.969  2.6559  0.9428 -0.7110
   71MOL    C5926799   2.580   1.086   2.880 -0.0685  0.7681 -0.1951
   71MOL    C6026800   2.453   1.059   2.797  0.3417 -0.3936 -0.3741
   71MOL    C6126801   2.423   0.928   2.765  0.1629  0.2841 -0.2468
   71MOL    C6226802   2.300   0.896   2.701  0.2855  0.1911  0.4020
   71MOL    C6326803   2.204   0.995   2.674 -0.6831 -0.5389  0.5462
   71MOL    C6426804   2.072   0.953   2.605  0.3048  0.5712 -0.1013
   71MOL    C6526805   2.240   1.131   2.696 -0.4212 -0.1598  0.6234
   71MOL    C6626806   2.361   1.162   2.760 -0.0245  0.0522  0.1685
   71MOL    C6726807   2.705   1.082   2.791  0.0701 -0.1658 -0.3554
   71MOL    H6826808   2.571   1.190   2.912 -1.4960  0.9417 -1.1013
   71MOL    H6926809   2.493   0.848   2.784 -0.7579 -0.1570  1.4183
   71MOL    H7026810   2.281   0.792   2.677  0.2104  0.1615  0.5896
   71MOL    H7126811   2.054   1.012   2.515 -1.1054 -0.8192 -0.7616
   71MOL    H7226812   2.067   0.847   2.580 -0.3201  1.1713 -2.7395
   71MOL    H7326813   1.988   0.966   2.672  0.5502 -0.7213  0.4730
   71MOL    H7426814   2.166   1.203   2.664 -0.4954  0.0625  1.2938
   71MOL    H7526815   2.393   1.264   2.773 -0.0718  0.2530 -1.2463
   71MOL    H7626816   2.690   1.080   2.683  0.0514 -0.5188 -0.3483
   71MOL    H7726817   2.763   0.991   2.809 -0.4876 -0.6739 -1.0856
   71MOL    C7826818   2.808   1.203   2.804 -0.3679  0.2596  0.8283
   71MOL    C7926819   2.744   1.339   2.794  0.3546  0.1851  0.4076
   71MOL    C8026820   2.632   1.356   2.707 -0.5323 -0.0428 -0.7437
   71MOL    C8126821   2.570   1.485   2.710  0.2689  0.5241  0.4734
   71MOL    C8226822   2.626   1.595   2.784  0.2175  0.2256 -0.2396
   71MOL    C8326823   2.568   1.733   2.762  0.1739 -0.7126 -0.2600
   71MOL    C8426824   2.747   1.579   2.857  0.2363  0.6247 -0.1678
   71MOL    C8526825   2.806   1.450   2.863  0.0273  0.3681 -0.4477
   71MOL    C8626826   2.924   1.177   2.701  0.1551 -0.4832 -0.3641
   71MOL    H8726827   2.845   1.194   2.906 -0.4373  1.4708  0.9676
   71MOL    H8826828   2.579   1.282   2.648 -0.6022  0.4725 -1.3428
   71MOL    H8926829   2.484   1.498   2.646 -0.0796 -2.2535  0.2915
   71MOL    H9026830   2.631   1.800   2.704  0.0696  0.9284  1.4855
   71MOL    H9126831   2.468   1.719   2.720  0.3158 -3.5896  0.2481
   71MOL    H9226832   2.529   1.779   2.853  0.3813 -0.0003 -0.5265
   71MOL    H9326833   2.787   1.665   2.909  1.3231 -0.4390  0.7948
   71MOL    H9426834   2.903   1.447   2.909  0.5292  1.2857 -1.4088
   71MOL    H9526835   2.984   1.268   2.708 -1.7288  0.8904 -1.5067
   71MOL    H9626836   2.881   1.179   2.601  0.8038 -0.2182 -0.6409
   71MOL    C9726837   3.017   1.060   2.740  0.2820  0.8763 -0.2811
   71MOL    C9826838   3.069   1.067   2.877 -0.6478  0.6958  0.4178
   71MOL    C9926839   3.133   1.185   2.918 -0.3004  0.4254 -0.0784
   71MOL   C10026840   3.195   1.202   3.049  1.5092  0.7739  0.1092
   71MOL   C10126841   3.190   1.088   3.137  0.3016  0.0918  0.3338
   71MOL   C10226842   3.277   1.091   3.258  0.7232 -0.1125  0.2401
   71MOL   C10326843   3.115   0.974   3.104 -0.4965  0.0855  0.0784
   71MOL   C10426844   3.060   0.962   2.972  0.2223  0.1550 -0.2116
   71MOL   C10526845   3.130   1.042   2.632  0.6153 -0.5229 -0.3479
   71MOL   H10626846   2.966   0.964   2.732  1.7912  0.1635 -1.6662
   71MOL   H10726847   3.135   1.272   2.854 -3.7977  1.6755  1.4027
   71MOL   H10826848   3.234   1.294   3.090  0.3469  1.0826  0.5549
   71MOL   H10926849   3.229   1.160   3.328 -0.0832 -0.0273 -0.3897
   71MOL   H11026850   3.308   0.995   3.297  0.5217  0.8916  2.9331
   71MOL   H11126851   3.371   1.136   3.226  1.4103 -1.3382  0.5309
   71MOL   H11226852   3.118   0.890   3.172  0.2083  0.6607  0.7691
   71MOL   H11326853   3.007   0.874   2.937  0.5278  0.0942 -0.5239
   71MOL   H11426854   3.210   0.979   2.671  1.9727  2.3734  1.7459
   71MOL   H11526855   3.175   1.142   2.630  0.7631 -0.5698  0.5055
   71MOL   C11626856   3.076   1.001   2.495 -0.9339  0.0600 -0.0551
   71MOL   C11726857   3.009   0.868   2.506  0.4684  0.0482  0.4872
   71MOL   C11826858   2.868   0.861   2.479 -0.6466  0.2096  0.2649
   71MOL   C11926859   2.803   0.737   2.469 -0.1931 -0.4215  0.0189
   71MOL   C12026860   2.877   0.620   2.501  0.1488 -0.0256 -0.8632
   71MOL   C12126861   2.813   0.483   2.486 -0.3466 -0.5854  0.1881
   71MOL   C12226862   3.015   0.627   2.546  0.3067 -0.1538  0.2709
   71MOL   C12326863   3.079   0.753   2.541  0.1318 -0.0686 -0.5347
   71MOL   C12426864   3.196   1.016   2.397 -0.1973 -0.5032 -0.0523
   71MOL   H12526865   3.002   1.078   2.472 -0.7888 -0.6713 -3.1549
   71MOL   H12626866   2.806   0.947   2.461 -2.7751 -1.4053 -0.3511
   71MOL   H12726867   2.698   0.728   2.443 -0.2998  1.7716 -0.3818
   71MOL   H12826868   2.754   0.455   2.573 -0.6049  0.1735  0.2618
   71MOL   H12926869   2.754   0.464   2.396 -1.5245 -1.4754  1.1262
   71MOL   H13026870   2.899   0.418   2.471  1.2158  1.4276  0.1376
   71MOL   H13126871   3.066   0.539   2.584 -0.3186 -0.3730  0.6105
   71MOL   H13226872   3.183   0.767   2.568 -0.0889  0.0676  0.2507
   71MOL   H13326873   3.286   0.980   2.446 -0.6349 -1.0415  0.3529
   71MOL   H13426874   3.220   1.121   2.377  1.3662 -1.3264 -2.7673
   71MOL   C13526875   3.172   0.940   2.264  0.5470  0.8100 -0.1743
   71MOL   C13626876   3.298   0.928   2.176  0.0977 -0.0812 -0.1266
   71MOL   C13726877   3.361   0.801   2.157 -0.3214  0.6250 -0.9260
   71MOL   C13826878   3.473   0.801   2.073  0.9068 -0.4260 -0.3554
   71MOL   C13926879   3.522   0.919   2.012  0.2152  0.1195 -0.1365
   71MOL   C14026880   3.654   0.911   1.932 -0.0902  0.5968  0.2086
   71MOL   C14126881   3.455   1.044   2.033 -0.9230 -0.1927  1.0124
   71MOL   C14226882   3.342   1.045   2.118  0.1012  0.4735  0.2386
   71MOL   C14326883   3.039   0.973   2.189 -0.6391  0.4740 -0.3556
   71MOL   H14426884   3.166   0.838   2.303 -0.2109  0.9916  0.2026
   71MOL   H14526885   3.335   0.710   2.209  0.9845  1.7966  1.8397
   71MOL   H14626886   3.524   0.707   2.062 -0.4699 -1.1888 -0.3467
   71MOL   H14726887   3.737   0.867   1.987  1.8558  1.9095 -1.6148
   71MOL   H14826888   3.644   0.846   1.845 -1.0561  0.3286  0.5187
   71MOL   H14926889   3.684   1.012   1.904  1.3611  0.8665  2.5770
   71MOL   H15026890   3.491   1.129   1.976  0.2497 -0.9316  0.6323
   71MOL   H15126891   3.277   1.131   2.130 -0.0835  0.1124  2.0575
   71MOL   H15226892   3.051   1.064   2.130  2.5901 -0.5247 -1.3671
   71MOL   H15326893   2.958   0.988   2.260  0.5965  1.8800  0.7630
   71MOL   C15426894   2.998   0.865   2.080 -0.3697 -0.3208 -0.4970
   71MOL   C15526895   2.885   0.922   1.988  0.6605 -0.2119  0.4785
   71MOL   C15626896   2.924   0.974   1.859  0.2275  0.0502 -0.2057
   71MOL   C15726897   2.824   1.008   1.765 -0.1030 -0.1375  0.3796
   71MOL   C15826898   2.688   0.994   1.800  0.0963 -0.6452  0.3713
   71MOL   C15926899   2.589   1.017   1.694 -0.1547  1.2258 -0.1168
   71MOL   C16026900   2.649   0.968   1.934  0.1304  0.1845  0.3643
   71MOL   C16126901   2.748   0.921   2.026  0.2505 -0.8157  0.4130
   71MOL   C16226902   2.949   0.726   2.133  0.2682 -1.4265  0.4543
   71MOL   H16326903   3.085   0.864   2.014  1.3079 -2.2363  1.6784
   71MOL   H16426904   3.029   0.961   1.838 -0.0264 -3.5465  0.3643
   71MOL   H16526905   2.845   1.034   1.662 -0.8376 -1.0277 -0.0116
   71MOL   H16626906   2.580   0.923   1.641 -2.3942  1.0256  0.5532
   71MOL   H16726907   2.497   1.050   1.744 -0.5090 -0.4724  0.3781
   71MOL   H16826908   2.612   1.094   1.621  0.3433 -0.2178 -1.4991
   71MOL   H16926909   2.546   0.971   1.966 -0.3973  1.9558 -1.3701
   71MOL   H17026910   2.719   0.898   2.127  1.4623  0.6731  1.1337
   71MOL   H17126911   2.842   0.707   2.133 -0.0665  0.3375  1.1132
   71MOL   H17226912   2.981   0.714   2.237  1.7892 -2.3988 -0.0999
   71MOL   C17326913   3.003   0.604   2.059 -0.1152 -0.1655  0.0034
   71MOL   C17426914   2.952   0.606   1.918 -0.1618 -0.0449 -0.3823
   71MOL   C17526915   3.039   0.639   1.815  0.4460 -0.2619 -0.3764
   71MOL   C17626916   3.001   0.659   1.680  0.0658  0.7832  0.4595
   71MOL   C17726917   2.865   0.657   1.653 -0.5798 -0.0998 -0.5464
   71MOL   C17826918   2.828   0.692   1.513  0.3395 -0.3753 -0.6962
   71MOL   C17926919   2.774   0.615   1.752  0.0010  0.1470  0.2335
   71MOL   C18026920   2.814   0.597   1.888 -0.2315 -0.4123  0.3158
   71MOL   C18126921   2.966   0.463   2.127  0.7853 -0.3560 -0.1880
   71MOL   H18226922   3.111   0.619   2.066 -0.0593 -1.2038  1.6081
   71MOL   H18326923   3.145   0.649   1.834 -0.0587  0.4781  2.1199
   71MOL   H18426924   3.073   0.671   1.601 -0.3320  0.9551  0.1190
   71MOL   H18526925   2.888   0.777   1.481  0.2101 -0.6197 -1.5831
   71MOL   H18626926   2.845   0.608   1.446  0.5500 -0.9929  0.1155
   71MOL   H18726927   2.724   0.724   1.510 -0.2404 -1.7499  2.1503
   71MOL   H18826928   2.670   0.602   1.727 -0.2151 -0.5827  1.4847
   71MOL   H18926929   2.733   0.577   1.957  0.0349  1.9155  1.3466
   71MOL   H19026930   2.859   0.444   2.132  1.1060 -2.3543 -0.4995
   71MOL   H19126931   2.986   0.475   2.233 -0.4844 -0.1957  0.0452
   71MOL   C19226932   3.039   0.333   2.073 -0.1517 -0.4542  0.5751
   71MOL   C19326933   3.015   0.208   2.156 -0.0226 -0.1520  0.7752
   71MOL   C19426934   3.040   0.224   2.297 -0.4217 -0.2994 -0.4254
   71MOL   C19526935   3.019   0.117   2.387  0.8275 -0.2243 -0.0131
   71MOL   C19626936   2.982   8.075   2.334 -0.6190  0.6322 -0.1507
   71MOL   C19726937   2.968   7.958   2.419 -0.0657 -0.0004 -0.1997
   71MOL   C19826938   2.961   8.059   2.196  0.1987 -0.0603  0.0635
   71MOL   C19926939   2.969   0.085   2.106 -0.2304 -0.3488 -0.2867
   71MOL   C20026940   3.190   0.356   2.024  0.5093  0.4987  0.3876
   71MOL   H20126941   2.976   0.315   1.985  0.8857 -1.1580 -0.0368
   71MOL   H20226942   3.094   0.310   2.334 -1.0375 -1.3100  2.9300
   71MOL   H20326943   3.035   0.126   2.493  0.2601  0.5146  0.0192
   71MOL   H20426944   3.058   7.949   2.481 -0.0574 -2.6490 -0.5323
   71MOL   H20526945   2.892   7.972   2.495  0.5900 -1.5259  0.7643
   71MOL   H20626946   2.948   7.864   2.368  0.3515  0.4780 -1.2572
   71MOL   H20726947   2.931   7.967   2.150  0.8516 -1.1706  1.7977
   71MOL   H20826948   2.936   0.066   2.006  0.5148 -0.4123 -0.5229
   71MOL   H20926949   3.248   0.405   2.102  0.3361 -1.4186  1.7841
   71MOL   H21026950   3.205   0.425   1.942 -0.2033  1.1932  0.8404
   71MOL   C21126951   3.279   0.228   1.990 -0.1472 -0.6176  0.3091
   71MOL   C21226952   3.424   0.268   1.974  0.3796 -0.6502 -0.3118
   71MOL   C21326953   3.466   0.348   1.869 -0.1925  0.3716 -1.0002
   71MOL   C21426954   3.597   0.397   1.859 -0.3747 -0.1794 -0.1062
   71MOL   C21526955   3.694   0.341   1.945  0.9874  0.3146 -1.1479
   71MOL   C21626956   3.843   0.362   1.926 -0.6376 -0.6151  0.6302
   71MOL   C21726957   3.656   0.249   2.043  0.2776  0.1773 -0.5771
   71MOL   C21826958   3.523   0.224   2.062 -0.1412 -0.0541  0.1978
   71MOL   C21926959   3.222   0.145   1.872  0.3973 -0.4569  0.1007
   71MOL   H22026960   3.275   0.169   2.082 -1.6741 -0.4626  0.3687
   71MOL   H22126961   3.396   0.386   1.796  1.0414  3.0490 -0.8542
   71MOL   H22226962   3.626   0.469   1.784 -0.0081 -2.0701 -1.8074
   71MOL   H22326963   3.882   0.269   1.885 -0.4313  0.4879 -1.7404
   71MOL   H22426964   3.873   0.437   1.854 -0.2541 -3.0023 -1.7873
   71MOL   H22526965   3.892   0.382   2.021 -1.6371  0.6668  0.8998
   71MOL   H22626966   3.731   0.193   2.096  0.0559  1.8614  1.6057
   71MOL   H22726967   3.498   0.154   2.140  2.2074  1.0402  1.9814
   71MOL   H22826968   3.196   0.213   1.791  0.5729 -0.8788 -0.3113
   71MOL   H22926969   3.123   0.114   1.905 -0.4563  3.0524  1.0484
   71MOL   C23026970   3.309   0.025   1.815  0.5186 -0.3208 -0.3534
   71MOL   C23126971   3.218   8.022   1.727 -0.0461  0.0993 -0.2249
   71MOL   C23226972   3.239   8.028   1.585 -0.9393  0.1917 -0.3630
   71MOL   C23326973   3.146   7.965   1.502 -0.1990 -0.6371 -0.7727
   71MOL   C23426974   3.028   7.901   1.556  0.2671  0.4675  0.0144
   71MOL   C23526975   2.932   7.835   1.458 -0.2996 -0.0949  0.0366
   71MOL   C23626976   3.018   7.886   1.695  0.7068 -0.0015 -0.1846
   71MOL   C23726977   3.114   7.944   1.778  0.1468  0.3329  0.1366
   71MOL   C23826978   3.384   8.023   1.918  0.6761 -0.0973 -0.1074
   71MOL   H23926979   3.384   0.073   1.753  1.0609  0.2561  0.7296
   71MOL   H24026980   3.326   8.074   1.540 -0.0543 -2.1276 -1.1270
   71MOL   H24126981   3.154   7.970   1.394 -0.0717  0.5286 -0.7120
   71MOL   H24226982   2.990   7.810   1.369  0.2188  0.7631  0.1233
   71MOL   H24326983   2.887   7.747   1.504 -0.3792 -1.0386 -1.7711
   71MOL   H24426984   2.846   7.893   1.426  0.3531  0.4043 -0.8309
   71MOL   H24526985   2.938   7.822   1.729  0.2569 -0.2100 -1.5988
   71MOL   H24626986   3.110   7.921   1.884  0.4721  0.4067  0.1670
   71MOL   H24726987   3.314   7.982   1.991 -0.6810  0.1453 -1.2529
   71MOL   H24826988   3.447   0.002   1.984 -3.7437  1.1206  3.3007
   71MOL   C24926989   3.480   7.911   1.859 -0.4563 -0.4444 -0.0499
   71MOL   C25026990   3.553   7.837   1.973  0.4248  0.1182  0.4300
   71MOL   C25126991   3.647   7.903   2.050  0.0267  0.3584 -0.1735
   71MOL   C25226992   3.712   7.836   2.157 -0.1362 -0.1212 -0.5697
   71MOL   C25326993   3.676   7.703   2.193 -0.1389 -0.2486  0.5425
   71MOL   C25426994   3.738   7.634   2.304  0.1515  0.1683 -0.0336
   71MOL   C25526995   3.590   7.632   2.105 -0.6303 -1.0144  0.4239
   71MOL   C25626996   3.538   7.704   1.995  0.2308  0.6026 -0.4243
   71MOL   C25726997   3.586   7.965   1.761 -0.3086 -0.4278 -0.6676
   71MOL   H25826998   3.423   7.832   1.809  2.2531 -1.1290 -2.1733
   71MOL   H25926999   3.673   8.006   2.028 -0.8364  0.7241  0.5099
   71MOL   H26027000   3.779   7.891   2.221  0.8539 -0.3649 -1.3943
   71MOL   H26127001   3.676   7.644   2.393  0.2056  0.3517 -0.0178
   71MOL   H26227002   3.763   7.530   2.279  2.4871  1.0706 -1.5668
   71MOL   H26327003   3.827   7.692   2.327 -1.2452  1.5544  2.0531
   71MOL   H26427004   3.570   7.526   2.117 -0.1312 -1.0743  0.7420
   71MOL   H26527005   3.468   7.648   1.935  0.2650  1.7001 -1.5103
   71MOL   H26627006   3.649   8.025   1.827  0.5485  0.6166 -2.4118
   71MOL   H26727007   3.547   8.026   1.680  1.9460  0.7220 -0.9302
   71MOL   C26827008   3.690   7.867   1.701 -0.1295 -0.4343 -0.2959
   71MOL   C26927009   3.824   7.938   1.661  0.3342 -0.1968  0.1713
   71MOL   C27027010   3.833   8.025   1.550 -0.3289 -0.2848  0.4521
   71MOL   C27127011   3.957   0.010   1.526 -0.3611 -0.4251 -0.0535
   71MOL   C27227012   4.076   8.068   1.600 -0.1856  0.3427  0.0869
   71MOL   C27327013   4.207   0.039   1.555 -0.6345  0.1580  0.2211
   71MOL   C27427014   4.066   7.976   1.705 -0.1685 -0.1965  0.0280
   71MOL   C27527015   3.942   7.917   1.739  0.8523 -0.4759 -0.5259
   71MOL   C27627016   3.627   7.795   1.584 -0.1451  0.2690  0.1333
   71MOL   H27727017   3.721   7.798   1.779  2.5836 -0.6973 -1.5474
   71MOL   H27827018   3.750   8.037   1.482 -1.1719 -3.7432  0.7491
   71MOL   H27927019   3.955   0.063   1.432 -0.7882 -1.3850 -0.5864
   71MOL   H28027020   4.289   8.070   1.608  1.6043  2.4215 -1.0397
   71MOL   H28127021   4.213   0.030   1.447 -0.8461  3.0226 -0.0449
   71MOL   H28227022   4.221   0.146   1.570  1.3050  0.2428 -1.9376
   71MOL   H28327023   4.147   7.958   1.774 -0.9181 -0.2229  0.9120
   71MOL   H28427024   3.940   7.853   1.826 -0.1333  0.2749  0.0208
   71MOL   H28527025   3.703   7.778   1.507 -0.3099  2.1603 -0.4738
   71MOL   H28627026   3.571   7.871   1.530 -0.2548  0.1513  0.0824
   71MOL   C28727027   3.552   7.663   1.603 -0.2979 -0.0761  0.3759
   71MOL   C28827028   3.643   7.536   1.616 -0.2981 -0.2357  0.0867
   71MOL   C28927029   3.626   7.443   1.717  0.4959 -0.0462 -0.1561
   71MOL   C29027030   3.711   7.329   1.721 -0.0317  0.0777 -0.1375
   71MOL   C29127031   3.818   7.317   1.628  0.2580 -0.1496 -0.1930
   71MOL   C29227032   3.923   7.212   1.652  0.0878  0.3968  0.0862
   71MOL   C29327033   3.828   7.409   1.523  0.2946  0.4466  0.2539
   71MOL   C29427034   3.735   7.515   1.509 -0.4869  0.1091 -0.4726
   71MOL   C29527035   3.429   7.648   1.510 -0.3350 -0.5420 -0.3690
   71MOL   H29627036   3.516   7.672   1.706 -0.1724 -0.7709  0.4818
   71MOL   H29727037   3.542   7.450   1.785 -0.2510 -2.8816 -0.7303
   71MOL   H29827038   3.694   7.256   1.798 -0.1157 -2.4906 -2.4722
   71MOL   H29927039   3.899   7.108   1.626 -2.8060  1.6064 -2.4221
   71MOL   H30027040   4.007   7.231   1.586 -0.6244  1.2778 -0.5771
   71MOL   H30127041   3.971   7.225   1.749  2.3368 -0.5866 -0.8698
   71MOL   H30227042   3.901   7.392   1.446 -0.4626  0.8599 -0.5682
   71MOL   H30327043   3.720   7.570   1.417  0.6006  0.8170 -0.2340
   71MOL   H30427044   3.459   7.631   1.407  1.5363 -2.1138  0.4097
   71MOL   H30527045   3.367   7.737   1.503  0.5291  0.0977  0.0273
   71MOL   C30627046   3.335   7.538   1.564 -0.1521 -0.1740  0.1015
   71MOL   C30727047   3.255   7.475   1.447 -0.6148  0.3130  0.5704
   71MOL   C30827048   3.176   7.557   1.362  0.4696 -0.5457  0.0726
   71MOL   C30927049   3.115   7.497   1.247  0.1982 -0.0429 -0.1056
   71MOL   C31027050   3.118   7.357   1.223  0.1416  0.2029  0.7618
   71MOL   C31127051   3.060   7.301   1.098 -0.5265 -0.6366 -0.4807
   71MOL   C31227052   3.197   7.277   1.308  0.3712 -0.1703  0.7506
   71MOL   C31327053   3.270   7.336   1.415 -0.5375  0.1330 -0.1248
   71MOL   C31427054   3.239   7.585   1.690 -0.5216 -0.3735 -0.2918
   71MOL   H31527055   3.396   7.455   1.600  0.8601  1.5439  2.4582
   71MOL   H31627056   3.167   7.662   1.386  0.1876 -0.4407 -0.4980
   71MOL   H31727057   3.068   7.569   1.182  1.0038 -0.2162 -0.8860
   71MOL   H31827058   3.057   7.376   1.020  1.1172  0.3985  0.4244
   71MOL   H31927059   3.117   7.218   1.056  1.4854 -0.3185  1.5386
   71MOL   H32027060   2.957   7.274   1.124 -0.4667 -1.2230 -0.8277
   71MOL   H32127061   3.200   7.170   1.290 -0.5403  0.0682 -0.8398
   71MOL   H32227062   3.345   7.279   1.467 -0.9832  0.1613  0.5551
   71MOL   H32327063   3.176   7.670   1.664 -0.6265 -0.2171  0.4681
   71MOL   H32427064   3.292   7.616   1.780 -2.2790 -0.0792  0.6746
   71MOL   C32527065   3.146   7.468   1.730  0.5122 -0.2710 -0.0761
   71MOL   C32627066   3.040   7.515   1.827  0.1371 -0.3855  0.3430
   71MOL   C32727067   2.903   7.497   1.795 -0.2313 -0.1415  0.1323
   71MOL   C32827068   2.801   7.549   1.875  0.2033  0.6905 -0.6052
   71MOL   C32927069   2.832   7.618   1.998  0.3024 -0.3124 -0.2446
   71MOL   C33027070   2.735   7.688   2.087  0.1046  0.1987 -0.4761
   71MOL   C33127071   2.967   7.641   2.024 -0.9257 -0.5511  0.2887
   71MOL   C33227072   3.071   7.587   1.951  0.1677  0.8590  0.5903
   71MOL   C33327073   3.241   7.355   1.790  0.0824  0.1566  0.1336
   71MOL   H33427074   3.086   7.415   1.656  0.5115 -0.4838  0.0752
   71MOL   H33527075   2.875   7.447   1.704 -0.1760 -2.3645  1.3031
   71MOL   H33627076   2.697   7.540   1.847 -0.0125 -0.6107  0.5534
   71MOL   H33727077   2.679   7.773   2.050 -0.4246  0.6815  1.3907
   71MOL   H33827078   2.656   7.618   2.114  0.5838 -0.7900 -1.6155
   71MOL   H33927079   2.774   7.715   2.186 -0.7509  0.5894 -0.2451
   71MOL   H34027080   2.996   7.697   2.112  2.0502  0.3619 -1.2062
   71MOL   H34127081   3.169   7.608   1.990 -0.5247  1.6556  1.9597
   71MOL   H34227082   3.301   7.398   1.871 -0.4698 -0.2458  0.7706
   71MOL   H34327083   3.314   7.320   1.717  0.2978 -0.1595  0.4911
   71MOL   C34427084   3.165   7.230   1.851  0.0241  0.0245 -0.5825
   71MOL   C34527085   3.247   7.155   1.952 -0.7540 -0.8147 -0.7035
   71MOL   C34627086   3.379   7.106   1.926  0.0166  0.3394  0.1288
   71MOL   C34727087   3.454   7.039   2.028 -0.6821 -0.1454  0.0938
   71MOL   C34827088   3.409   7.032   2.160  0.0808  0.6755  0.6108
   71MOL   C34927089   3.499   6.989   2.278  0.3233  0.6602 -0.1559
   71MOL   C35027090   3.286   7.095   2.196  0.3541  0.4243  0.5845
   71MOL   C35127091   3.206   7.147   2.088  0.3978 -0.3831  0.1451
   71MOL   C35227092   3.102   7.133   1.746 -0.1645 -0.8158  0.1689
   71MOL   H35327093   3.082   7.272   1.908  1.6720  2.0734  0.3897
   71MOL   H35427094   3.420   7.106   1.826  0.2960 -1.8416  0.2173
   71MOL   H35527095   3.542   6.986   1.998 -1.7139 -1.0210 -1.4407
   71MOL   H35627096   3.476   7.061   2.356 -1.5141 -0.2053  0.1428
   71MOL   H35727097   3.481   6.892   2.326  0.9567  0.6071 -0.0277
   71MOL   H35827098   3.607   6.996   2.276  0.5045 -1.2310  1.1497
   71MOL   H35927099   3.256   7.106   2.299  1.5085  0.7754  0.8952
   71MOL   H36027100   3.110   7.193   2.108  0.0093 -0.7589 -0.8088
   71MOL   H36127101   3.185   7.115   1.679 -0.3135  0.2277 -0.3123
   71MOL   H36227102   3.034   7.191   1.683 -0.4979 -1.9754 -0.5445
   71MOL   C36327103   3.039   7.002   1.785  0.1251  0.2559  0.2415
   71MOL   C36427104   3.014   6.913   1.668  0.2145  0.7000 -0.6958
   71MOL   C36527105   2.886   6.884   1.618  0.5518  0.1019 -0.3047
   71MOL   C36627106   2.864   6.808   1.502  0.3928 -0.4873 -0.4860
   71MOL   C36727107   2.973   6.766   1.425 -0.2687  0.3381 -0.0951
   71MOL   C36827108   2.949   6.699   1.291 -0.4375  0.1593  0.1612
   71MOL   C36927109   3.105   6.783   1.479 -0.6335  0.7027  0.2203
   71MOL   C37027110   3.122   6.854   1.597 -0.0006  0.4357  0.3553
   71MOL   C37127111   2.913   7.006   1.879 -0.1537  0.2131  0.3506
   71MOL   H37227112   3.117   6.953   1.843  0.6468 -0.0457 -0.6843
   71MOL   H37327113   2.799   6.934   1.658 -0.4189 -0.5362 -1.5871
   71MOL   H37427114   2.763   6.791   1.467  0.5271 -2.1976 -0.0920
   71MOL   H37527115   2.860   6.743   1.247 -0.4646 -0.7700 -0.7392
   71MOL   H37627116   3.037   6.709   1.227 -0.3090 -2.0766 -0.0646
   71MOL   H37727117   2.933   6.591   1.287  0.5391  0.0621 -1.9844
   71MOL   H37827118   3.188   6.730   1.433 -1.8366 -2.2725  1.3547
   71MOL   H37927119   3.221   6.865   1.638  0.6169 -2.0640 -0.3846
   71MOL   H38027120   2.838   7.063   1.826 -0.0269  0.2549  0.2154
   71MOL   H38127121   2.938   7.063   1.968 -2.1312 -0.4955  1.3763
   71MOL   H38227122   2.877   6.907   1.908 -0.8322  0.3269 -0.0886
   72MOL     C127123   6.182   3.852   3.773 -0.0245 -0.9621  0.4785
   72MOL     C227124   6.269   3.960   3.832 -0.3287  0.3657  0.8840
   72MOL     C327125   6.216   4.063   3.906 -0.1087 -0.5907  0.3087
   72MOL     C427126   6.301   4.165   3.958  0.1785 -0.1061  0.2012
   72MOL     C527127   6.438   4.169   3.932 -0.2803 -0.5658  0.0235
   72MOL     C627128   6.531   4.275   3.991  0.2206 -0.1889 -1.0636
   72MOL     C727129   6.490   4.059   3.860  0.5113 -0.3315 -0.3503
   72MOL     C827130   6.406   3.954   3.816 -0.8320 -0.4636  0.2723
   72MOL     C927131   6.228   3.794   3.638 -0.7802  0.1328 -0.8065
   72MOL    H1027132   6.173   3.767   3.840  1.5106 -1.7678 -0.3095
   72MOL    H1127133   6.109   4.071   3.921 -0.3839 -0.2891 -1.6792
   72MOL    H1227134   6.255   4.242   4.018  0.3088 -0.5768  0.9073
   72MOL    H1327135   6.553   4.346   3.911  0.7898  0.0110 -0.7301
   72MOL    H1427136   6.484   4.320   4.078  2.5364 -0.0498  0.1647
   72MOL    H1527137   6.616   4.229   4.043 -0.2727  1.0455  0.8736
   72MOL    H1627138   6.596   4.047   3.847  0.5230  0.7338 -1.3818
   72MOL    H1727139   6.455   3.875   3.761  0.6398 -0.6354  1.7986
   72MOL    H1827140   6.175   3.700   3.619 -0.9885  0.2276 -0.6874
   72MOL    H1927141   6.330   3.759   3.654 -1.1937 -1.0122 -0.6406
   72MOL    H2027142   6.084   3.893   3.751  0.7075  1.0456  0.8238
   72MOL    C2127143   6.211   3.889   3.513  0.0463 -0.3890 -0.6069
   72MOL    C2227144   6.065   3.896   3.465 -0.1887  0.4972 -0.4186
   72MOL    C2327145   5.994   4.018   3.476  0.0699  0.2676 -0.1264
   72MOL    C2427146   5.860   4.029   3.433 -0.3063  0.4472 -1.1999
   72MOL    C2527147   5.804   3.913   3.370  0.2769  0.3830 -0.7694
   72MOL    C2627148   5.663   3.929   3.320  0.1585  0.4213 -0.1806
   72MOL    C2727149   5.884   3.810   3.329  0.7553  0.3490 -0.9153
   72MOL    C2827150   6.009   3.788   3.391 -0.4574 -0.7267  0.2743
   72MOL    C2927151   6.298   3.854   3.384  0.0011  0.9083 -0.2117
   72MOL    H3027152   6.239   3.991   3.539 -1.7923 -0.1179  0.4018
   72MOL    H3127153   6.044   4.099   3.527 -0.5073  1.4879 -1.4587
   72MOL    H3227154   5.802   4.117   3.456  0.2908  0.3507  0.8034
   72MOL    H3327155   5.594   3.928   3.405 -0.5912 -1.8556 -0.7659
   72MOL    H3427156   5.632   4.015   3.261  0.5366  0.8210  0.2056
   72MOL    H3527157   5.621   3.848   3.260 -2.7397  0.9047  1.1136
   72MOL    H3627158   5.858   3.744   3.247 -1.1286  1.5032 -1.2542
   72MOL    H3727159   6.066   3.698   3.371  0.4161  0.2943 -1.9709
   72MOL    H3827160   6.262   3.916   3.303 -0.5092  3.1233  1.6557
   72MOL    H3927161   6.286   3.751   3.349  2.6184  1.4052 -2.7536
   72MOL    C4027162   6.446   3.883   3.406 -0.2046  0.2735 -0.1680
   72MOL    C4127163   6.486   4.024   3.361  0.0924 -0.8178 -0.9775
   72MOL    C4227164   6.486   4.127   3.466 -0.0361 -0.8131  0.8848
   72MOL    C4327165   6.494   4.266   3.430  0.0723  0.4321  0.0015
   72MOL    C4427166   6.505   4.298   3.291  0.6080  0.4309  0.4600
   72MOL    C4527167   6.503   4.440   3.242 -1.0656 -0.5776 -0.3952
   72MOL    C4627168   6.509   4.194   3.192  0.1502  0.0471  0.3692
   72MOL    C4727169   6.494   4.064   3.227  0.2693 -0.3728  0.6321
   72MOL    C4827170   6.540   3.771   3.362 -0.3323 -0.1672  0.1843
   72MOL    H4927171   6.468   3.894   3.512  0.2639 -0.5444 -0.1777
   72MOL    H5027172   6.460   4.095   3.566 -0.0352 -0.4691  0.9938
   72MOL    H5127173   6.488   4.342   3.506 -2.3249 -2.0168  2.3586
   72MOL    H5227174   6.610   4.451   3.228 -1.0836 -0.2724 -0.2846
   72MOL    H5327175   6.457   4.435   3.144 -1.1303 -1.3815 -0.3335
   72MOL    H5427176   6.459   4.518   3.304 -1.4938 -1.2535  0.1599
   72MOL    H5527177   6.529   4.224   3.091 -0.3761  2.1444  0.8609
   72MOL    H5627178   6.507   3.983   3.157  0.0106  0.8989 -0.9135
   72MOL    H5727179   6.643   3.800   3.344  0.3865 -2.0884  1.0763
   72MOL    H5827180   6.520   3.726   3.264  1.3065 -0.7810  0.1287
   72MOL    C5927181   6.551   3.651   3.466 -0.4817 -0.2107 -0.4306
   72MOL    C6027182   6.620   3.704   3.599 -0.2104  1.1622  0.0528
   72MOL    C6127183   6.592   3.644   3.726  0.0117 -0.0034 -0.4025
   72MOL    C6227184   6.642   3.698   3.851  0.1576 -0.0040  0.1453
   72MOL    C6327185   6.721   3.812   3.845 -0.5121  0.2835  0.3756
   72MOL    C6427186   6.766   3.878   3.971  0.3023  0.1511 -0.1036
   72MOL    C6527187   6.765   3.861   3.718 -0.0097  0.1419  0.3688
   72MOL    C6627188   6.716   3.809   3.598  0.8830  1.0322  0.8309
   72MOL    C6727189   6.608   3.517   3.426 -0.0801  0.7349  0.1391
   72MOL    H6827190   6.449   3.632   3.499 -0.3895  1.0252  0.6248
   72MOL    H6927191   6.525   3.560   3.738 -0.6961  0.7610  1.1888
   72MOL    H7027192   6.623   3.658   3.949  0.4625  1.1461  0.6894
   72MOL    H7127193   6.688   3.937   4.019 -1.3596  0.1379 -2.7453
   72MOL    H7227194   6.776   3.795   4.041 -1.6095  0.3076  0.3766
   72MOL    H7327195   6.860   3.935   3.969 -0.5837  1.6186 -0.6069
   72MOL    H7427196   6.837   3.942   3.722 -1.8911  1.9631 -1.5214
   72MOL    H7527197   6.743   3.859   3.506 -1.3352 -1.7332 -1.4307
   72MOL    H7627198   6.583   3.443   3.502  0.2149 -1.1531 -1.5459
   72MOL    H7727199   6.716   3.529   3.433  0.0195 -1.5614  3.5047
   72MOL    C7827200   6.567   3.471   3.292  1.0350  0.3305  0.0457
   72MOL    C7927201   6.422   3.494   3.250 -0.0368 -0.0544 -0.6529
   72MOL    C8027202   6.314   3.450   3.334 -0.9620  0.5011  0.4280
   72MOL    C8127203   6.181   3.459   3.288 -0.4365 -0.0148 -0.6205
   72MOL    C8227204   6.155   3.502   3.154 -0.1428 -0.4054  0.1832
   72MOL    C8327205   6.014   3.522   3.096  0.0124 -0.6898 -0.5166
   72MOL    C8427206   6.263   3.548   3.074  0.2201 -0.1878  0.1556
   72MOL    C8527207   6.398   3.540   3.119  0.1316 -0.1568 -0.1851
   72MOL    C8627208   6.615   3.327   3.276  0.8258 -0.2998 -0.1935
   72MOL    H8727209   6.627   3.526   3.220 -0.0757 -0.0921 -1.2206
   72MOL    H8827210   6.335   3.405   3.429 -0.0176  0.3943  0.1725
   72MOL    H8927211   6.098   3.427   3.348  0.6447  1.6069  1.8223
   72MOL    H9027212   6.003   3.630   3.083  1.8788 -0.3093  0.8518
   72MOL    H9127213   6.000   3.461   3.007  0.5594 -2.2770  0.4527
   72MOL    H9227214   5.938   3.486   3.165 -2.1829  0.4442 -2.2986
   72MOL    H9327215   6.235   3.580   2.975 -0.4627 -0.0824  0.3805
   72MOL    H9427216   6.474   3.577   3.052  0.9166  1.3716  1.4887
   72MOL    H9527217   6.538   3.264   3.320  1.5235  0.7141  2.5862
   72MOL    H9627218   6.703   3.293   3.331  0.9096 -0.1336 -0.2216
   72MOL    C9727219   6.633   3.271   3.131 -0.2707  0.6704  0.2708
   72MOL    C9827220   6.572   3.137   3.116 -0.5715  1.0600  0.2517
   72MOL    C9927221   6.641   3.029   3.172 -0.2459 -0.3471  0.8213
   72MOL   C10027222   6.587   2.895   3.166 -0.5756  0.2799  1.0585
   72MOL   C10127223   6.463   2.875   3.104  0.6116 -0.3029 -0.4196
   72MOL   C10227224   6.390   2.742   3.127 -0.9764  0.0297 -0.3361
   72MOL   C10327225   6.396   2.988   3.052 -0.4554  0.4313  0.1401
   72MOL   C10427226   6.448   3.119   3.051 -0.4107 -0.3311  0.1806
   72MOL   C10527227   6.780   3.280   3.080  0.9282 -0.0316 -0.0117
   72MOL   H10627228   6.575   3.337   3.067 -0.2186  0.2980 -0.1709
   72MOL   H10727229   6.728   3.050   3.232  0.4071  0.0897 -0.2522
   72MOL   H10827230   6.637   2.812   3.213  0.4942 -0.2360 -0.9315
   72MOL   H10927231   6.466   2.665   3.137 -0.7328  0.1009 -1.6154
   72MOL   H11027232   6.333   2.748   3.220  0.2674 -0.3718  0.4658
   72MOL   H11127233   6.334   2.703   3.042  0.3426 -0.3703 -1.0347
   72MOL   H11227234   6.301   2.983   3.000 -0.2782 -1.2262 -0.0517
   72MOL   H11327235   6.388   3.202   3.017 -0.1403  0.5031  1.7259
   72MOL   H11427236   6.777   3.237   2.980  0.8376  0.6531 -0.3065
   72MOL   H11527237   6.840   3.218   3.147 -0.0140  0.0267  0.9004
   72MOL   C11627238   6.850   3.421   3.077  0.4183 -0.1166 -0.2566
   72MOL   C11727239   6.770   3.519   2.994  0.3853  0.3858  0.4116
   72MOL   C11827240   6.796   3.653   3.026  0.4083 -0.9949 -0.3110
   72MOL   C11927241   6.743   3.753   2.943 -0.8948 -0.2443  0.0226
   72MOL   C12027242   6.657   3.721   2.838 -0.4917 -0.1311 -0.0528
   72MOL   C12127243   6.596   3.831   2.758  0.9208 -0.3741  1.2671
   72MOL   C12227244   6.631   3.584   2.809 -0.5615  0.3502  0.1691
   72MOL   C12327245   6.694   3.477   2.885  0.0210  0.9217 -0.4687
   72MOL   C12427246   6.997   3.415   3.030  0.9479  0.0295 -0.6136
   72MOL   H12527247   6.845   3.459   3.179  1.0142  0.8015 -0.5708
   72MOL   H12627248   6.865   3.679   3.105  1.9202  0.0017 -1.8950
   72MOL   H12727249   6.768   3.856   2.966 -1.7208 -0.2342  0.9022
   72MOL   H12827250   6.657   3.890   2.691 -1.5799  1.3409  0.4285
   72MOL   H12927251   6.521   3.792   2.689 -0.7176  0.9439  2.2612
   72MOL   H13027252   6.551   3.894   2.834  0.2055  0.2469  0.3346
   72MOL   H13127253   6.578   3.554   2.719  2.7716  0.1081 -1.8102
   72MOL   H13227254   6.675   3.373   2.862  0.1515  0.7450  0.2278
   72MOL   H13327255   7.022   3.504   2.972  0.1037  2.2359  2.3093
   72MOL   H13427256   7.003   3.338   2.954 -0.2943  2.8893 -3.7651
   72MOL   C13527257   7.103   3.385   3.142  0.1865  0.5622  0.4826
   72MOL   C13627258   7.103   3.501   3.239 -0.6068  0.5173 -0.2531
   72MOL   C13727259   7.183   3.619   3.206  0.1786 -0.0789 -0.4070
   72MOL   C13827260   7.166   3.742   3.282  0.6864 -0.3683 -0.2267
   72MOL   C13927261   7.082   3.737   3.395 -0.3275  0.0965  0.0571
   72MOL   C14027262   7.076   3.860   3.476  0.4526 -0.2880 -0.2468
   72MOL   C14127263   7.019   3.618   3.436  0.4555  0.5441 -0.1694
   72MOL   C14227264   7.023   3.498   3.356  0.2335  0.2304 -0.1532
   72MOL   C14327265   7.242   3.342   3.083  0.0847 -0.4338  0.6208
   72MOL   H14427266   7.068   3.304   3.206 -0.2416 -0.1525 -0.6560
   72MOL   H14527267   7.243   3.628   3.117 -0.1192  0.3587 -0.5648
   72MOL   H14627268   7.226   3.826   3.250 -1.4266  0.6671 -1.6031
   72MOL   H14727269   7.050   3.828   3.577 -0.0459  0.3539 -0.1679
   72MOL   H14827270   7.171   3.912   3.482 -0.6892  2.0906 -1.9108
   72MOL   H14927271   7.003   3.929   3.434  1.4845 -0.4848 -2.4423
   72MOL   H15027272   6.966   3.611   3.530 -0.6908  2.2580 -0.6768
   72MOL   H15127273   6.977   3.405   3.384  0.5488  1.2627  3.9981
   72MOL   H15227274   7.309   3.352   3.168  0.9323 -0.0241 -0.0901
   72MOL   H15327275   7.278   3.421   3.017 -0.9461 -1.7525 -1.6152
   72MOL   C15427276   7.256   3.198   3.024  0.8561  0.0097 -0.1891
   72MOL   C15527277   7.173   3.094   3.093  0.6743  0.0899  0.0245
   72MOL   C15627278   7.204   3.050   3.225 -0.5036  0.4388 -1.1799
   72MOL   C15727279   7.119   2.965   3.294  1.1507  0.3043 -0.0507
   72MOL   C15827280   7.009   2.904   3.231 -0.2594  0.1011 -0.4557
   72MOL   C15927281   6.923   2.812   3.310  0.1374  0.2685 -0.1184
   72MOL   C16027282   6.981   2.930   3.094  0.0601  0.3597 -1.0246
   72MOL   C16127283   7.055   3.033   3.028 -0.9450  0.0413 -0.4910
   72MOL   C16227284   7.404   3.164   3.040 -0.6096  0.5682  0.2455
   72MOL   H16327285   7.230   3.213   2.919 -1.3282 -1.1430  0.1571
   72MOL   H16427286   7.278   3.097   3.289  0.7416 -1.2170 -1.3737
   72MOL   H16527287   7.131   2.938   3.398 -1.6133  1.8327  0.7239
   72MOL   H16627288   6.983   2.753   3.379 -2.1242 -0.0358  1.6488
   72MOL   H16727289   6.851   2.869   3.369 -0.3186  0.7518 -1.1182
   72MOL   H16827290   6.862   2.736   3.261  1.2970 -1.2758  0.7761
   72MOL   H16927291   6.894   2.881   3.052  2.3421 -3.3918 -1.6329
   72MOL   H17027292   7.033   3.062   2.927 -2.5250  0.7790  0.0529
   72MOL   H17127293   7.410   3.064   2.998  0.4737  0.1863  1.2583
   72MOL   H17227294   7.437   3.166   3.144  1.0991 -0.9556 -0.2373
   72MOL   C17327295   7.507   3.250   2.967 -0.3761  0.8494 -0.1999
   72MOL   C17427296   7.478   3.244   2.813 -0.4015  0.2627 -0.3814
   72MOL   C17527297   7.427   3.357   2.750 -0.4009  0.6623  0.1214
   72MOL   C17627298   7.411   3.356   2.609 -0.7241  0.1123 -0.5709
   72MOL   C17727299   7.457   3.245   2.532  0.4942  0.9729  0.0126
   72MOL   C17827300   7.430   3.241   2.385  0.4475 -0.0587 -0.1275
   72MOL   C17927301   7.513   3.136   2.594 -0.3494 -0.4275 -0.5948
   72MOL   C18027302   7.523   3.139   2.736 -0.1277  0.7694  0.1925
   72MOL   C18127303   7.660   3.204   3.004 -0.4729  0.0802 -0.0545
   72MOL   H18227304   7.507   3.351   3.008 -1.8539  0.7624  0.0438
   72MOL   H18327305   7.408   3.446   2.808 -0.4196 -0.3339  1.6864
   72MOL   H18427306   7.363   3.441   2.562  0.6352  0.8278 -0.7041
   72MOL   H18527307   7.504   3.171   2.346  1.1701  1.1047 -0.8754
   72MOL   H18627308   7.333   3.203   2.354  0.6018 -0.4354 -0.1542
   72MOL   H18727309   7.453   3.334   2.333  1.4181 -0.3335 -0.2073
   72MOL   H18827310   7.556   3.057   2.534 -0.9394 -0.4485 -0.9946
   72MOL   H18927311   7.579   3.058   2.779 -0.0043 -0.8041 -2.8081
   72MOL   H19027312   7.726   3.244   2.927  0.5045  0.1315  0.8119
   72MOL   H19127313   7.676   3.097   2.989  1.4364  0.5446 -1.4680
   72MOL   C19227314   7.706   3.242   3.146 -0.5375  0.0823  0.1920
   72MOL   C19327315   7.668   3.383   3.188  0.0970 -0.4545 -0.2606
   72MOL   C19427316   7.690   3.487   3.092  0.0261 -0.2022 -0.4654
   72MOL   C19527317   7.647   3.620   3.114  0.0188  0.2031 -0.4202
   72MOL   C19627318   7.599   3.654   3.238  0.2799 -0.7152 -0.8376
   72MOL   C19727319   7.545   3.800   3.269 -0.3219  0.6773  0.0025
   72MOL   C19827320   7.591   3.558   3.338 -0.8720 -0.4559 -0.0784
   72MOL   C19927321   7.625   3.424   3.314  0.3614  0.1066  0.0835
   72MOL   C20027322   7.859   3.219   3.169  0.2041  0.3347 -0.1762
   72MOL   H20127323   7.640   3.182   3.210 -0.9618  1.0702  0.6895
   72MOL   H20227324   7.737   3.460   2.999  2.2360 -0.0851  0.5949
   72MOL   H20327325   7.659   3.705   3.048  0.6481 -0.3704 -1.0623
   72MOL   H20427326   7.438   3.785   3.282 -0.2795  0.2439 -0.1350
   72MOL   H20527327   7.587   3.857   3.352  3.3144 -0.5374 -0.9168
   72MOL   H20627328   7.554   3.864   3.182 -0.4245 -0.0139 -0.5259
   72MOL   H20727329   7.569   3.585   3.441  0.9703  1.2996 -0.1065
   72MOL   H20827330   7.606   3.346   3.385 -0.5716 -0.0711 -0.3490
   72MOL   H20927331   7.884   3.239   3.273  0.3187 -1.0229  0.0648
   72MOL   H21027332   7.911   3.293   3.108  1.4607 -1.0547 -0.8081
   72MOL   C21127333   7.918   3.078   3.133  0.2257 -0.2961  0.0115
   72MOL   C21227334   7.832   2.961   3.179 -0.2983  0.3415  0.0622
   72MOL   C21327335   7.791   2.950   3.319  0.3053  0.3710  0.2842
   72MOL   C21427336   7.703   2.848   3.357  0.3911  0.4661  0.6334
   72MOL   C21527337   7.666   2.747   3.263  0.3308  0.2520 -0.7279
   72MOL   C21627338   7.592   2.625   3.309 -1.0315 -0.3579  0.0078
   72MOL   C21727339   7.710   2.753   3.129  0.5100 -0.1825 -0.3618
   72MOL   C21827340   7.790   2.860   3.088 -1.0630 -0.4004  0.0668
   72MOL   C21927341   8.056   3.067   3.188 -0.2551  0.1488 -0.0934
   72MOL   H22027342   7.948   3.076   3.028  1.2651  1.1834  0.2526
   72MOL   H22127343   7.815   3.026   3.392 -1.1758 -1.0948  2.3574
   72MOL   H22227344   7.671   2.849   3.460 -2.1538  0.6819 -0.1254
   72MOL   H22327345   7.607   2.604   3.415 -1.4411 -1.1238 -0.0825
   72MOL   H22427346   7.485   2.646   3.306 -0.7515  1.1046 -0.4762
   72MOL   H22527347   7.618   2.538   3.250 -0.7409 -0.6233  0.5265
   72MOL   H22627348   7.677   2.689   3.049  1.4296 -0.3813 -0.5915
   72MOL   H22727349   7.826   2.864   2.986 -0.0765  2.1363  0.4853
   72MOL   H22827350   0.020   2.970   3.164 -4.4830 -1.6593 -0.8888
   72MOL   H22927351   8.051   3.057   3.296  0.5362  1.5336  0.0829
   72MOL   C23027352   0.091   3.174   3.154  0.9691 -0.0039  0.5639
   72MOL   C23127353   0.131   3.172   3.006  0.4697 -0.1841  0.4894
   72MOL   C23227354   0.104   3.283   2.927  0.2060  0.4307  0.0413
   72MOL   C23327355   0.148   3.293   2.792 -0.2420  0.5754  0.6546
   72MOL   C23427356   0.219   3.187   2.733  0.0612  0.7920  0.3379
   72MOL   C23527357   0.277   3.200   2.594 -0.2421  0.0214 -0.1495
   72MOL   C23627358   0.236   3.069   2.808  0.6354  0.4389 -0.9723
   72MOL   C23727359   0.197   3.061   2.945 -0.3302  0.6693  0.2116
   72MOL   C23827360   0.218   3.165   3.249 -0.0974 -0.1185  0.0760
   72MOL   H23927361   0.046   3.271   3.174  1.0896  0.7362 -2.5940
   72MOL   H24027362   0.056   3.360   2.986 -0.4652 -1.7542  2.4468
   72MOL   H24127363   0.122   3.381   2.735 -1.3965 -0.1339  0.0751
   72MOL   H24227364   0.234   3.281   2.536 -1.2307 -1.5292 -1.6457
   72MOL   H24327365   0.385   3.206   2.606 -0.2866  0.7337 -0.1212
   72MOL   H24427366   0.266   3.112   2.530  0.0419 -0.2507  0.1702
   72MOL   H24527367   0.296   2.985   2.776 -0.3164 -1.2345  1.4940
   72MOL   H24627368   0.215   2.971   3.002  1.6284  0.6324 -0.4392
   72MOL   H24727369   0.313   3.177   3.197 -0.1538  3.5373  0.7150
   72MOL   H24827370   0.231   3.071   3.302 -0.7665  1.0026  2.2752
   72MOL   C24927371   0.223   3.265   3.367  0.2356  0.0955  0.7004
   72MOL   C25027372   0.085   3.279   3.426  0.4897  0.2073  0.2104
   72MOL   C25127373   0.006   3.385   3.389 -0.1849 -0.0728  0.2897
   72MOL   C25227374   7.957   3.405   3.454  0.2810  0.2225  0.0974
   72MOL   C25327375   7.916   3.320   3.558  0.4099  0.0620 -0.7188
   72MOL   C25427376   7.795   3.358   3.646 -0.0104 -0.0883 -0.1101
   72MOL   C25527377   8.002   3.212   3.592 -0.3073  0.0477  0.1679
   72MOL   C25627378   0.039   3.191   3.523  0.4910 -1.1740  0.2199
   72MOL   C25727379   0.287   3.398   3.330 -0.3724 -0.7219  0.1169
   72MOL   H25827380   0.276   3.219   3.451  0.0367  0.1399  0.8508
   72MOL   H25927381   0.027   3.457   3.312  1.1697  1.7298  2.2752
   72MOL   H26027382   7.895   3.485   3.417  0.1629 -0.1539 -0.5276
   72MOL   H26127383   7.787   3.283   3.725  1.2109  1.3176  1.3720
   72MOL   H26227384   7.803   3.458   3.688 -0.6787  0.1240 -0.4765
   72MOL   H26327385   7.706   3.354   3.584 -1.5235  1.4696  1.9164
   72MOL   H26427386   7.969   3.135   3.660  0.4930 -0.8803 -0.4676
   72MOL   H26527387   0.102   3.105   3.543  0.9191 -1.5095 -2.4045
   72MOL   H26627388   0.269   3.465   3.414  0.5016  0.3269 -0.5083
   72MOL   H26727389   0.243   3.434   3.236 -2.1724  0.3406  1.3488
   72MOL   C26827390   0.440   3.391   3.304  0.5285  0.0257 -0.2694
   72MOL   C26927391   0.513   3.358   3.433 -0.4242  0.4127 -0.0151
   72MOL   C27027392   0.537   3.466   3.519 -0.4008  0.4799  0.1148
   72MOL   C27127393   0.608   3.438   3.636 -0.0810 -0.2603  0.0099
   72MOL   C27227394   0.651   3.306   3.664  0.1187 -0.0759 -0.3454
   72MOL   C27327395   0.728   3.277   3.792 -0.4144  0.2200 -0.6520
   72MOL   C27427396   0.620   3.198   3.582  0.5583  0.7635  0.5916
   72MOL   C27527397   0.557   3.222   3.462 -0.3622  0.3719  0.4077
   72MOL   C27627398   0.493   3.517   3.229 -0.6225 -0.0723  0.1861
   72MOL   H27727399   0.464   3.315   3.230  2.1784 -0.6265  0.9105
   72MOL   H27827400   0.495   3.562   3.492  0.3458  0.9182  0.4923
   72MOL   H27927401   0.625   3.526   3.697 -1.4672 -0.9720  1.4640
   72MOL   H28027402   0.791   3.188   3.793 -1.1504 -0.3149 -1.4673
   72MOL   H28127403   0.786   3.369   3.803  1.0495 -0.5737 -1.5094
   72MOL   H28227404   0.665   3.260   3.879  0.3224  1.0149  0.0402
   72MOL   H28327405   0.654   3.104   3.623 -0.3348  0.4567  0.6441
   72MOL   H28427406   0.530   3.141   3.395 -0.2407 -0.3246  1.1935
   72MOL   H28527407   0.490   3.609   3.288  0.4937  0.8301 -1.1215
   72MOL   H28627408   0.414   3.530   3.155 -1.6798 -0.0105  1.3247
   72MOL   C28727409   0.633   3.505   3.161  0.2889  0.0225  0.1823
   72MOL   C28827410   0.744   3.546   3.263  0.1473 -0.1026  0.7460
   72MOL   C28927411   0.810   3.445   3.324 -0.4261  0.5944  0.8034
   72MOL   C29027412   0.890   3.469   3.438  0.6214 -0.3002  0.6302
   72MOL   C29127413   0.925   3.601   3.474 -0.2071 -0.0356  0.1772
   72MOL   C29227414   1.017   3.632   3.589 -0.7542 -0.6299  0.2219
   72MOL   C29327415   0.868   3.709   3.399 -0.2580  0.4192  0.1584
   72MOL   C29427416   0.776   3.677   3.296  0.4535 -0.3878 -0.3558
   72MOL   C29527417   0.651   3.587   3.030  0.0617 -0.1447 -0.8377
   72MOL   H29627418   0.644   3.399   3.136 -0.6849 -0.4522  1.7382
   72MOL   H29727419   0.782   3.343   3.303 -2.9224  1.5417 -0.6163
   72MOL   H29827420   0.932   3.390   3.500 -2.1750 -2.2189  0.2035
   72MOL   H29927421   1.019   3.741   3.600  1.4781 -0.6206 -0.0515
   72MOL   H30027422   1.005   3.588   3.688  1.9119  1.5235  1.5846
   72MOL   H30127423   1.118   3.614   3.551 -1.2938  0.1411 -1.6387
   72MOL   H30227424   0.887   3.814   3.418 -2.5046  0.9626 -0.4582
   72MOL   H30327425   0.736   3.753   3.231  0.1614  0.8503  1.2300
   72MOL   H30427426   0.754   3.604   2.998  1.1963 -0.6690  2.3983
   72MOL   H30527427   0.625   3.690   3.053  0.7405 -0.3412  0.8631
   72MOL   C30627428   0.570   3.541   2.909  0.3643 -0.8830 -0.6253
   72MOL   C30727429   0.648   3.435   2.833  1.4782  0.0638 -0.4237
   72MOL   C30827430   0.776   3.457   2.780 -0.2671  0.2266  0.3046
   72MOL   C30927431   0.848   3.362   2.710 -0.7023  0.6699 -0.7536
   72MOL   C31027432   0.776   3.244   2.671  0.2723 -0.2001  0.0806
   72MOL   C31127433   0.852   3.137   2.611  0.1776  0.2098 -0.0759
   72MOL   C31227434   0.644   3.221   2.711  0.3002 -0.0500  0.3028
   72MOL   C31327435   0.579   3.316   2.791  0.7876 -0.2108 -0.4704
   72MOL   C31427436   0.547   3.646   2.798 -0.0427 -0.5766  0.4685
   72MOL   H31527437   0.476   3.500   2.944  0.6830 -1.0841  0.0146
   72MOL   H31627438   0.832   3.543   2.812 -1.6112  0.4925  1.9879
   72MOL   H31727439   0.943   3.390   2.668  0.8613 -2.7593  0.3342
   72MOL   H31827440   0.941   3.183   2.568  1.4207  0.8774  3.0709
   72MOL   H31927441   0.903   3.070   2.681  2.1428  1.2412 -0.4859
   72MOL   H32027442   0.797   3.091   2.528 -0.9812  0.1249  0.7352
   72MOL   H32127443   0.596   3.132   2.673  1.6658 -0.7281  0.1410
   72MOL   H32227444   0.472   3.309   2.808  1.0441 -1.2247  0.7258
   72MOL   H32327445   0.512   3.593   2.710  0.6560 -2.4940  1.3167
   72MOL   H32427446   0.644   3.682   2.765 -0.6605  1.9646  1.2910
   72MOL   C32527447   0.451   3.764   2.842  0.4511 -0.1037  0.8082
   72MOL   C32627448   0.305   3.721   2.873  0.8606  0.6540  0.5832
   72MOL   C32727449   0.242   3.742   3.000  0.8022  0.0599 -0.7062
   72MOL   C32827450   0.114   3.692   3.025 -0.8303  0.5773 -0.5877
   72MOL   C32927451   0.034   3.640   2.917 -0.1130 -0.3185  0.2100
   72MOL   C33027452   7.965   3.609   2.943  0.4628 -0.0271 -0.5383
   72MOL   C33127453   0.088   3.631   2.783  0.2984 -1.0853 -0.4616
   72MOL   C33227454   0.219   3.664   2.770  0.2655  0.0404  0.2201
   72MOL   C33327455   0.443   3.871   2.729  0.4095  0.0953  0.3674
   72MOL   H33427456   0.501   3.812   2.927  0.3253  1.7113 -0.1225
   72MOL   H33527457   0.294   3.786   3.084 -0.2117 -2.1553  1.1414
   72MOL   H33627458   0.077   3.720   3.122 -1.4935  0.1216 -0.7082
   72MOL   H33727459   7.947   3.535   3.021  1.9811 -0.3631 -0.4924
   72MOL   H33827460   7.913   3.699   2.974  0.7584  0.9129 -2.7018
   72MOL   H33927461   7.911   3.580   2.854  0.5312 -0.8011 -0.3321
   72MOL   H34027462   0.030   3.589   2.702 -0.4393 -1.7918  0.4084
   72MOL   H34127463   0.256   3.653   2.669 -2.2917  1.2925 -0.9083
   72MOL   H34227464   0.400   3.961   2.772  2.7959  1.6046 -0.3213
   72MOL   H34327465   0.374   3.838   2.652 -0.9853 -0.7038  1.9104
   72MOL   C34427466   0.579   3.927   2.672  0.6227 -0.2776 -0.0067
   72MOL   C34527467   0.675   3.971   2.779  0.0251  0.7671 -0.0404
   72MOL   C34627468   0.636   4.058   2.883  0.2387  0.1991 -0.2668
   72MOL   C34727469   0.728   4.116   2.968 -0.1403 -0.9615 -0.3961
   72MOL   C34827470   0.863   4.081   2.973  0.0500 -0.5106  0.6936
   72MOL   C34927471   0.954   4.146   3.076 -0.2805  1.0142 -0.2274
   72MOL   C35027472   0.897   3.977   2.884 -0.8710  0.4825 -1.1901
   72MOL   C35127473   0.810   3.923   2.782 -0.1610 -0.8035 -0.3143
   72MOL   C35227474   0.547   4.032   2.560  0.0029  0.6753 -0.1062
   72MOL   H35327475   0.622   3.844   2.616  0.1829  1.0968 -2.4760
   72MOL   H35427476   0.533   4.089   2.893  0.2594  0.2409 -0.1855
   72MOL   H35527477   0.701   4.194   3.038  0.5736 -0.9868 -0.0805
   72MOL   H35627478   0.986   4.245   3.043 -0.1552  0.8677 -0.5542
   72MOL   H35727479   0.897   4.171   3.165 -0.6844 -2.7210  0.6240
   72MOL   H35827480   1.030   4.076   3.110 -2.8271 -1.1706  1.1012
   72MOL   H35927481   0.993   3.928   2.887 -0.4490  1.3792  1.1281
   72MOL   H36027482   0.845   3.846   2.714 -1.4766 -0.5791 -1.2574
   72MOL   H36127483   0.521   4.126   2.609 -0.3166  0.9175 -0.7366
   72MOL   H36227484   0.451   3.999   2.519  0.0748  0.7758 -0.3542
   72MOL   C36327485   0.645   4.036   2.444 -0.3391 -0.6748  0.2682
   72MOL   C36427486   0.622   4.162   2.362 -0.2459  0.0752  0.0733
   72MOL   C36527487   0.723   4.266   2.358  0.7100 -0.6815  0.0863
   72MOL   C36627488   0.712   4.372   2.272 -0.6791 -0.3407  0.2482
   72MOL   C36727489   0.597   4.385   2.190  0.3189 -0.4009  0.6021
   72MOL   C36827490   0.583   4.498   2.089  0.2584 -0.3404 -0.3561
   72MOL   C36927491   0.499   4.280   2.191 -0.0524 -0.1369 -0.0051
   72MOL   C37027492   0.508   4.175   2.288  1.0206 -0.0810  0.1370
   72MOL   C37127493   0.640   3.913   2.350  0.2368  0.3277 -0.2830
   72MOL   H37227494   0.748   4.045   2.478 -0.2051 -1.5599  0.1010
   72MOL   H37327495   0.810   4.261   2.422  0.1246 -0.7056  0.8895
   72MOL   H37427496   0.790   4.446   2.264  0.0256 -0.7205  2.9773
   72MOL   H37527497   0.515   4.581   2.112 -0.1761 -0.5987 -0.7105
   72MOL   H37627498   0.684   4.539   2.080  0.4467 -0.9700 -1.1484
   72MOL   H37727499   0.551   4.462   1.992 -1.2429 -0.4665  0.1773
   72MOL   H37827500   0.422   4.284   2.115 -0.3166 -3.0740  0.0540
   72MOL   H37927501   0.437   4.094   2.293  0.5163  0.3410 -0.2126
   72MOL   H38027502   0.705   3.909   2.263  1.1303  0.2727  0.3812
   72MOL   H38127503   0.540   3.890   2.315  0.0309  0.9696 -0.1369
   72MOL   H38227504   0.666   3.823   2.405  0.9409  0.8395  0.2237
   73MOL     C127505   1.773   6.091   4.086  0.1089  0.7722  0.6605
   73MOL     C227506   1.708   6.144   4.213 -0.1222  0.7339  0.2890
   73MOL     C327507   1.660   6.272   4.210  0.3035  0.5851  0.2958
   73MOL     C427508   1.563   6.312   4.301  0.9892  0.0553 -0.2871
   73MOL     C527509   1.524   6.227   4.406 -0.0971 -0.3422 -0.0944
   73MOL     C627510   1.416   6.261   4.510 -0.1099  0.5998 -0.3385
   73MOL     C727511   1.598   6.106   4.426  0.1685  0.6793  0.2647
   73MOL     C827512   1.680   6.063   4.328 -0.1080  0.0946 -0.8785
   73MOL     C927513   1.745   5.946   4.058 -0.3843 -0.1638  1.1180
   73MOL    H1027514   1.737   6.151   4.003  1.1803 -1.4248 -1.4634
   73MOL    H1127515   1.693   6.332   4.127  0.8897  0.1329  0.1922
   73MOL    H1227516   1.514   6.406   4.279  0.0707 -0.3954 -0.2071
   73MOL    H1327517   1.333   6.306   4.455  0.8016  1.0099 -1.4141
   73MOL    H1427518   1.383   6.165   4.550  1.3573 -0.0011 -0.5161
   73MOL    H1527519   1.458   6.334   4.579 -0.6652 -1.1233  1.8643
   73MOL    H1627520   1.585   6.031   4.503  0.3720  0.9379  0.5472
   73MOL    H1727521   1.717   5.962   4.336 -1.7048 -0.5698 -1.7899
   73MOL    H1827522   1.645   5.913   4.089 -1.2728 -0.0756 -1.5218
   73MOL    H1927523   1.802   5.879   4.122  0.4115  0.2110  0.7987
   73MOL    H2027524   1.881   6.103   4.095  0.5929 -2.8577  0.3202
   73MOL    C2127525   1.767   5.907   3.911 -0.2190  0.3217 -0.3038
   73MOL    C2227526   1.725   5.760   3.894  0.6462 -0.4670  0.1438
   73MOL    C2327527   1.811   5.654   3.929  0.4405 -0.6976  0.3659
   73MOL    C2427528   1.774   5.515   3.914 -0.0158 -0.4316 -0.8674
   73MOL    C2527529   1.653   5.486   3.859  0.3405 -0.5498  0.1298
   73MOL    C2627530   1.604   5.344   3.840  0.3399 -0.1739 -0.1938
   73MOL    C2727531   1.566   5.594   3.819 -0.1041  0.1133 -0.1499
   73MOL    C2827532   1.599   5.726   3.838 -0.3518  0.1945  0.3161
   73MOL    C2927533   1.914   5.930   3.857 -0.0835 -0.2949  0.2448
   73MOL    H3027534   1.693   5.963   3.855 -0.9038 -3.0128 -2.9148
   73MOL    H3127535   1.899   5.681   3.985  0.8062  1.8629 -1.3472
   73MOL    H3227536   1.846   5.443   3.950  1.9362  1.5639 -0.6057
   73MOL    H3327537   1.539   5.324   3.925  1.2245 -0.0470  0.5269
   73MOL    H3427538   1.537   5.344   3.754 -0.8072  2.3433  0.6333
   73MOL    H3527539   1.683   5.271   3.824 -1.3255 -1.7851 -1.2354
   73MOL    H3627540   1.465   5.571   3.791 -0.0573 -1.2723  0.7953
   73MOL    H3727541   1.542   5.807   3.794 -1.5850 -0.3233  0.9375
   73MOL    H3827542   1.988   5.868   3.908  1.2190  0.8555 -0.2310
   73MOL    H3927543   1.953   6.027   3.888 -1.3863  0.4707 -0.4652
   73MOL    C4027544   1.923   5.911   3.703 -0.4455 -0.3044  0.3471
   73MOL    C4127545   2.066   5.885   3.656  0.5502 -0.0917  0.1395
   73MOL    C4227546   2.095   5.766   3.593  0.0321  0.2705  0.0693
   73MOL    C4327547   2.223   5.743   3.543  0.8024  0.2766 -0.0975
   73MOL    C4427548   2.328   5.836   3.563  0.3758 -0.5509  0.6913
   73MOL    C4527549   2.464   5.800   3.513 -0.0086 -0.7349  0.2692
   73MOL    C4627550   2.294   5.954   3.624  0.1885  0.0551 -0.4230
   73MOL    C4727551   2.169   5.978   3.671 -0.0738  1.0044 -0.7697
   73MOL    C4827552   1.853   6.029   3.627 -0.0167 -0.0332  0.4173
   73MOL    H4927553   1.858   5.826   3.685 -1.1689  0.6769 -1.9402
   73MOL    H5027554   2.018   5.695   3.568 -1.2797  1.7960 -0.3153
   73MOL    H5127555   2.246   5.651   3.491 -1.2975  0.1967 -0.9175
   73MOL    H5227556   2.456   5.704   3.461  0.1642 -1.0156  0.7552
   73MOL    H5327557   2.517   5.869   3.446  1.8682 -0.2630  2.1727
   73MOL    H5427558   2.533   5.801   3.598  1.5135  1.2419 -0.9384
   73MOL    H5527559   2.374   6.025   3.639  1.4642 -1.3746 -0.2614
   73MOL    H5627560   2.160   6.069   3.728 -1.2374 -0.9927  2.3837
   73MOL    H5727561   1.893   6.127   3.652 -3.0743  1.4598 -0.2670
   73MOL    H5827562   1.751   6.032   3.665 -0.9814 -0.8586 -1.9431
   73MOL    C5927563   1.846   6.012   3.471 -0.4328  0.1186 -0.2165
   73MOL    C6027564   1.941   6.104   3.401 -0.4757  0.0666  0.9273
   73MOL    C6127565   1.901   6.237   3.387 -0.2681 -0.2815  0.4239
   73MOL    C6227566   1.995   6.326   3.332 -0.1983  0.0863 -0.1295
   73MOL    C6327567   2.122   6.278   3.289 -0.2832 -0.4331  0.3643
   73MOL    C6427568   2.221   6.375   3.225  0.3176 -0.0747  0.6579
   73MOL    C6527569   2.165   6.146   3.307  0.1779  0.4448  0.6329
   73MOL    C6627570   2.072   6.064   3.372 -0.2085  0.5903 -0.4953
   73MOL    C6727571   1.707   6.021   3.410  0.1843 -0.2860  0.8500
   73MOL    H6827572   1.881   5.913   3.441 -1.9504 -0.5132  0.0643
   73MOL    H6927573   1.802   6.264   3.418  0.0700  1.8702 -0.2784
   73MOL    H7027574   1.968   6.430   3.321 -2.3377 -0.4556 -0.1227
   73MOL    H7127575   2.174   6.448   3.158 -1.2804  0.5616  2.4404
   73MOL    H7227576   2.257   6.438   3.307 -0.4446  0.0167  0.9226
   73MOL    H7327577   2.301   6.322   3.173  1.4866 -1.5318  3.8631
   73MOL    H7427578   2.264   6.109   3.282 -0.7478 -1.1036 -0.8620
   73MOL    H7527579   2.095   5.967   3.411  0.7930  1.8538  2.1912
   73MOL    H7627580   1.713   6.022   3.301 -1.5647  1.9298  0.7489
   73MOL    H7727581   1.658   6.115   3.434 -0.5884 -0.6197  0.5956
   73MOL    C7827582   1.610   5.907   3.453 -0.2797  0.0257  0.0066
   73MOL    C7927583   1.652   5.768   3.408  0.8924  0.1657  0.2338
   73MOL    C8027584   1.716   5.673   3.491 -0.2989  0.5030  0.1796
   73MOL    C8127585   1.747   5.544   3.444 -0.1834  0.1531  0.5309
   73MOL    C8227586   1.707   5.512   3.310 -0.0728 -0.3794  0.0621
   73MOL    C8327587   1.726   5.373   3.258 -0.0294 -0.0794  0.0792
   73MOL    C8427588   1.649   5.606   3.224  0.3112  0.4474  0.3946
   73MOL    C8527589   1.621   5.733   3.273 -0.4626  0.1540 -0.0343
   73MOL    C8627590   1.462   5.943   3.417  0.4056 -0.4686 -0.1367
   73MOL    H8727591   1.618   5.908   3.562  0.8323 -1.2725 -0.0583
   73MOL    H8827592   1.732   5.701   3.594 -2.8702  0.2481  0.7010
   73MOL    H8927593   1.797   5.473   3.507 -0.2081  1.1254  1.6589
   73MOL    H9027594   1.663   5.303   3.313  0.8040  1.4419  3.0828
   73MOL    H9127595   1.692   5.362   3.155 -0.3004 -0.5940  0.2212
   73MOL    H9227596   1.829   5.336   3.261  0.3343  0.9490  0.4157
   73MOL    H9327597   1.618   5.577   3.125  0.5567 -0.7730  0.6753
   73MOL    H9427598   1.565   5.799   3.209  2.0276  0.1504 -2.2958
   73MOL    H9527599   1.393   5.860   3.431 -0.7545  0.5248  0.0742
   73MOL    H9627600   1.450   5.955   3.309 -1.0595  1.6825  0.2422
   73MOL    C9727601   1.406   6.065   3.496  0.4303  0.2081 -0.0866
   73MOL    C9827602   1.370   6.021   3.638 -0.8233 -0.6661 -0.1745
   73MOL    C9927603   1.267   5.930   3.664  0.0579  0.0512 -0.2056
   73MOL   C10027604   1.250   5.890   3.798 -0.4641 -1.1200 -0.1503
   73MOL   C10127605   1.333   5.941   3.903 -0.4868 -0.0090  0.2359
   73MOL   C10227606   1.325   5.886   4.043 -0.7454  0.8527  0.5347
   73MOL   C10327607   1.423   6.040   3.871  0.5046  0.5939 -0.8027
   73MOL   C10427608   1.446   6.082   3.742  1.0689 -0.2370  0.5140
   73MOL   C10527609   1.285   6.120   3.430  1.2303  0.0322  0.2857
   73MOL   H10627610   1.472   6.152   3.508  0.6192 -0.1401  1.5323
   73MOL   H10727611   1.211   5.889   3.582 -2.3029  2.8790 -0.1152
   73MOL   H10827612   1.179   5.810   3.814  1.6091 -2.3281  3.5117
   73MOL   H10927613   1.413   5.901   4.106  0.9844 -1.6154 -1.1815
   73MOL   H11027614   1.243   5.930   4.100 -0.5739 -1.3821  2.5931
   73MOL   H11127615   1.305   5.779   4.043 -1.2564  0.9323  1.8878
   73MOL   H11227616   1.483   6.092   3.945  1.5304  0.8700 -1.8125
   73MOL   H11327617   1.527   6.151   3.724 -0.2591  1.4952  0.9734
   73MOL   H11427618   1.235   6.173   3.511 -1.6156 -0.9235 -0.7781
   73MOL   H11527619   1.212   6.044   3.401  1.9991 -0.4402 -0.4597
   73MOL   C11627620   1.315   6.217   3.305  0.2922  0.0961 -0.3279
   73MOL   C11727621   1.391   6.348   3.340 -0.6536 -0.2471  0.9554
   73MOL   C11827622   1.332   6.444   3.417 -0.7470 -0.4880 -0.2556
   73MOL   C11927623   1.410   6.555   3.465 -0.2240 -0.2576 -0.2437
   73MOL   C12027624   1.549   6.557   3.432  0.0245 -0.4728  1.4339
   73MOL   C12127625   1.631   6.669   3.495  0.0679  0.3230  0.7552
   73MOL   C12227626   1.600   6.461   3.344 -0.4321  0.4128  0.3471
   73MOL   C12327627   1.523   6.358   3.293  0.3132  0.6583  0.0836
   73MOL   C12427628   1.192   6.259   3.220  0.9881  0.2663  0.0480
   73MOL   H12527629   1.380   6.155   3.244  2.0580  1.2902  0.3241
   73MOL   H12627630   1.233   6.429   3.456 -0.2260 -1.5791  0.6743
   73MOL   H12727631   1.374   6.625   3.539 -0.3079  2.2233 -2.5931
   73MOL   H12827632   1.603   6.764   3.452  0.7492 -0.4818 -1.5287
   73MOL   H12927633   1.622   6.662   3.604  0.4723  2.3719  0.9403
   73MOL   H13027634   1.733   6.654   3.458 -0.4223 -0.3808 -0.3263
   73MOL   H13127635   1.706   6.454   3.323 -0.6259  1.4063 -1.0536
   73MOL   H13227636   1.569   6.287   3.225  3.2116 -0.4726  3.0906
   73MOL   H13327637   1.228   6.333   3.150 -1.6751  0.4797 -1.1485
   73MOL   H13427638   1.114   6.308   3.278 -0.8883 -2.0748 -0.4194
   73MOL   C13527639   1.129   6.142   3.141 -0.0741  0.5227 -0.4233
   73MOL   C13627640   1.225   6.072   3.046  0.0472  0.2266 -0.2012
   73MOL   C13727641   1.285   5.953   3.077  0.7394  0.4880 -0.4297
   73MOL   C13827642   1.388   5.904   2.993  0.1939 -0.1801  0.0664
   73MOL   C13927643   1.418   5.964   2.869 -0.0022 -0.1884 -0.2057
   73MOL   C14027644   1.516   5.897   2.773 -0.5960  0.1945 -0.4642
   73MOL   C14127645   1.346   6.084   2.835 -0.7519 -0.4997  0.2631
   73MOL   C14227646   1.252   6.138   2.922 -0.1948  0.6283 -0.8049
   73MOL   C14327647   0.993   6.189   3.081  0.6860 -0.3341  0.3155
   73MOL   H14427648   1.104   6.067   3.216  0.3461 -0.3190 -1.1108
   73MOL   H14527649   1.258   5.905   3.170  0.9139  0.5747 -0.3348
   73MOL   H14627650   1.443   5.814   3.014  1.0862  0.5011  0.7157
   73MOL   H14727651   1.619   5.900   2.810  0.0333  0.4227 -2.1853
   73MOL   H14827652   1.482   5.795   2.760  1.7842 -0.9410  1.6996
   73MOL   H14927653   1.512   5.941   2.673  1.1008 -0.9070 -1.0432
   73MOL   H15027654   1.368   6.141   2.746 -0.6068 -1.9391 -0.6511
   73MOL   H15127655   1.203   6.232   2.904  0.4632  0.8768 -1.3479
   73MOL   H15227656   1.002   6.283   3.026 -1.1116 -0.2398  0.1704
   73MOL   H15327657   0.919   6.214   3.157  0.8630 -1.7032  0.9417
   73MOL   C15427658   0.925   6.097   2.979  0.3175  0.2452  0.0566
   73MOL   C15527659   0.792   6.155   2.939 -0.4624  0.3457 -0.3494
   73MOL   C15627660   0.683   6.148   3.023  0.1067 -0.6891 -0.4211
   73MOL   C15727661   0.562   6.215   2.981  0.3509  0.5050 -0.5123
   73MOL   C15827662   0.551   6.269   2.850 -0.5418 -0.1545 -0.4134
   73MOL   C15927663   0.420   6.316   2.795  0.2189  0.4051  0.0822
   73MOL   C16027664   0.667   6.279   2.771  0.3966 -1.1316  0.0623
   73MOL   C16127665   0.787   6.222   2.817  0.3512  0.9086  0.2223
   73MOL   C16227666   0.921   5.946   3.017  0.7877 -0.2869 -0.1717
   73MOL   H16327667   0.986   6.101   2.889 -0.8054 -1.1831 -0.7979
   73MOL   H16427668   0.699   6.095   3.116  2.0093  0.3502 -0.1238
   73MOL   H16527669   0.476   6.191   3.041 -0.1151 -0.3668 -1.5190
   73MOL   H16627670   0.433   6.320   2.687 -1.8979  1.4823 -0.1489
   73MOL   H16727671   0.330   6.268   2.833 -0.1351  0.7370 -0.3362
   73MOL   H16827672   0.415   6.421   2.825 -1.3965  1.0369 -2.2959
   73MOL   H16927673   0.661   6.326   2.674  0.4073  1.9198  1.4958
   73MOL   H17027674   0.874   6.229   2.754 -0.6034  2.4649 -0.9772
   73MOL   H17127675   0.856   5.945   3.104  1.1549  0.2047  0.1163
   73MOL   H17227676   1.017   5.908   3.053  0.8006 -0.9060 -0.8536
   73MOL   C17327677   0.862   5.843   2.915  0.2163  0.5389 -0.5929
   73MOL   C17427678   0.814   5.712   2.978 -1.0035  0.2087 -0.4867
   73MOL   C17527679   0.910   5.618   3.030 -0.1757 -0.5529  0.0262
   73MOL   C17627680   0.869   5.499   3.087  0.2473  0.4991  0.1140
   73MOL   C17727681   0.731   5.464   3.089 -0.4191 -0.3619 -0.0918
   73MOL   C17827682   0.678   5.330   3.145  0.9814  0.0331  0.8944
   73MOL   C17927683   0.633   5.562   3.048  0.1815  0.4870 -0.4861
   73MOL   C18027684   0.678   5.680   2.994  0.1156  0.1277 -0.0856
   73MOL   C18127685   0.954   5.826   2.788 -0.2051 -0.3592 -0.0263
   73MOL   H18227686   0.768   5.883   2.877 -1.7493 -1.8709  1.5519
   73MOL   H18327687   1.017   5.626   3.026 -0.3253  1.3717 -0.4239
   73MOL   H18427688   0.935   5.422   3.124 -0.7886 -1.1314 -1.3582
   73MOL   H18527689   0.749   5.286   3.216  1.2089  1.0425  1.2903
   73MOL   H18627690   0.592   5.336   3.212  1.3707  1.5644  1.2593
   73MOL   H18727691   0.670   5.250   3.072 -0.2824  1.9742 -1.1548
   73MOL   H18827692   0.526   5.546   3.049  0.3787 -0.8151  1.3424
   73MOL   H18927693   0.601   5.742   2.951 -1.0827 -0.5701  1.0178
   73MOL   H19027694   1.050   5.792   2.830  0.3194 -0.1798 -1.0657
   73MOL   H19127695   0.977   5.926   2.752 -1.5010  1.4546  3.8942
   73MOL   C19227696   0.908   5.737   2.674  0.1892  0.7954  0.4691
   73MOL   C19327697   1.008   5.629   2.635 -0.2544  0.2374  0.2917
   73MOL   C19427698   1.146   5.655   2.619 -0.1855  0.4807  0.0674
   73MOL   C19527699   1.236   5.550   2.590 -1.1510 -0.3071 -0.2384
   73MOL   C19627700   1.185   5.427   2.549  0.0206 -0.9027  0.2794
   73MOL   C19727701   1.276   5.318   2.501  0.1448 -0.3552 -0.0201
   73MOL   C19827702   1.048   5.403   2.554  0.6079  0.4278 -0.3075
   73MOL   C19927703   0.964   5.495   2.611 -0.5205 -0.5606 -0.2762
   73MOL   C20027704   0.858   5.806   2.540  0.5424 -0.2574  0.7853
   73MOL   H20127705   0.825   5.676   2.709  0.0730 -0.4042 -1.7655
   73MOL   H20227706   1.183   5.754   2.641  0.8778  0.0483  0.2823
   73MOL   H20327707   1.344   5.560   2.585 -0.9097  0.0420  3.9251
   73MOL   H20427708   1.372   5.367   2.488 -0.5309  0.6489 -1.3170
   73MOL   H20527709   1.285   5.233   2.569  2.7365 -0.8144 -0.8813
   73MOL   H20627710   1.241   5.270   2.409 -0.1814 -0.6206  0.2428
   73MOL   H20727711   1.006   5.309   2.521  0.4758  1.1972 -2.4390
   73MOL   H20827712   0.859   5.478   2.633 -0.8862  1.6831 -0.1715
   73MOL   H20927713   0.826   5.725   2.474  0.5905  1.7629 -1.8118
   73MOL   H21027714   0.938   5.848   2.480 -1.8780 -0.2403 -2.6041
   73MOL   C21127715   0.747   5.916   2.561 -0.0165 -0.1778  0.1320
   73MOL   C21227716   0.619   5.854   2.621  0.1552  0.1467 -0.7274
   73MOL   C21327717   0.545   5.941   2.704  0.7316 -0.7478  0.5850
   73MOL   C21427718   0.428   5.903   2.770 -0.7704 -0.1972 -0.0493
   73MOL   C21527719   0.391   5.765   2.763 -0.4410 -0.7708  0.3342
   73MOL   C21627720   0.270   5.715   2.831 -0.0091 -0.1734 -0.0025
   73MOL   C21727721   0.474   5.677   2.692  0.6561 -0.3295 -0.2938
   73MOL   C21827722   0.577   5.722   2.611  0.1762 -0.0808  0.6408
   73MOL   C21927723   0.710   5.988   2.428  0.3215  0.0991  0.3281
   73MOL   H22027724   0.791   5.985   2.634 -1.1762 -0.4828  1.1261
   73MOL   H22127725   0.569   6.046   2.717 -2.3528  0.1820 -0.8652
   73MOL   H22227726   0.375   5.981   2.821  0.3550 -0.3669  1.4313
   73MOL   H22327727   0.296   5.628   2.891  2.0675 -0.4667 -1.2447
   73MOL   H22427728   0.230   5.794   2.893 -0.5844 -0.4167 -0.0627
   73MOL   H22527729   0.206   5.688   2.747 -0.2419 -2.1419  0.7695
   73MOL   H22627730   0.425   5.581   2.680 -0.4575 -0.0791  1.8747
   73MOL   H22727731   0.625   5.654   2.542  1.3974 -1.1615  2.5131
   73MOL   H22827732   0.794   6.033   2.374 -0.9336 -1.0267 -2.6460
   73MOL   H22927733   0.652   6.077   2.450 -0.5978 -0.9075  2.0982
   73MOL   C23027734   0.624   5.906   2.335 -0.0216 -0.0007 -0.5471
   73MOL   C23127735   0.695   5.815   2.248  0.2800 -0.1994  0.9675
   73MOL   C23227736   0.666   5.680   2.243 -0.7007  0.6522 -0.3371
   73MOL   C23327737   0.726   5.590   2.157 -0.7147  0.7068  0.2276
   73MOL   C23427738   0.829   5.642   2.064 -0.2676 -0.7244 -0.3188
   73MOL   C23527739   0.890   5.541   1.970 -0.3928 -0.0370  0.4259
   73MOL   C23627740   0.859   5.781   2.062 -0.0419  0.2103 -0.3669
   73MOL   C23727741   0.790   5.868   2.152 -0.4561 -0.2414  0.8737
   73MOL   C23827742   0.541   5.997   2.250  0.5942 -0.3850  0.0509
   73MOL   H23927743   0.556   5.846   2.395  0.3511  2.7733  2.8062
   73MOL   H24027744   0.602   5.634   2.316 -0.8378  0.3344 -0.6507
   73MOL   H24127745   0.700   5.486   2.168  0.3285  0.4691  0.4835
   73MOL   H24227746   0.860   5.443   2.009 -0.0467 -0.0705  0.6087
   73MOL   H24327747   0.840   5.544   1.873 -1.1759  0.5220  0.8354
   73MOL   H24427748   0.998   5.536   1.964 -0.3359  0.6992  0.7983
   73MOL   H24527749   0.935   5.821   1.997  0.7723 -0.4872  0.1454
   73MOL   H24627750   0.813   5.973   2.168  2.0435 -0.6921  0.3576
   73MOL   H24727751   0.508   5.948   2.158 -0.4275  0.0250  0.1866
   73MOL   H24827752   0.610   6.070   2.210  1.4046 -0.8611  0.5695
   73MOL   C24927753   0.419   6.059   2.323 -0.0638  0.9050 -0.1724
   73MOL   C25027754   0.307   5.953   2.339  0.6693  0.0140 -0.4261
   73MOL   C25127755   0.267   5.879   2.225 -0.1279 -0.8560 -0.4102
   73MOL   C25227756   0.142   5.810   2.230  0.5267 -0.2704 -0.6071
   73MOL   C25327757   0.070   5.804   2.350 -0.0637  0.6010 -0.2416
   73MOL   C25427758   8.016   5.729   2.351 -0.2889 -0.3233 -0.2649
   73MOL   C25527759   0.120   5.859   2.465  0.4637  0.0060 -0.5076
   73MOL   C25627760   0.233   5.938   2.458  0.1410 -0.7568 -0.1755
   73MOL   C25727761   0.364   6.182   2.245  0.4788 -0.1505 -0.5494
   73MOL   H25827762   0.459   6.094   2.418  0.1960  3.3519 -1.1404
   73MOL   H25927763   0.322   5.866   2.133  0.8164  0.2829 -0.0245
   73MOL   H26027764   0.098   5.757   2.147 -0.2722 -1.0933  0.3423
   73MOL   H26127765   8.041   5.644   2.287 -0.7945 -1.5602  1.1289
   73MOL   H26227766   7.974   5.694   2.445 -1.7876  1.5804 -0.2137
   73MOL   H26327767   7.941   5.782   2.292  0.3229 -1.3794 -2.0367
   73MOL   H26427768   0.081   5.856   2.566  2.3392  1.9506  0.3283
   73MOL   H26527769   0.267   5.983   2.550 -2.5636  0.1864  0.3975
   73MOL   H26627770   0.283   6.153   2.178 -0.9861  3.3124 -0.3811
   73MOL   H26727771   0.455   6.214   2.194  1.1719  0.7223  1.2036
   73MOL   C26827772   0.308   6.298   2.336  0.0041  1.0478  0.0231
   73MOL   C26927773   0.177   6.258   2.410 -0.3611  0.0503 -0.1018
   73MOL   C27027774   0.164   6.252   2.551  0.1492  0.3947  0.3674
   73MOL   C27127775   0.045   6.222   2.613  0.1543  1.1394 -0.1717
   73MOL   C27227776   8.020   6.181   2.531 -0.4229  0.6150  0.2918
   73MOL   C27327777   7.890   6.143   2.599 -0.8808  0.1890 -0.0869
   73MOL   C27427778   8.026   6.178   2.388  0.3635 -0.7254 -0.1710
   73MOL   C27527779   0.062   6.228   2.332  0.6586  0.3159 -0.0810
   73MOL   C27627780   0.281   6.427   2.255  0.3745 -0.0230 -0.0755
   73MOL   H27727781   0.381   6.318   2.414  0.6637  1.7180 -0.7527
   73MOL   H27827782   0.260   6.265   2.601  1.7522  0.0165 -2.4955
   73MOL   H27927783   0.035   6.225   2.721 -0.0254 -0.2337 -0.1344
   73MOL   H28027784   7.897   6.186   2.699  1.7484  1.7184 -0.8914
   73MOL   H28127785   7.810   6.193   2.544 -0.9621  0.6137  0.4139
   73MOL   H28227786   7.876   6.035   2.604 -0.7198  0.2509  2.8180
   73MOL   H28327787   7.935   6.151   2.336 -1.1174  2.3254  0.6752
   73MOL   H28427788   0.063   6.233   2.224 -0.1333 -3.6422 -0.3543
   73MOL   H28527789   0.193   6.474   2.298 -1.8946 -1.4983 -2.9328
   73MOL   H28627790   0.244   6.401   2.156  0.5924 -1.8027  0.2987
   73MOL   C28727791   0.402   6.519   2.249 -0.4625 -0.1403 -0.6477
   73MOL   C28827792   0.446   6.554   2.394 -0.3092  0.4213  0.0809
   73MOL   C28927793   0.579   6.539   2.430  0.1976  0.0777 -0.3380
   73MOL   C29027794   0.627   6.573   2.563  0.0465  0.0797 -0.2231
   73MOL   C29127795   0.533   6.622   2.658  0.2704  0.4892 -0.0807
   73MOL   C29227796   0.568   6.655   2.805  0.6801 -0.3983  0.6238
   73MOL   C29327797   0.397   6.635   2.621  0.2063  0.3385 -0.5022
   73MOL   C29427798   0.354   6.599   2.493 -0.0524 -0.2479 -0.2131
   73MOL   C29527799   0.383   6.645   2.164  0.0063  0.6015  0.3523
   73MOL   H29627800   0.485   6.469   2.200 -1.0617 -1.8635  0.0684
   73MOL   H29727801   0.659   6.504   2.366 -0.4345 -0.7899 -0.6543
   73MOL   H29827802   0.732   6.568   2.588 -0.4521 -0.3985  1.9516
   73MOL   H29927803   0.479   6.664   2.867  0.6382  0.7028  0.4136
   73MOL   H30027804   0.629   6.580   2.856 -1.0231 -2.7987 -0.7454
   73MOL   H30127805   0.613   6.754   2.804 -0.6684  0.2268  0.0529
   73MOL   H30227806   0.337   6.682   2.697  1.7492 -0.8765  1.5446
   73MOL   H30327807   0.250   6.609   2.464 -0.1682  0.4164  0.4119
   73MOL   H30427808   0.293   6.687   2.209 -1.1365 -3.1448  1.7056
   73MOL   H30527809   0.342   6.621   2.066 -2.5605  1.9741  1.0305
   73MOL   C30627810   0.480   6.768   2.165  0.4783 -0.0590  0.4373
   73MOL   C30727811   0.410   6.900   2.126  0.6064 -0.6649  0.2405
   73MOL   C30827812   0.330   6.899   2.009  0.5657 -0.0447  0.2897
   73MOL   C30927813   0.269   7.016   1.968 -0.1184  0.3282  0.0185
   73MOL   C31027814   0.273   7.133   2.043 -0.8333  0.1264  0.1724
   73MOL   C31127815   0.207   7.255   1.997  0.1486 -0.2441  0.2839
   73MOL   C31227816   0.356   7.132   2.161  0.2046  0.1990 -0.8712
   73MOL   C31327817   0.421   7.014   2.205  0.4566 -1.0318  0.3291
   73MOL   C31427818   0.600   6.743   2.069 -0.6387 -0.4531 -0.0609
   73MOL   H31527819   0.515   6.779   2.268 -0.7737  0.6112  0.7991
   73MOL   H31627820   0.320   6.806   1.955 -0.0106  0.8914 -1.2306
   73MOL   H31727821   0.221   7.020   1.871  0.2774 -0.2575 -0.1977
   73MOL   H31827822   0.130   7.240   1.922 -0.1641 -0.4594  0.6512
   73MOL   H31927823   0.167   7.322   2.073 -0.7688  1.5614 -1.7490
   73MOL   H32027824   0.273   7.318   1.936 -0.0178  1.0352  1.3988
   73MOL   H32127825   0.370   7.219   2.222  0.5807 -0.9977  0.7759
   73MOL   H32227826   0.483   7.018   2.294 -0.7377  2.4041  1.0779
   73MOL   H32327827   0.631   6.839   2.026 -0.6662 -0.2230  0.4230
   73MOL   H32427828   0.556   6.689   1.985  1.5889  0.2923 -1.7895
   73MOL   C32527829   0.721   6.670   2.127 -0.2883 -0.1272  0.6621
   73MOL   C32627830   0.801   6.744   2.239  0.6355  0.1934  0.1178
   73MOL   C32727831   0.900   6.679   2.320 -0.4622 -0.2686 -0.0830
   73MOL   C32827832   0.961   6.751   2.426 -0.3917 -0.1133 -0.5170
   73MOL   C32927833   0.921   6.884   2.458  0.6010  0.2290  0.3925
   73MOL   C33027834   0.983   6.952   2.575  0.0068 -0.4363 -0.2311
   73MOL   C33127835   0.819   6.951   2.386 -0.1249  0.0180 -0.2085
   73MOL   C33227836   0.766   6.881   2.271  0.2666  0.0360 -0.4124
   73MOL   C33327837   0.816   6.631   2.012  0.8757 -0.3749 -0.6930
   73MOL   H33427838   0.685   6.575   2.168  0.3757 -0.7482 -0.1562
   73MOL   H33527839   0.925   6.574   2.308 -0.9558 -0.3072 -0.8006
   73MOL   H33627840   1.036   6.705   2.489 -2.1382 -1.5275  0.6043
   73MOL   H33727841   0.911   6.998   2.643 -1.2452  0.2782 -1.9931
   73MOL   H33827842   1.040   6.881   2.635  0.4022 -1.2507 -1.5421
   73MOL   H33927843   1.051   7.027   2.536  0.4362 -0.7409 -0.0692
   73MOL   H34027844   0.774   7.044   2.416  1.3576  0.5715  0.3743
   73MOL   H34127845   0.690   6.938   2.219  0.5939  0.5143 -0.3620
   73MOL   H34227846   0.916   6.669   2.033 -0.0874  1.4234  0.7115
   73MOL   H34327847   0.796   6.697   1.928 -1.6911 -0.7583 -0.3979
   73MOL   C34427848   0.824   6.490   1.955  0.7392  0.3217  0.7512
   73MOL   C34527849   0.946   6.475   1.865 -0.1907  0.0292 -0.3634
   73MOL   C34627850   1.076   6.471   1.922  0.4233 -0.7188 -0.0107
   73MOL   C34727851   1.191   6.486   1.848 -0.1581 -0.3530 -1.3265
   73MOL   C34827852   1.187   6.485   1.706  0.8087  1.0057  0.4938
   73MOL   C34927853   1.315   6.496   1.626 -0.0558 -0.2826 -0.0793
   73MOL   C35027854   1.057   6.486   1.646  0.0518  0.4741  0.0402
   73MOL   C35127855   0.938   6.476   1.723  0.3599 -1.0325 -0.4477
   73MOL   C35227856   0.695   6.451   1.880 -0.2856 -0.8337  0.2680
   73MOL   H35327857   0.837   6.422   2.039  1.8528  0.5003  0.7315
   73MOL   H35427858   1.089   6.466   2.029  1.4170 -1.0639 -0.1363
   73MOL   H35527859   1.286   6.481   1.899 -0.7298 -2.0315 -0.4008
   73MOL   H35627860   1.397   6.524   1.692  0.0058  1.0368 -0.7124
   73MOL   H35727861   1.320   6.391   1.595  0.8032 -0.2725  0.0051
   73MOL   H35827862   1.300   6.562   1.540  0.1505  2.1055  1.6854
   73MOL   H35927863   1.038   6.504   1.542 -1.7946 -0.5986  0.1538
   73MOL   H36027864   0.850   6.471   1.660 -1.1336  1.4478  1.3169
   73MOL   H36127865   0.683   6.522   1.798 -0.4360 -1.3402 -0.1528
   73MOL   H36227866   0.612   6.465   1.949 -0.3996  1.0715 -0.2461
   73MOL   C36327867   0.689   6.300   1.834  0.3577 -0.7550  0.0409
   73MOL   C36427868   0.579   6.284   1.729  0.1766  0.2208  0.6707
   73MOL   C36527869   0.620   6.323   1.599 -0.0630  0.1768 -1.4030
   73MOL   C36627870   0.533   6.302   1.495  0.2164  0.2725  0.8885
   73MOL   C36727871   0.405   6.245   1.518  0.2290  0.0793 -0.2961
   73MOL   C36827872   0.317   6.192   1.407  0.8061 -0.1949  0.8849
   73MOL   C36927873   0.358   6.212   1.643 -0.4057 -0.5240 -0.9845
   73MOL   C37027874   0.448   6.229   1.750 -0.3501 -0.5658 -0.1486
   73MOL   C37127875   0.666   6.217   1.954 -0.1036 -0.4432 -0.2878
   73MOL   H37227876   0.780   6.275   1.780 -0.1579 -2.4465 -0.0763
   73MOL   H37327877   0.717   6.368   1.583 -1.7031  2.9995 -3.7984
   73MOL   H37427878   0.571   6.334   1.399 -1.1638 -0.4974  0.0759
   73MOL   H37527879   0.378   6.131   1.341 -1.0196  1.3581 -2.3735
   73MOL   H37627880   0.234   6.125   1.431 -0.7618  0.1913 -3.0916
   73MOL   H37727881   0.274   6.277   1.354  0.9536 -0.2987  0.6002
   73MOL   H37827882   0.264   6.162   1.661 -0.1264 -1.7184 -2.7166
   73MOL   H37927883   0.424   6.194   1.849  0.4632 -0.3102  0.1422
   73MOL   H38027884   0.675   6.111   1.932 -0.4187 -0.4482 -0.4051
   73MOL   H38127885   0.570   6.230   2.005  1.2818  1.5193  1.8881
   73MOL   H38227886   0.753   6.226   2.017  0.2463 -1.1780 -0.6594
   74MOL     C127887   7.113   0.408   0.193  1.3833 -0.0659  0.3636
   74MOL     C227888   7.132   0.527   0.286 -0.4009  0.1993 -0.8147
   74MOL     C327889   7.087   0.527   0.418 -0.1777 -1.0161 -0.4950
   74MOL     C427890   7.094   0.639   0.499  0.7466  0.7551 -0.0154
   74MOL     C527891   7.163   0.752   0.455  0.0124  0.6214  0.2949
   74MOL     C627892   7.180   0.880   0.535  0.2856 -0.0175 -0.1601
   74MOL     C727893   7.215   0.749   0.326  0.5317  0.0553  0.0374
   74MOL     C827894   7.212   0.632   0.246  0.1688 -0.4033 -1.0834
   74MOL     C927895   7.146   0.270   0.258 -0.1646  0.1306 -0.2557
   74MOL    H1027896   7.008   0.415   0.165  1.6938 -0.0595 -0.8309
   74MOL    H1127897   7.036   0.436   0.446 -0.4268  0.3133  3.6267
   74MOL    H1227898   7.053   0.630   0.598  2.8907 -0.9726  0.7767
   74MOL    H1327899   7.085   0.916   0.575 -0.0451  0.2908 -1.2213
   74MOL    H1427900   7.248   0.869   0.620 -0.1867 -0.8345  0.1204
   74MOL    H1527901   7.212   0.962   0.472 -1.2510  0.6111 -0.1509
   74MOL    H1627902   7.276   0.836   0.307  1.8170  0.4578  5.3402
   74MOL    H1727903   7.275   0.628   0.159  0.1884  2.8824 -1.2973
   74MOL    H1827904   7.114   0.200   0.181 -0.2489 -0.7523  0.5768
   74MOL    H1927905   7.091   0.241   0.348  1.3320 -0.5835  0.4315
   74MOL    H2027906   7.166   0.423   0.099 -0.5092  1.3564 -0.5006
   74MOL    C2127907   7.301   0.253   0.277 -0.2818  0.0454  0.4192
   74MOL    C2227908   7.385   0.225   0.152 -0.3707  0.5853 -0.0746
   74MOL    C2327909   7.462   0.326   0.106 -0.8403 -0.1256  0.1072
   74MOL    C2427910   7.553   0.308   0.006  0.0131 -0.5517  0.0854
   74MOL    C2527911   7.565   0.184   8.023 -0.4315 -0.2413  0.7311
   74MOL    C2627912   7.660   0.175   7.908 -0.4555 -0.4168  0.0225
   74MOL    C2727913   7.489   0.077   8.072 -0.4401 -0.4864  0.4184
   74MOL    C2827914   7.393   0.099   0.090  0.3901  0.5302 -0.5354
   74MOL    C2927915   7.331   0.149   0.381  0.1857  0.3739 -0.1571
   74MOL    H3027916   7.338   0.348   0.318  3.1763 -0.7982 -0.5572
   74MOL    H3127917   7.454   0.425   0.150 -1.9109 -0.3460  0.4303
   74MOL    H3227918   7.621   0.391   8.070  0.1985 -0.8448 -0.6727
   74MOL    H3327919   7.761   0.157   7.943 -1.4913 -5.1473  0.9308
   74MOL    H3427920   7.637   0.090   7.844  1.2660  0.2199 -1.4662
   74MOL    H3527921   7.640   0.259   7.843  0.6691  0.5339  0.8844
   74MOL    H3627922   7.485   8.060   8.024 -0.2477  0.1174 -0.8309
   74MOL    H3727923   7.338   0.015   0.128  0.7120  0.3085 -0.5560
   74MOL    H3827924   7.288   0.055   0.346  0.7238  0.3512 -0.7617
   74MOL    H3927925   7.261   0.169   0.462 -0.2722 -1.4263 -0.0784
   74MOL    C4027926   7.481   0.123   0.427 -0.3947 -0.4656 -0.6247
   74MOL    C4127927   7.495   8.053   0.457 -0.1742  0.3769 -0.2137
   74MOL    C4227928   7.418   7.991   0.551  0.0453  0.6424 -0.5051
   74MOL    C4327929   7.428   7.850   0.576  0.2752  0.5933  0.0343
   74MOL    C4427930   7.502   7.770   0.490  0.2143  0.6986 -0.0223
   74MOL    C4527931   7.499   7.616   0.491  0.0039 -0.1971 -0.0242
   74MOL    C4627932   7.583   7.831   0.393 -0.3837  0.7697  0.4123
   74MOL    C4727933   7.581   7.974   0.380 -0.5866  0.7451 -0.2831
   74MOL    C4827934   7.526   0.210   0.556  0.4944  0.6211 -0.0358
   74MOL    H4927935   7.547   0.133   0.341 -1.8495  0.1571 -1.6856
   74MOL    H5027936   7.349   8.051   0.608  0.3651  1.2245 -0.7311
   74MOL    H5127937   7.377   7.804   0.658  0.6999 -0.0043 -0.0358
   74MOL    H5227938   7.600   7.578   0.500  0.5265  1.2974  0.6214
   74MOL    H5327939   7.442   7.574   0.574 -0.4888  0.0149 -0.2531
   74MOL    H5427940   7.452   7.576   0.401  1.2059  0.4202 -0.9432
   74MOL    H5527941   7.656   7.773   0.337  0.0044  1.6728 -0.0249
   74MOL    H5627942   7.643   8.017   0.303  1.2530 -1.4792 -0.1075
   74MOL    H5727943   7.609   0.161   0.606 -0.3599 -1.1799 -0.3126
   74MOL    H5827944   7.438   0.212   0.620 -1.0753 -1.4340 -2.0172
   74MOL    C5927945   7.575   0.351   0.522 -0.0246  0.1663  0.5291
   74MOL    C6027946   7.712   0.347   0.461 -0.8206 -0.1677 -0.5129
   74MOL    C6127947   7.741   0.404   0.334  0.0646  0.4498  0.6849
   74MOL    C6227948   7.872   0.407   0.285  0.4921 -0.0066  0.3507
   74MOL    C6327949   7.982   0.379   0.378  0.1120  0.1743 -0.0271
   74MOL    C6427950   0.051   0.404   0.335  1.2636  0.5590  0.0200
   74MOL    C6527951   7.954   0.329   0.508 -0.2039 -0.0689 -1.2995
   74MOL    C6627952   7.817   0.308   0.543  0.0509  0.5115 -0.9032
   74MOL    C6727953   7.571   0.454   0.644  0.0901 -0.1209 -0.1798
   74MOL    H6827954   7.503   0.394   0.452 -2.0018 -1.3563  1.5739
   74MOL    H6927955   7.662   0.440   0.270  1.1655 -0.7519 -1.3907
   74MOL    H7027956   7.881   0.448   0.186  0.4893 -1.0756 -0.1029
   74MOL    H7127957   0.116   0.322   0.365 -1.2482 -1.2843  0.5657
   74MOL    H7227958   0.054   0.404   0.226 -1.8634  0.2533 -0.0987
   74MOL    H7327959   0.092   0.494   0.382 -1.0335  0.7736  1.6660
   74MOL    H7427960   8.040   0.301   0.566 -1.9458 -2.3745  0.2827
   74MOL    H7527961   7.788   0.269   0.640  0.0625  1.6775 -0.4092
   74MOL    H7627962   7.641   0.427   0.724 -1.3074 -2.3852  0.3173
   74MOL    H7727963   7.479   0.445   0.702  1.5352  1.6218  2.5247
   74MOL    C7827964   7.606   0.598   0.614  0.4866 -0.2407  0.2711
   74MOL    C7927965   7.602   0.679   0.750  0.4194  0.5662 -0.1398
   74MOL    C8027966   7.710   0.757   0.784  0.2367 -0.2341 -0.3979
   74MOL    C8127967   7.708   0.845   0.898 -0.2991 -0.1765  0.0349
   74MOL    C8227968   7.584   0.856   0.969 -0.1071 -0.3105  0.1187
   74MOL    C8327969   7.572   0.948   1.086 -0.0616 -0.1740  0.1286
   74MOL    C8427970   7.483   0.767   0.929 -0.7520  0.0546 -0.3699
   74MOL    C8527971   7.481   0.681   0.823 -0.2746 -0.1846 -0.2649
   74MOL    C8627972   7.534   0.675   0.489  0.6872 -0.1269  0.1625
   74MOL    H8727973   7.714   0.597   0.596  0.4343  0.9068 -0.1835
   74MOL    H8827974   7.793   0.744   0.716  1.6229  1.7626  0.8882
   74MOL    H8927975   7.793   0.906   0.923 -1.5090  1.1710  0.9126
   74MOL    H9027976   7.627   1.041   1.078  2.0329 -1.2827  1.3400
   74MOL    H9127977   7.470   0.979   1.107  0.4102  1.0077  0.6614
   74MOL    H9227978   7.605   0.895   1.175  1.4761 -0.4639 -0.6001
   74MOL    H9327979   7.390   0.787   0.979 -0.1607  3.0276 -0.3536
   74MOL    H9427980   7.393   0.629   0.789  0.4280 -1.1290 -0.6868
   74MOL    H9527981   7.464   0.744   0.535  0.5758 -0.8934  1.1705
   74MOL    H9627982   7.467   0.608   0.435 -0.4773  0.2733  1.1027
   74MOL    C9727983   7.639   0.742   0.389 -0.4942 -0.3719  0.7258
   74MOL    C9827984   7.753   0.804   0.462  0.2119 -0.9676  0.0530
   74MOL    C9927985   7.878   0.743   0.452 -0.7756  0.8104  0.1144
   74MOL   C10027986   7.994   0.797   0.510 -0.6068  0.3752  0.0449
   74MOL   C10127987   7.982   0.923   0.570 -0.3802 -0.3844 -0.3535
   74MOL   C10227988   0.023   0.993   0.629  0.0207  0.4331 -0.4320
   74MOL   C10327989   7.857   0.988   0.584 -0.2079 -0.0250 -0.2697
   74MOL   C10427990   7.743   0.932   0.520  0.0118 -0.3043  0.3578
   74MOL   C10527991   7.570   0.837   0.288  0.6110  0.1042  0.7174
   74MOL   H10627992   7.673   0.655   0.333  1.2179 -0.3405  1.6799
   74MOL   H10727993   7.897   0.651   0.399  0.3923  1.3319 -0.3969
   74MOL   H10827994   0.010   0.751   0.490 -0.5830  0.1417  0.6639
   74MOL   H10927995   8.075   1.040   0.723 -0.4402 -0.8413  0.0674
   74MOL   H11027996   0.104   0.922   0.644 -0.5803 -0.0104  0.7691
   74MOL   H11127997   0.045   1.076   0.561 -1.1291  0.1043 -1.2246
   74MOL   H11227998   7.851   1.078   0.643 -0.1800 -1.2237  1.6040
   74MOL   H11327999   7.650   0.983   0.535  0.3755 -0.2954  2.7929
   74MOL   H11428000   7.518   0.915   0.344 -0.3313  0.9779 -1.2988
   74MOL   H11528001   7.493   0.778   0.237  0.4681  0.3652  0.6289
   74MOL   C11628002   7.656   0.891   0.177 -0.8896  0.0303 -0.0601
   74MOL   C11728003   7.576   0.987   0.091 -0.4932 -0.3054  0.1107
   74MOL   C11828004   7.601   1.123   0.099  0.5170 -0.7342  0.9379
   74MOL   C11928005   7.532   1.217   0.025  0.5171  0.0304  1.0554
   74MOL   C12028006   7.438   1.180   8.008 -0.1393 -0.9428  0.1721
   74MOL   C12128007   7.375   1.293   7.924  0.8185 -0.3321  0.5032
   74MOL   C12228008   7.405   1.043   8.000 -0.8311 -0.7300 -0.5824
   74MOL   C12328009   7.483   0.947   8.072  0.4722  0.0340  0.0312
   74MOL   C12428010   7.716   0.780   0.094  0.2488  0.7242 -0.0731
   74MOL   H12528011   7.736   0.952   0.219 -0.1181 -0.4268 -0.8453
   74MOL   H12628012   7.675   1.171   0.162  0.0478  0.6752  0.4345
   74MOL   H12728013   7.550   1.322   0.042  0.3324  0.1709  0.3837
   74MOL   H12828014   7.268   1.286   7.942  0.7346 -0.7473 -0.1401
   74MOL   H12928015   7.408   1.394   7.950 -0.2573  0.1085  0.1551
   74MOL   H13028016   7.405   1.277   7.821 -0.1085  1.7738 -0.1170
   74MOL   H13128017   7.333   1.000   7.930 -1.8615  1.2612 -0.7737
   74MOL   H13228018   7.460   0.842   8.065 -1.4744  0.2034  3.2902
   74MOL   H13328019   7.633   0.737   0.038 -0.2288 -0.7178  1.6918
   74MOL   H13428020   7.757   0.697   0.151 -2.2160 -0.4400  0.0810
   74MOL   C13528021   7.816   0.819   8.070 -0.3070  0.1352 -0.2009
   74MOL   C13628022   7.832   0.710   7.964  0.0800 -0.1919  0.2781
   74MOL   C13728023   7.770   0.732   7.841 -0.0187  0.5209 -0.5015
   74MOL   C13828024   7.772   0.625   7.744 -0.8054 -0.3607  0.6094
   74MOL   C13928025   7.843   0.505   7.772  0.2868  0.5932 -0.0125
   74MOL   C14028026   7.838   0.394   7.666  0.0768  0.3537  0.7083
   74MOL   C14128027   7.905   0.485   7.898 -0.5528  0.2943  0.1465
   74MOL   C14228028   7.896   0.586   7.989 -0.4241  0.1182  0.3512
   74MOL   C14328029   7.950   0.859   0.058 -0.5227  0.5492  0.2933
   74MOL   H14428030   7.775   0.903   8.013 -1.7514 -0.4441 -0.0334
   74MOL   H14528031   7.728   0.828   7.813 -1.8311 -0.2802 -0.6519
   74MOL   H14628032   7.732   0.649   7.646  2.4260  0.7246 -0.5304
   74MOL   H14728033   7.738   0.351   7.672  0.0388  0.2630 -0.4087
   74MOL   H14828034   7.857   0.438   7.568 -1.2376 -1.3216 -0.3349
   74MOL   H14928035   7.913   0.315   7.675 -1.2806 -1.2105 -1.2160
   74MOL   H15028036   7.949   0.390   7.927  1.2688  0.8208 -0.7943
   74MOL   H15128037   7.936   0.564   0.007 -4.1651 -2.6101  1.3767
   74MOL   H15228038   7.972   0.781   0.131  1.7494 -0.4525 -1.3741
   74MOL   H15328039   7.930   0.944   0.122  1.7899  0.5281  1.1032
   74MOL   C15428040   8.076   0.885   8.045 -0.1937 -0.1197 -0.5969
   74MOL   C15528041   0.095   0.781   0.011 -0.0325 -0.4238 -0.0213
   74MOL   C15628042   0.123   0.678   8.001 -0.6424  0.2633  0.7348
   74MOL   C15728043   0.226   0.580   8.035  0.2668  0.0304 -0.1849
   74MOL   C15828044   0.268   0.574   0.084  0.5010  0.0650 -0.4858
   74MOL   C15928045   0.376   0.481   0.119 -0.0210  0.1052 -0.4159
   74MOL   C16028046   0.233   0.674   0.176  0.0922 -0.4164 -0.2054
   74MOL   C16128047   0.147   0.776   0.142 -0.2679  0.3849 -0.4348
   74MOL   C16228048   0.062   1.026   8.052 -0.7246 -0.2009  0.4504
   74MOL   H16328049   8.046   0.864   7.942 -0.3210 -2.5538 -0.1048
   74MOL   H16428050   0.087   0.677   7.899  1.1419  2.2331  0.0439
   74MOL   H16528051   0.257   0.505   7.964 -1.8078 -1.5381  0.5188
   74MOL   H16628052   0.467   0.524   0.161 -0.0956  1.0820 -1.2215
   74MOL   H16728053   0.343   0.406   0.191  0.8013  1.1475  1.0667
   74MOL   H16828054   0.411   0.438   0.025  0.9929 -1.6652  0.7626
   74MOL   H16928055   0.275   0.674   0.275 -0.3332  2.2206  0.0030
   74MOL   H17028056   0.126   0.858   0.209 -1.1092 -0.6081  0.5249
   74MOL   H17128057   0.152   1.036   7.991 -1.4647  0.0592 -0.5988
   74MOL   H17228058   0.091   1.047   0.076  0.4158 -2.6184  0.6630
   74MOL   C17328059   8.049   1.144   8.014 -0.1435 -0.6610  0.0133
   74MOL   C17428060   7.984   1.120   7.881 -0.5418  0.3909 -0.0840
   74MOL   C17528061   7.845   1.144   7.871 -0.5861  0.2103  0.3888
   74MOL   C17628062   7.778   1.124   7.747 -0.5963 -0.2349  0.3778
   74MOL   C17728063   7.857   1.085   7.637 -0.3685  0.0724  0.8098
   74MOL   C17828064   7.790   1.070   7.499 -0.0618  0.2341  0.0651
   74MOL   C17928065   7.996   1.079   7.648  0.4334 -0.0549  0.6789
   74MOL   C18028066   8.067   1.090   7.770  0.8838 -0.0708 -0.2202
   74MOL   C18128067   0.037   1.284   8.013 -0.1611  0.0520  0.4797
   74MOL   H18228068   7.967   1.151   0.006 -0.1363  4.0186 -0.2821
   74MOL   H18328069   7.792   1.166   7.962  0.8886  1.8260  0.8887
   74MOL   H18428070   7.670   1.119   7.740 -0.4619 -1.5963 -0.8188
   74MOL   H18528071   7.694   1.118   7.479 -0.3694 -0.8312 -1.0813
   74MOL   H18628072   7.853   1.113   7.421 -1.8006  0.3139 -1.3207
   74MOL   H18728073   7.762   0.968   7.470  0.9950 -0.0322 -0.0456
   74MOL   H18828074   8.048   1.058   7.556 -2.1232  1.8737 -1.2542
   74MOL   H18928075   0.093   1.071   7.773  1.2756  1.7935 -1.4344
   74MOL   H19028076   8.050   1.347   7.955  0.7921  0.1656 -0.5110
   74MOL   H19128077   0.124   1.272   7.948 -0.3812 -0.6783  0.3073
   74MOL   C19228078   0.068   1.352   0.063 -0.0010  0.0257  0.0566
   74MOL   C19328079   8.043   1.344   0.167  0.4116  1.2782 -0.6166
   74MOL   C19428080   7.917   1.399   0.142 -0.5440  0.4329  0.0022
   74MOL   C19528081   7.823   1.407   0.245  0.5229  0.2616 -0.5386
   74MOL   C19628082   7.855   1.350   0.374 -0.3775 -0.4888 -0.3189
   74MOL   C19728083   7.762   1.357   0.498  0.1445 -0.0455  0.4662
   74MOL   C19828084   7.984   1.302   0.402  0.1866  0.1860 -0.2492
   74MOL   C19928085   8.073   1.293   0.292 -0.5828  0.2332  0.2267
   74MOL   C20028086   0.115   1.501   0.051  0.3076  0.0598 -0.1374
   74MOL   H20128087   0.157   1.300   0.099 -0.4921 -0.0343  1.2283
   74MOL   H20228088   7.882   1.447   0.052 -1.4373 -0.0148  0.1011
   74MOL   H20328089   7.726   1.453   0.237  0.3694  0.3627  1.5411
   74MOL   H20428090   7.775   1.453   0.549  1.8534  0.7974 -1.4646
   74MOL   H20528091   7.660   1.359   0.462  0.8114  0.6143 -1.4355
   74MOL   H20628092   7.763   1.269   0.562  1.1411  0.5634  1.3182
   74MOL   H20728093   8.010   1.276   0.503  0.3100  1.8046  0.1513
   74MOL   H20828094   0.093   1.257   0.308 -0.4446  1.2406  1.6703
   74MOL   H20928095   0.110   1.552   0.147  0.5814  2.7081 -1.4664
   74MOL   H21028096   0.043   1.557   8.071  0.9282 -0.8037 -1.7092
   74MOL   C21128097   0.261   1.516   0.007 -0.6436 -0.5509  0.2554
   74MOL   C21228098   0.364   1.464   0.108  0.3949 -0.0686  0.4216
   74MOL   C21328099   0.338   1.476   0.249  0.5983 -0.4364  0.7814
   74MOL   C21428100   0.440   1.441   0.337  0.3760  0.7203  0.0508
   74MOL   C21528101   0.564   1.386   0.297  0.0935  0.0736 -0.4898
   74MOL   C21628102   0.677   1.360   0.391 -0.3648 -0.6397 -0.6049
   74MOL   C21728103   0.586   1.377   0.157  0.7083 -0.3101 -0.6368
   74MOL   C21828104   0.493   1.422   0.065  0.3399 -1.1148 -0.1090
   74MOL   C21928105   0.296   1.665   8.053 -0.5831 -0.1969  0.1669
   74MOL   H22028106   0.273   1.455   7.997  1.9243 -0.4924  0.5203
   74MOL   H22128107   0.245   1.516   0.287  0.6426  1.1440 -0.7215
   74MOL   H22228108   0.407   1.461   0.438 -0.7577  0.8314 -0.3347
   74MOL   H22328109   0.708   1.256   0.402  0.7627 -0.0423  2.6023
   74MOL   H22428110   0.756   1.428   0.358 -1.2097 -0.2101 -1.7800
   74MOL   H22528111   0.649   1.391   0.492 -0.3424  0.6987 -0.9929
   74MOL   H22628112   0.683   1.340   0.130  0.5822 -2.4412  1.6685
   74MOL   H22728113   0.512   1.419   8.039 -1.5441  0.4553 -0.5165
   74MOL   H22828114   0.404   1.661   8.036 -0.2619  2.7018  1.3139
   74MOL   H22928115   0.290   1.726   0.062 -1.4796  0.9994 -0.6934
   74MOL   C23028116   0.238   1.741   7.927 -0.1637 -0.5738  0.1654
   74MOL   C23128117   0.257   1.660   7.799  0.3173  0.3215  0.1444
   74MOL   C23228118   0.155   1.572   7.756  0.5537  0.0497  0.8387
   74MOL   C23328119   0.168   1.484   7.643  0.2524  0.6937  0.1004
   74MOL   C23428120   0.277   1.497   7.557 -0.6276  0.1763 -0.4166
   74MOL   C23528121   0.288   1.410   7.429 -0.2441  0.3656  0.9683
   74MOL   C23628122   0.382   1.580   7.600 -0.7453  0.4939 -0.4026
   74MOL   C23728123   0.379   1.659   7.722 -0.0901  0.1494 -0.1650
   74MOL   C23828124   0.294   1.884   7.915  0.1795  0.3759  0.1727
   74MOL   H23928125   0.130   1.739   7.940 -0.0985  1.3677  1.1659
   74MOL   H24028126   0.063   1.561   7.812  1.8406 -1.1952  2.7872
   74MOL   H24128127   0.086   1.419   7.618  1.1725 -0.7253  0.7323
   74MOL   H24228128   0.192   1.415   7.378 -1.2349 -1.9035  2.5089
   74MOL   H24328129   0.371   1.436   7.363  0.5826 -1.6303  1.1791
   74MOL   H24428130   0.305   1.306   7.458 -0.0431  0.0625 -0.2166
   74MOL   H24528131   0.469   1.578   7.536 -0.2017  0.0648  0.3302
   74MOL   H24628132   0.466   1.716   7.752 -0.3488 -0.6786  2.2093
   74MOL   H24728133   0.389   1.888   7.861  0.9553 -0.6918  1.4423
   74MOL   H24828134   0.320   1.925   8.012 -1.0959  2.4800 -0.3512
   74MOL   C24928135   0.187   1.986   7.852 -0.5661  0.4125 -0.6280
   74MOL   C25028136   0.259   2.099   7.791  0.8176  0.3689  0.3033
   74MOL   C25128137   0.259   2.115   7.650 -0.5585  0.5360  0.3846
   74MOL   C25228138   0.353   2.200   7.588 -0.1129  0.0169  0.5289
   74MOL   C25328139   0.440   2.280   7.667 -0.1059  0.4035  0.8638
   74MOL   C25428140   0.530   2.380   7.599  0.0512  0.2096  0.2055
   74MOL   C25528141   0.440   2.262   7.806 -0.5983  0.2768 -0.3053
   74MOL   C25628142   0.341   2.179   7.868  0.4854  0.2651 -0.0653
   74MOL   C25728143   0.091   2.043   7.960 -0.1508 -0.0871  0.2549
   74MOL   H25828144   0.129   1.933   7.777  3.2755 -1.3982 -2.4450
   74MOL   H25928145   0.205   2.048   7.584  1.0731 -0.5095  0.0794
   74MOL   H26028146   0.356   2.210   7.480  1.7679  1.6369  0.6972
   74MOL   H26128147   0.508   2.395   7.494  1.1418 -2.5931 -0.4827
   74MOL   H26228148   0.510   2.479   7.638 -1.0869  0.8441 -1.9351
   74MOL   H26328149   0.634   2.347   7.596  0.5293  1.7329 -0.2930
   74MOL   H26428150   0.512   2.313   7.869 -1.5690  0.3907  0.7237
   74MOL   H26528151   0.349   2.169   7.975 -0.5327  1.2771  0.1164
   74MOL   H26628152   0.110   2.141   8.003 -1.1482 -0.5902  1.9247
   74MOL   H26728153   0.116   1.987   8.050  3.1410  0.4358 -0.2880
   74MOL   C26828154   8.017   2.036   7.935 -0.2320 -0.7870 -0.0834
   74MOL   C26928155   7.951   1.897   7.933  0.2620 -0.0444 -0.1101
   74MOL   C27028156   7.905   1.845   8.048 -0.1127 -0.4322 -0.0717
   74MOL   C27128157   7.832   1.725   8.046  0.1173 -0.1832 -0.2778
   74MOL   C27228158   7.803   1.665   7.924  0.1379 -0.1021  0.1739
   74MOL   C27328159   7.731   1.533   7.921 -0.1476 -0.0717 -0.3122
   74MOL   C27428160   7.844   1.718   7.803 -0.0576  0.6332  0.3881
   74MOL   C27528161   7.925   1.836   7.806 -0.5240 -0.0660  0.0494
   74MOL   C27628162   7.974   2.126   7.811 -0.0843 -0.3828 -0.1633
   74MOL   H27728163   7.966   2.084   8.019 -0.8845 -1.1037 -0.2948
   74MOL   H27828164   7.915   1.895   0.063  0.5309  0.9282 -0.8557
   74MOL   H27928165   7.780   1.687   0.053 -2.4773 -1.2673 -2.2376
   74MOL   H28028166   7.802   1.452   7.936  1.0540  0.8106 -1.2044
   74MOL   H28128167   7.644   1.536   7.987  0.6656 -0.7382  0.8219
   74MOL   H28228168   7.697   1.521   7.818  0.0505  0.7682 -0.4756
   74MOL   H28328169   7.820   1.675   7.708  2.2789 -1.7228  0.8100
   74MOL   H28428170   7.960   1.856   7.706 -0.2793  0.4168  0.2293
   74MOL   H28528171   7.999   2.081   7.716 -2.9328 -2.4014 -0.0156
   74MOL   H28628172   8.035   2.216   7.801 -0.7163  0.0921  0.2294
   74MOL   C28728173   7.817   2.172   7.815 -0.2816  0.6725  0.1332
   74MOL   C28828174   7.776   2.206   7.673 -0.0160  0.4549 -0.3030
   74MOL   C28928175   7.771   2.342   7.632 -0.1867  0.0904  0.0254
   74MOL   C29028176   7.748   2.370   7.496 -0.1998  0.5354  0.3130
   74MOL   C29128177   7.719   2.269   7.406 -0.6197  0.5157 -0.6946
   74MOL   C29228178   7.704   2.308   7.255 -0.4066  0.1592 -0.2594
   74MOL   C29328179   7.728   2.139   7.447  0.3032  0.0465 -0.1098
   74MOL   C29428180   7.766   2.105   7.576 -0.3876  0.2970  0.1075
   74MOL   C29528181   7.787   2.282   7.922  0.0634 -0.0385  0.0447
   74MOL   H29628182   7.766   2.077   7.834  2.1482 -0.6031  0.5497
   74MOL   H29728183   7.786   2.429   7.695 -0.6909  3.0398 -3.6900
   74MOL   H29828184   7.738   2.473   7.465  0.9994  0.7127  0.5015
   74MOL   H29928185   7.611   2.282   7.205  0.6243  0.4277 -2.3578
   74MOL   H30028186   7.716   2.416   7.244  0.3510  0.2797  1.5174
   74MOL   H30128187   7.782   2.262   7.194 -2.4662 -1.4002 -1.7928
   74MOL   H30228188   7.734   2.061   7.374 -0.0677 -1.0085  0.9770
   74MOL   H30328189   7.781   2.000   7.598 -2.1603  0.3027  1.4278
   74MOL   H30428190   7.831   2.378   7.898 -0.1362  0.1602  0.4685
   74MOL   H30528191   7.845   2.269   8.013  1.8919 -0.3906 -1.1483
   74MOL   C30628192   7.635   2.308   7.958 -0.0078  0.3550  0.4463
   74MOL   C30728193   7.607   2.429   8.050 -0.1684 -0.4659 -0.0528
   74MOL   C30828194   7.696   2.474   0.072 -0.3952  0.3596 -0.3254
   74MOL   C30928195   7.666   2.596   0.135 -0.1373 -0.1436  0.1240
   74MOL   C31028196   7.539   2.663   0.124  0.3902 -0.2733 -0.3544
   74MOL   C31128197   7.509   2.784   0.214 -0.0246  0.3552 -0.3624
   74MOL   C31228198   7.450   2.615   0.030  0.8806 -0.3498  0.4178
   74MOL   C31328199   7.484   2.503   8.030 -0.2120  0.2488  0.2979
   74MOL   C31428200   7.562   2.185   8.017 -0.0046 -0.4637 -0.4876
   74MOL   H31528201   7.589   2.318   7.860  0.7305 -0.8926 -0.0455
   74MOL   H31628202   7.787   2.417   0.084  0.3723  1.8182  0.8837
   74MOL   H31728203   7.742   2.628   0.205  0.2277  0.9267 -0.7383
   74MOL   H31828204   7.577   2.780   0.299  0.4551 -0.3527 -0.7800
   74MOL   H31928205   7.524   2.882   0.167  0.3749  0.1746 -0.6106
   74MOL   H32028206   7.407   2.777   0.250 -0.4055 -1.6685 -1.7850
   74MOL   H32128207   7.352   2.657   0.013  1.4160  0.4391 -0.8219
   74MOL   H32228208   7.408   2.461   7.965  1.8723 -2.3507 -0.5760
   74MOL   H32328209   7.499   2.214   0.021  3.0561 -0.1024  1.7792
   74MOL   H32428210   7.639   2.119   8.057  0.3077  1.8007  2.7891
   74MOL   C32528211   7.482   2.095   7.921  0.2990  0.4054  0.5819
   74MOL   C32628212   7.353   2.169   7.877 -0.4037 -0.3894 -0.6965
   74MOL   C32728213   7.338   2.206   7.742  0.1545  0.1753 -0.1213
   74MOL   C32828214   7.220   2.263   7.692  0.0332  0.0422  0.7198
   74MOL   C32928215   7.120   2.298   7.781 -0.3219 -0.0750  0.3094
   74MOL   C33028216   7.004   2.378   7.725 -0.1986  0.9192  0.9183
   74MOL   C33128217   7.130   2.263   7.921 -0.5435  0.1679  0.4171
   74MOL   C33228218   7.247   2.205   7.966  0.0749  0.3097 -0.6415
   74MOL   C33328219   7.450   1.964   7.993 -0.2995  0.1465 -0.0937
   74MOL   H33428220   7.545   2.067   7.836  0.7717 -2.6264  1.8661
   74MOL   H33528221   7.417   2.193   7.670 -1.0601  1.3889 -1.6856
   74MOL   H33628222   7.216   2.294   7.588  0.7391  0.4684  0.8187
   74MOL   H33728223   7.039   2.474   7.688  2.5167 -0.0131  0.9545
   74MOL   H33828224   6.964   2.322   7.640  0.5738  0.3244  0.9328
   74MOL   H33928225   6.922   2.400   7.794 -0.9997  0.8495  0.0054
   74MOL   H34028226   7.052   2.292   7.989 -0.9259  0.3144 -0.0797
   74MOL   H34128227   7.248   2.183   8.071 -0.2340  0.6678 -0.5611
   74MOL   H34228228   7.392   1.980   0.003 -0.1824 -0.6502  0.1331
   74MOL   H34328229   7.539   1.909   8.025 -1.0696 -0.0663  1.7201
   74MOL   C34428230   7.368   1.869   7.906  0.0727  0.2797 -0.0781
   74MOL   C34528231   7.317   1.748   7.989  0.0477 -0.4711  0.0479
   74MOL   C34628232   7.399   1.684   0.010 -0.4816  0.5426 -0.5476
   74MOL   C34728233   7.347   1.572   0.079 -1.1533  0.2147 -0.7144
   74MOL   C34828234   7.205   1.547   0.072 -0.6136  0.0464 -0.1781
   74MOL   C34928235   7.149   1.429   0.150 -0.2477  0.2487  0.1429
   74MOL   C35028236   7.124   1.611   8.061  0.7715  0.0668  0.2078
   74MOL   C35128237   7.181   1.708   7.976  0.0667  0.2790  0.1462
   74MOL   C35228238   7.453   1.814   7.785 -0.3033 -0.3195  0.5364
   74MOL   H35328239   7.284   1.928   7.868  0.5103  0.8058 -0.2387
   74MOL   H35428240   7.504   1.704   0.023 -0.2442 -0.7016 -0.4836
   74MOL   H35528241   7.408   1.533   0.158 -1.0087  0.6499 -0.6067
   74MOL   H35628242   7.042   1.430   0.129 -0.1829  1.0627 -0.1468
   74MOL   H35728243   7.189   1.328   0.139 -2.0745 -0.2966 -1.7037
   74MOL   H35828244   7.152   1.441   0.259  0.6939  2.0451 -0.0580
   74MOL   H35928245   7.024   1.578   8.037  0.7273  0.5490 -0.2717
   74MOL   H36028246   7.117   1.753   7.902  1.4354  1.3906 -0.3605
   74MOL   H36128247   7.520   1.743   7.833  0.1837  0.5856  1.2222
   74MOL   H36228248   7.515   1.894   7.743 -1.1825 -0.7094 -1.5768
   74MOL   C36328249   7.375   1.740   7.673 -0.3161  0.9862 -0.2423
   74MOL   C36428250   7.480   1.653   7.599  0.0011 -0.1948  0.1543
   74MOL   C36528251   7.484   1.515   7.629 -0.3446 -0.7533  0.5099
   74MOL   C36628252   7.589   1.438   7.575 -0.5539 -0.0433 -0.0415
   74MOL   C36728253   7.681   1.489   7.480  0.0536 -0.0500  0.0875
   74MOL   C36828254   7.765   1.408   7.389  0.4859 -0.9092  0.1556
   74MOL   C36928255   7.680   1.631   7.456  0.4834 -0.9034  0.2742
   74MOL   C37028256   7.580   1.709   7.522 -0.1424  0.3921  0.4015
   74MOL   C37128257   7.312   1.843   7.580  0.3063 -0.6017 -0.0300
   74MOL   H37228258   7.308   1.662   7.709  2.6649 -1.3381  0.4938
   74MOL   H37328259   7.410   1.478   7.698 -0.9403  1.8305  1.3037
   74MOL   H37428260   7.582   1.332   7.592 -1.6788 -0.2060 -1.3508
   74MOL   H37528261   7.840   1.471   7.341  0.9558 -0.3598  1.6092
   74MOL   H37628262   7.822   1.325   7.430 -2.4563 -2.9435  0.2756
   74MOL   H37728263   7.700   1.369   7.310 -0.5820 -0.0808  0.6076
   74MOL   H37828264   7.749   1.675   7.386  0.3206  1.0659  1.3172
   74MOL   H37928265   7.582   1.817   7.517 -0.2398  0.3517 -0.6988
   74MOL   H38028266   7.251   1.783   7.512  0.1314 -0.2636 -0.1674
   74MOL   H38128267   7.391   1.893   7.525  0.2860 -0.7366 -0.1848
   74MOL   H38228268   7.250   1.920   7.626  0.4976 -0.2819 -0.3052
   75MOL     C128269   2.739   0.145   2.659 -0.3324 -0.3518  0.5001
   75MOL     C228270   2.809   0.129   2.788 -0.1961  0.1278  0.3800
   75MOL     C328271   2.881   0.011   2.818 -0.1822 -0.2323  0.0194
   75MOL     C428272   2.954   8.069   2.943 -0.6227 -0.1560  0.2459
   75MOL     C528273   2.948   0.090   3.039  0.2726 -0.2560  0.5481
   75MOL     C628274   3.013   0.078   3.173 -0.2307  0.0579 -0.4419
   75MOL     C728275   2.879   0.213   3.004 -0.5317 -0.1493 -0.0806
   75MOL     C828276   2.823   0.237   2.877  0.3813  0.1794 -0.2436
   75MOL     C928277   2.584   0.151   2.677 -0.1753  0.3252 -0.3646
   75MOL    H1028278   2.787   0.223   2.601 -1.7011  0.0914 -0.0633
   75MOL    H1128279   2.886   8.006   2.752  0.3755 -1.4576  1.5928
   75MOL    H1228280   3.002   7.974   2.961  0.7393  0.4919  0.0767
   75MOL    H1328281   2.978   8.070   3.227  0.7678 -0.1659 -0.1451
   75MOL    H1428282   3.121   0.059   3.171 -0.1552  0.3203  0.7752
   75MOL    H1528283   2.996   0.170   3.230  1.3748 -0.2419  0.5761
   75MOL    H1628284   2.857   0.293   3.073 -1.0670 -0.6586  0.3448
   75MOL    H1728285   2.768   0.329   2.861  1.2449  0.5597 -1.0589
   75MOL    H1828286   2.545   0.248   2.709  0.7087  1.0373 -1.3683
   75MOL    H1928287   2.546   0.080   2.750 -0.4183  0.6314 -0.1936
   75MOL    H2028288   2.755   0.055   2.599 -0.6201 -0.2440  0.2585
   75MOL    C2128289   2.497   0.122   2.555  0.1355  0.3006 -0.3915
   75MOL    C2228290   2.501   0.236   2.455  0.3949  0.3475  0.3761
   75MOL    C2328291   2.598   0.235   2.346  0.2777 -0.7713 -0.0041
   75MOL    C2428292   2.595   0.335   2.248 -0.5664  0.1080 -0.1431
   75MOL    C2528293   2.526   0.448   2.267 -0.2968 -0.2809  0.4116
   75MOL    C2628294   2.510   0.556   2.158 -0.2671  1.2702 -0.1831
   75MOL    C2728295   2.447   0.464   2.383 -0.3148  0.4048  1.5411
   75MOL    C2828296   2.436   0.355   2.473  0.3516 -0.7140  0.6339
   75MOL    C2928297   2.351   0.092   2.591 -0.1525  0.0503 -0.4071
   75MOL    H3028298   2.545   0.033   2.512  1.4142  0.5143  0.5584
   75MOL    H3128299   2.669   0.155   2.334  1.9546  0.9076 -1.6725
   75MOL    H3228300   2.659   0.335   2.161  0.4248 -0.6519  0.5791
   75MOL    H3328301   2.471   0.506   2.069 -1.7654 -1.8144  2.1505
   75MOL    H3428302   2.437   0.631   2.187 -2.5171 -0.6664 -0.7481
   75MOL    H3528303   2.594   0.624   2.142  0.7941 -0.2861 -1.4525
   75MOL    H3628304   2.383   0.549   2.400 -0.6504  0.9546 -2.0275
   75MOL    H3728305   2.369   0.370   2.557 -2.5180 -3.9111 -0.9262
   75MOL    H3828306   2.301   0.182   2.624 -3.0253 -1.4332 -0.6204
   75MOL    H3928307   2.340   0.033   2.682 -0.9391 -1.5765 -1.5378
   75MOL    C4028308   2.278   0.010   2.477  0.2656 -0.0054  0.2148
   75MOL    C4128309   2.130   0.038   2.483  0.1861 -0.2260 -0.0831
   75MOL    C4228310   2.030   8.028   2.525  0.5914  0.2673  0.5357
   75MOL    C4328311   1.895   8.070   2.532 -0.2155 -0.3658  0.7040
   75MOL    C4428312   1.853   0.121   2.509  0.6508  0.1094  0.2135
   75MOL    C4528313   1.711   0.164   2.525 -0.4893  0.0138 -0.4444
   75MOL    C4628314   1.951   0.212   2.477  0.1140 -0.2891 -0.5132
   75MOL    C4728315   2.085   0.170   2.459  0.7802 -0.4582  0.0855
   75MOL    C4828316   2.321   7.942   2.485 -0.3725 -0.2643  1.2476
   75MOL    H4928317   2.301   0.058   2.382  0.2751  2.9516  1.6561
   75MOL    H5028318   2.060   7.928   2.554 -2.4398 -0.2314  2.1396
   75MOL    H5128319   1.822   7.991   2.545 -1.2884  0.2531 -1.3646
   75MOL    H5228320   1.720   0.267   2.560  1.0344 -1.1322  2.8170
   75MOL    H5328321   1.653   0.145   2.435  1.2388  0.8167 -1.7629
   75MOL    H5428322   1.667   0.101   2.602  0.6170  0.8175  0.8773
   75MOL    H5528323   1.934   0.317   2.456 -0.3013 -0.2985 -0.2267
   75MOL    H5628324   2.159   0.242   2.424 -1.3862  0.8367 -2.0160
   75MOL    H5728325   2.301   7.893   2.580 -1.3539  1.0593  1.7330
   75MOL    H5828326   2.429   7.951   2.473 -0.6230  1.3494  0.0709
   75MOL    C5928327   2.281   7.843   2.372 -0.0660 -0.2221  0.7670
   75MOL    C6028328   2.348   7.710   2.392 -0.5178 -0.8406  0.2089
   75MOL    C6128329   2.274   7.595   2.435  0.3693  0.0950 -0.6863
   75MOL    C6228330   2.351   7.477   2.449  0.1779  0.9323  0.1499
   75MOL    C6328331   2.485   7.474   2.423 -0.3443  0.2153 -0.5233
   75MOL    C6428332   2.552   7.340   2.436  0.6274 -0.8680  0.1126
   75MOL    C6528333   2.564   7.582   2.375  0.3944  0.6824 -0.7377
   75MOL    C6628334   2.491   7.703   2.365  0.5866 -0.5082 -1.0585
   75MOL    C6728335   2.306   7.908   2.236  0.5230 -0.7372  0.5016
   75MOL    H6828336   2.176   7.820   2.388 -0.3336 -3.5098 -4.4578
   75MOL    H6928337   2.170   7.584   2.463  0.2316  0.7517 -0.9319
   75MOL    H7028338   2.299   7.390   2.486 -0.4969  1.1965 -0.1639
   75MOL    H7128339   2.581   7.331   2.541 -1.4557 -0.5023  0.7611
   75MOL    H7228340   2.484   7.257   2.414  0.6655 -0.8129 -0.1998
   75MOL    H7328341   2.637   7.324   2.370 -1.4633 -3.2092 -2.1362
   75MOL    H7428342   2.671   7.582   2.356  0.3275  2.0553 -1.1195
   75MOL    H7528343   2.548   7.793   2.348 -1.3309  1.1803  1.1500
   75MOL    H7628344   2.397   7.966   2.225 -1.2905  2.0126 -0.7052
   75MOL    H7728345   2.231   7.987   2.224 -1.1125 -2.5638 -1.6295
   75MOL    C7828346   2.296   7.821   2.107 -0.1230  0.5480  0.9002
   75MOL    C7928347   2.280   7.919   1.987  0.2706  0.4575 -0.5382
   75MOL    C8028348   2.159   7.981   1.963 -0.0338  0.7424  0.1081
   75MOL    C8128349   2.146   0.002   1.867  0.0356  0.4604  0.0281
   75MOL    C8228350   2.246   0.023   1.772 -0.2134 -0.1823 -0.1053
   75MOL    C8328351   2.208   0.114   1.653  0.4194  0.8680  0.0069
   75MOL    C8428352   2.364   8.033   1.785 -0.3956 -0.0930 -0.4513
   75MOL    C8528353   2.385   7.942   1.888  0.1044  0.1345 -0.1330
   75MOL    C8628354   2.199   7.691   2.111  0.4800 -0.0591  0.4835
   75MOL    H8728355   2.395   7.776   2.102  0.1601  1.4021 -1.8563
   75MOL    H8828356   2.081   7.958   2.034 -0.3579  1.0278 -0.1524
   75MOL    H8928357   2.058   0.062   1.850 -0.7450  0.3397  3.4464
   75MOL    H9028358   2.135   0.192   1.676 -1.5024 -1.3021  1.4129
   75MOL    H9128359   2.290   0.164   1.602  0.2770  0.8763 -0.2124
   75MOL    H9228360   2.177   0.040   1.580  2.6734 -0.3987  0.2717
   75MOL    H9328361   2.435   8.038   1.703 -1.2076 -0.7695 -1.2130
   75MOL    H9428362   2.475   7.883   1.889  0.4134  0.5746 -1.4029
   75MOL    H9528363   2.108   7.728   2.160  0.6676  0.8371  0.1730
   75MOL    H9628364   2.250   7.614   2.169 -1.7952 -2.2727 -0.3998
   75MOL    C9728365   2.170   7.639   1.967  0.4202 -0.4378 -0.1322
   75MOL    C9828366   2.074   7.517   1.984  0.5080  0.6567 -0.1338
   75MOL    C9928367   2.119   7.389   2.027  0.3386  0.5274 -0.1309
   75MOL   C10028368   2.032   7.281   2.045  0.1259 -0.3812  0.2697
   75MOL   C10128369   1.900   7.291   1.992  0.1390 -0.5057 -0.4688
   75MOL   C10228370   1.809   7.168   1.985  0.1557  0.1010  0.0484
   75MOL   C10328371   1.855   7.421   1.950 -1.3870  0.4436  0.0861
   75MOL   C10428372   1.937   7.533   1.944  0.2753  0.4423 -0.2434
   75MOL   C10528373   2.296   7.608   1.881  0.4101 -0.3267 -0.2604
   75MOL   H10628374   2.122   7.728   1.929 -0.7670 -1.3869 -0.8827
   75MOL   H10728375   2.222   7.361   2.045 -0.1737 -0.8748  0.6955
   75MOL   H10828376   2.068   7.183   2.074 -0.5317 -0.9748 -0.8664
   75MOL   H10928377   1.773   7.134   2.082  0.2790  0.1694  0.1195
   75MOL   H11028378   1.723   7.180   1.920 -0.1774  0.5589  0.5690
   75MOL   H11128379   1.858   7.078   1.949 -1.2439 -0.6968  0.1268
   75MOL   H11228380   1.751   7.432   1.922 -1.3246  0.2621 -0.2210
   75MOL   H11328381   1.897   7.630   1.918 -0.2960  0.1577 -0.4433
   75MOL   H11428382   2.305   7.500   1.893 -0.2078 -0.6164 -2.3527
   75MOL   H11528383   2.378   7.644   1.943  0.8061 -1.3006 -0.1984
   75MOL   C11628384   2.289   7.643   1.729  0.3235  1.0344  0.6957
   75MOL   C11728385   2.169   7.576   1.668  0.2944  0.6479  0.9549
   75MOL   C11828386   2.061   7.655   1.616  0.1787  0.6548  0.5884
   75MOL   C11928387   1.942   7.592   1.574  0.6798  0.3497  0.7060
   75MOL   C12028388   1.928   7.448   1.576  0.0060 -0.0035  0.7616
   75MOL   C12128389   1.806   7.385   1.517  0.6703 -0.0077  0.0309
   75MOL   C12228390   2.029   7.372   1.638 -0.2754  0.5333 -0.1843
   75MOL   C12328391   2.148   7.434   1.681 -0.0103 -0.3533  0.0927
   75MOL   C12428392   2.420   7.588   1.656  0.3716 -0.4432 -0.8031
   75MOL   H12528393   2.282   7.750   1.709  1.0075  0.6831 -1.5642
   75MOL   H12628394   2.063   7.763   1.616  0.1167  0.6551  0.5244
   75MOL   H12728395   1.853   7.641   1.540  0.7093 -2.2400 -3.4597
   75MOL   H12828396   1.815   7.278   1.535 -0.1688  0.2918  2.4269
   75MOL   H12928397   1.720   7.423   1.571 -1.2304 -1.2954 -1.9761
   75MOL   H13028398   1.784   7.392   1.410 -1.8866 -2.3289  0.3439
   75MOL   H13128399   2.013   7.266   1.647 -0.1428  0.4774 -0.6022
   75MOL   H13228400   2.223   7.369   1.723  0.8376 -0.7045 -1.8989
   75MOL   H13328401   2.461   7.501   1.707  1.4234 -0.0816 -1.0113
   75MOL   H13428402   2.494   7.661   1.689 -0.3710 -0.6609  1.3960
   75MOL   C13528403   2.427   7.568   1.503 -0.0926 -0.6844 -0.2775
   75MOL   C13628404   2.540   7.472   1.470 -0.2412 -0.4873  0.0896
   75MOL   C13728405   2.517   7.335   1.444 -0.1340 -0.0061  0.4875
   75MOL   C13828406   2.624   7.243   1.430  0.1809 -0.3599  0.4411
   75MOL   C13928407   2.758   7.291   1.433  0.4015 -0.4212 -0.1446
   75MOL   C14028408   2.880   7.201   1.423  0.2439  0.5503 -0.8385
   75MOL   C14128409   2.783   7.429   1.449  0.3290 -0.4608 -0.1750
   75MOL   C14228410   2.673   7.518   1.463 -0.1561 -0.1070  0.5555
   75MOL   C14328411   2.419   7.698   1.412 -0.0351  0.4326 -0.4613
   75MOL   H14428412   2.343   7.499   1.494 -0.1182 -0.6835 -0.0555
   75MOL   H14528413   2.418   7.295   1.436  0.4091 -1.2057 -0.3589
   75MOL   H14628414   2.609   7.139   1.406  0.3200 -0.1147 -0.7444
   75MOL   H14728415   2.858   7.124   1.497  0.7329  2.1504  1.0328
   75MOL   H14828416   2.881   7.157   1.324 -0.5340  0.5815 -0.8670
   75MOL   H14928417   2.968   7.250   1.466 -0.5094  0.6300  0.6586
   75MOL   H15028418   2.883   7.467   1.468  0.0636  0.2916 -0.2448
   75MOL   H15128419   2.696   7.619   1.494 -2.7492  1.0030 -0.9784
   75MOL   H15228420   2.516   7.703   1.361  0.6839  1.8794  0.9969
   75MOL   H15328421   2.417   7.780   1.484  0.2551 -1.4116  1.6865
   75MOL   C15428422   2.300   7.706   1.323  0.4378 -0.1048  0.0732
   75MOL   C15528423   2.289   7.588   1.228 -0.0962  0.3349 -0.4042
   75MOL   C15628424   2.372   7.574   1.117 -0.5741 -0.5588  0.1403
   75MOL   C15728425   2.361   7.471   1.021  0.1970 -0.3253 -0.1629
   75MOL   C15828426   2.253   7.379   1.029  0.4018  0.2450  0.5828
   75MOL   C15928427   2.242   7.261   0.929 -0.4901 -0.0152 -0.5770
   75MOL   C16028428   2.163   7.393   1.137  0.1407 -0.6009 -0.0388
   75MOL   C16128429   2.178   7.501   1.228 -0.7625 -0.1658  0.1076
   75MOL   C16228430   2.287   7.841   1.256  0.5052  0.2488  0.4603
   75MOL   H16328431   2.219   7.694   1.395  0.1929  0.5126 -0.1032
   75MOL   H16428432   2.455   7.641   1.102 -0.6578 -0.5657 -0.3829
   75MOL   H16528433   2.433   7.480   0.941  0.1914 -0.6456 -0.2037
   75MOL   H16628434   2.192   7.182   0.986  0.7872  0.2326  0.9354
   75MOL   H16728435   2.178   7.284   0.844 -0.5184 -0.5997 -0.7169
   75MOL   H16828436   2.339   7.228   0.892 -0.8101  0.1459 -1.5489
   75MOL   H16928437   2.084   7.320   1.146 -0.9296  0.3841 -1.2971
   75MOL   H17028438   2.100   7.513   1.302  0.0305 -0.1087  0.9524
   75MOL   H17128439   2.344   7.840   1.162 -0.7202 -2.3070 -0.3000
   75MOL   H17228440   2.335   7.918   1.317  2.3740 -0.4771 -0.0358
   75MOL   C17328441   2.143   7.876   1.219  0.3156  0.0562 -0.7653
   75MOL   C17428442   2.140   7.985   1.105  0.5914  0.0687  0.4126
   75MOL   C17528443   2.188   0.034   1.125  0.0504 -0.0671 -0.4131
   75MOL   C17628444   2.188   0.131   1.018 -0.3236 -1.2058  0.4255
   75MOL   C17728445   2.140   0.095   0.890  0.3440  0.2068 -0.2324
   75MOL   C17828446   2.127   0.194   0.780 -0.4744  0.5752 -0.5535
   75MOL   C17928447   2.096   8.044   0.874 -0.0655  0.4879 -0.5158
   75MOL   C18028448   2.100   7.950   0.982 -0.1410  0.1418 -0.0125
   75MOL   C18128449   2.058   7.906   1.351 -0.3859 -0.0066 -0.7186
   75MOL   H18228450   2.106   7.787   1.169 -0.5765 -0.4940  0.8155
   75MOL   H18328451   2.230   0.057   1.222 -2.9600  1.8809  0.4869
   75MOL   H18428452   2.226   0.231   1.029 -1.2192 -1.0403  2.1492
   75MOL   H18528453   2.048   0.182   0.706 -1.5565 -2.6026  0.9896
   75MOL   H18628454   2.118   0.293   0.825  1.4460 -1.3219  4.3381
   75MOL   H18728455   2.213   0.208   0.716  0.0656  1.1942  0.2953
   75MOL   H18828456   2.062   8.008   0.779  0.4246  0.2502 -0.5985
   75MOL   H18928457   2.068   7.850   0.956  0.1551 -0.0451  0.3346
   75MOL   H19028458   2.124   7.962   1.417  1.2918 -2.3083 -0.3956
   75MOL   H19128459   2.025   7.812   1.395  0.2359 -0.0954 -0.4361
   75MOL   C19228460   1.919   7.979   1.316  0.4837  0.4190 -0.4473
   75MOL   C19328461   1.887   8.068   1.431 -0.0174  0.8024  0.3255
   75MOL   C19428462   1.839   8.000   1.547 -1.0179  0.4828 -0.4846
   75MOL   C19528463   1.800   8.073   1.657 -0.1190  0.0662  0.5401
   75MOL   C19628464   1.809   0.131   1.659  0.1297 -0.0624 -0.7177
   75MOL   C19728465   1.739   0.202   1.772  0.7314  0.4075 -0.0762
   75MOL   C19828466   1.872   0.197   1.550 -0.6571  0.2323  0.9046
   75MOL   C19928467   1.914   0.125   1.435 -0.0692 -0.6994  0.1426
   75MOL   C20028468   1.814   7.873   1.265 -0.1248 -0.8788 -0.2111
   75MOL   H20128469   1.943   8.054   1.241  2.1735 -1.6184 -2.0275
   75MOL   H20228470   1.833   7.892   1.548  1.1452  0.1878 -5.1701
   75MOL   H20328471   1.775   8.022   1.749  0.4875  0.0057  0.6777
   75MOL   H20428472   1.663   0.273   1.740  0.6955  0.3409 -0.1382
   75MOL   H20528473   1.691   0.139   1.847 -0.4543  1.3667 -0.0275
   75MOL   H20628474   1.819   0.254   1.825 -0.4512  0.6695  1.4889
   75MOL   H20728475   1.896   0.302   1.550  3.3262 -0.6164  1.8632
   75MOL   H20828476   1.968   0.175   1.356 -0.2792 -2.5358 -1.1784
   75MOL   H20928477   1.770   7.811   1.342 -2.1422 -0.0308 -0.6491
   75MOL   H21028478   1.869   7.816   1.190  1.1775 -0.0468  0.0930
   75MOL   C21128479   1.692   7.934   1.200  0.3256  0.1265  0.4291
   75MOL   C21228480   1.591   7.825   1.177  0.2195 -0.9880  0.2533
   75MOL   C21328481   1.471   7.807   1.252  0.5565  0.6409  0.2321
   75MOL   C21428482   1.376   7.700   1.215 -0.4669  0.3169 -0.0308
   75MOL   C21528483   1.410   7.610   1.110 -0.3903 -0.1379  0.0210
   75MOL   C21628484   1.320   7.492   1.083 -0.2158 -0.0284  0.4697
   75MOL   C21728485   1.533   7.627   1.040 -0.4143  0.0247  0.4509
   75MOL   C21828486   1.620   7.736   1.070 -0.1144 -0.3209 -0.3431
   75MOL   C21928487   1.733   8.024   1.079 -0.7070 -0.0272 -0.2143
   75MOL   H22028488   1.645   8.001   1.273 -2.3350  0.0277 -1.1144
   75MOL   H22128489   1.452   7.881   1.328 -1.4852  2.0946 -1.6555
   75MOL   H22228490   1.287   7.682   1.274  1.6961  2.0628  3.9612
   75MOL   H22328491   1.351   7.418   1.157 -0.7693 -0.3399  0.3881
   75MOL   H22428492   1.216   7.519   1.097 -0.3508 -0.8275  1.0025
   75MOL   H22528493   1.320   7.454   0.981  1.0165  1.1254  0.0184
   75MOL   H22628494   1.558   7.555   0.964  0.2905 -1.3621  1.9820
   75MOL   H22728495   1.708   7.740   1.007 -0.1771 -2.4109 -0.5936
   75MOL   H22828496   1.799   7.960   1.021  0.7123  1.3255 -0.1172
   75MOL   H22928497   1.792   0.027   1.117  1.3399 -1.7199  0.3449
   75MOL   C23028498   1.629   8.080   0.983 -0.1568  0.1362 -0.3192
   75MOL   C23128499   1.672   8.066   0.835  0.0544 -0.6126  0.1432
   75MOL   C23228500   1.794   0.049   0.790  0.9531 -0.0801  0.1995
   75MOL   C23328501   1.826   0.039   0.652  0.3865 -0.0507 -0.0469
   75MOL   C23428502   1.743   8.044   0.567  0.7503  0.3739 -0.7820
   75MOL   C23528503   1.766   8.026   0.420 -0.1132  0.5215 -0.3714
   75MOL   C23628504   1.619   7.995   0.612 -0.0956 -0.2216 -0.5123
   75MOL   C23728505   1.588   7.995   0.746 -0.2957  0.7028  0.8429
   75MOL   C23828506   1.579   0.133   1.030  0.2077  0.7159  0.2424
   75MOL   H23928507   1.540   8.019   0.995 -0.7889  0.5641 -2.6252
   75MOL   H24028508   1.858   0.106   0.856 -0.1017  1.0431  0.2745
   75MOL   H24128509   1.910   0.090   0.606  1.2592 -3.4205 -2.4448
   75MOL   H24228510   1.728   7.926   0.396 -2.9344  1.8255 -1.5643
   75MOL   H24328511   1.704   0.020   0.369 -0.1357 -0.7020 -2.1663
   75MOL   H24428512   1.867   8.043   0.383  0.5616 -1.1413  0.6203
   75MOL   H24528513   1.559   7.941   0.540 -1.6820 -0.4973  0.9824
   75MOL   H24628514   1.503   7.940   0.785  0.9413  0.0134  2.6277
   75MOL   H24728515   1.657   0.208   1.039  0.2226  0.6287  0.8347
   75MOL   H24828516   1.545   0.118   1.132 -2.3270  0.2838 -0.6336
   75MOL   C24928517   1.471   0.211   0.945  0.7320 -0.2591 -0.3232
   75MOL   C25028518   1.462   0.357   0.993  0.2571  0.3526  0.5352
   75MOL   C25128519   1.437   0.384   1.132 -0.4614  0.2480  0.1963
   75MOL   C25228520   1.445   0.516   1.184 -0.4985  0.4150 -0.3535
   75MOL   C25328521   1.459   0.619   1.088  0.1321  0.3117  0.3620
   75MOL   C25428522   1.479   0.759   1.126  0.3787  0.3844 -0.2501
   75MOL   C25528523   1.469   0.592   0.946 -0.1490  0.7152 -0.6553
   75MOL   C25628524   1.470   0.463   0.898 -0.0124 -0.2110  0.3998
   75MOL   C25728525   1.327   0.139   0.935  0.3314 -0.4948  1.3591
   75MOL   H25828526   1.525   0.216   0.850  1.0441  5.0952 -0.0028
   75MOL   H25928527   1.440   0.307   1.207  2.4098  2.1894  2.1938
   75MOL   H26028528   1.434   0.538   1.289 -0.9783  0.1181 -0.3411
   75MOL   H26128529   1.477   0.768   1.234  2.1028 -3.3238  0.1612
   75MOL   H26228530   1.576   0.783   1.082  0.3337 -1.9842 -1.7331
   75MOL   H26328531   1.400   0.813   1.075  0.1302  1.8183  1.5921
   75MOL   H26428532   1.473   0.670   0.872  1.2818  0.6855 -0.6307
   75MOL   H26528533   1.498   0.452   0.795  2.1101 -1.3327  1.0560
   75MOL   H26628534   1.278   0.135   1.032 -0.8937 -0.1762  0.7580
   75MOL   H26728535   1.351   0.036   0.910  1.6599  0.1463 -0.0974
   75MOL   C26828536   1.230   0.202   0.833 -0.1545 -0.1437 -0.2336
   75MOL   C26928537   1.104   0.111   0.822 -0.2969  0.1406 -0.2935
   75MOL   C27028538   1.114   8.067   0.759  0.3921  0.1466  0.0996
   75MOL   C27128539   0.997   7.986   0.747 -0.8584 -0.2735  0.8352
   75MOL   C27228540   0.880   8.031   0.805 -0.5164  0.4593 -0.7572
   75MOL   C27328541   0.758   7.935   0.805 -0.0568 -1.2836 -0.4246
   75MOL   C27428542   0.867   0.073   0.873 -0.1956 -0.8550  0.2863
   75MOL   C27528543   0.982   0.155   0.879 -0.2261 -0.3053  0.1235
   75MOL   C27628544   1.305   0.220   0.693  0.0309 -0.6088 -0.4803
   75MOL   H27728545   1.198   0.303   0.859  0.5549 -0.5225  2.2155
   75MOL   H27828546   1.213   8.037   0.727  1.0703  0.5532  1.7600
   75MOL   H27928547   1.016   7.890   0.702  0.3047 -0.1122  0.9528
   75MOL   H28028548   0.739   7.887   0.901  1.2512  3.0766  2.1420
   75MOL   H28128549   0.670   7.995   0.782 -1.0602 -0.8753  4.0169
   75MOL   H28228550   0.771   7.870   0.719  1.0266 -0.2001 -1.0955
   75MOL   H28328551   0.771   0.103   0.911 -0.0121 -0.3409  0.3522
   75MOL   H28428552   0.977   0.251   0.927  0.0943 -0.2294  0.0056
   75MOL   H28528553   1.358   0.127   0.672  1.0145  0.0105 -0.7703
   75MOL   H28628554   1.378   0.300   0.708  0.5382 -0.9828 -0.9547
   75MOL   C28728555   1.220   0.257   0.568  0.0385 -1.0973  0.5851
   75MOL   C28828556   1.312   0.249   0.445 -0.0100 -0.5117 -0.2234
   75MOL   C28928557   1.351   0.372   0.383  0.6040 -0.0647  0.2292
   75MOL   C29028558   1.433   0.365   0.266 -0.2672  0.3506 -0.0123
   75MOL   C29128559   1.484   0.242   0.221 -0.1602  0.0178 -0.0366
   75MOL   C29228560   1.571   0.226   0.099 -0.1802  0.2448  0.3205
   75MOL   C29328561   1.447   0.125   0.286  0.7212  0.1011  0.3257
   75MOL   C29428562   1.365   0.124   0.403 -0.0509 -0.1702 -0.3940
   75MOL   C29528563   1.139   0.387   0.586 -0.1627 -0.2065 -0.2311
   75MOL   H29628564   1.148   0.178   0.547 -0.8931 -0.1251  0.0805
   75MOL   H29728565   1.311   0.470   0.405 -0.8341 -0.6252  0.1153
   75MOL   H29828566   1.454   0.460   0.218 -0.8481  0.3764 -0.2208
   75MOL   H29928567   1.523   0.148   0.040  0.9204  0.0368 -0.3120
   75MOL   H30028568   1.561   0.312   0.034  0.5172 -0.4819 -0.7585
   75MOL   H30128569   1.677   0.201   0.103 -0.8984 -3.3189 -0.9986
   75MOL   H30228570   1.492   0.037   0.242 -0.1296  1.7616 -4.1360
   75MOL   H30328571   1.332   0.033   0.451  0.4787  0.1101  0.5186
   75MOL   H30428572   1.203   0.474   0.603 -0.7396 -0.2055  2.0352
   75MOL   H30528573   1.079   0.384   0.677 -1.9222 -0.1303 -1.3634
   75MOL   C30628574   1.041   0.432   0.477 -0.8707  0.4486 -0.0718
   75MOL   C30728575   1.023   0.587   0.478 -0.0823  0.6047 -0.4155
   75MOL   C30828576   1.073   0.660   0.365  0.3277 -0.2863 -0.2146
   75MOL   C30928577   1.065   0.795   0.358 -0.2829  0.1270  0.1047
   75MOL   C31028578   1.004   0.875   0.459 -0.2238 -0.4894 -0.3177
   75MOL   C31128579   0.985   1.023   0.445 -0.1162 -0.3522 -0.7378
   75MOL   C31228580   0.969   0.805   0.579 -0.0289  0.8521 -0.3372
   75MOL   C31328581   0.979   0.663   0.590  0.1434  0.3703  0.3751
   75MOL   C31428582   0.908   0.361   0.488  0.9508  0.1552 -0.5969
   75MOL   H31528583   1.078   0.397   0.381 -1.0860  0.5453 -0.1926
   75MOL   H31628584   1.117   0.603   0.284  0.7440  0.9781 -0.8898
   75MOL   H31728585   1.115   0.843   0.276  0.6045 -0.3369  0.3650
   75MOL   H31828586   1.010   1.069   0.349 -2.1740 -1.4419 -1.8362
   75MOL   H31928587   0.881   1.049   0.467 -0.4756 -1.8222 -0.6916
   75MOL   H32028588   1.042   1.059   0.531 -0.8135 -0.8550 -0.0576
   75MOL   H32128589   0.923   0.854   0.664  1.1141 -0.5244  1.0944
   75MOL   H32228590   0.948   0.605   0.676  1.1844  0.6547  0.9559
   75MOL   H32328591   0.894   0.398   0.589  3.0365  0.0864 -0.2481
   75MOL   H32428592   0.930   0.254   0.485  0.3385  0.0224 -0.2096
   75MOL   C32528593   0.787   0.400   0.398 -0.1829  0.7101 -0.0509
   75MOL   C32628594   0.662   0.350   0.454  0.2181  0.6937 -0.2686
   75MOL   C32728595   0.657   0.247   0.543 -0.9274  0.3634  0.0647
   75MOL   C32828596   0.539   0.210   0.610 -0.5902  0.0242 -0.4943
   75MOL   C32928597   0.419   0.286   0.594 -0.8200  0.6861 -0.0175
   75MOL   C33028598   0.291   0.251   0.663 -0.0348 -0.0730  1.4540
   75MOL   C33128599   0.421   0.394   0.496 -0.7833  0.2214  0.2836
   75MOL   C33228600   0.546   0.424   0.432  0.3930 -0.0641 -0.4865
   75MOL   C33328601   0.787   0.329   0.260  0.3250 -0.5785  0.7507
   75MOL   H33428602   0.782   0.508   0.386 -1.1593  0.4964 -1.8994
   75MOL   H33528603   0.745   0.186   0.560 -1.4446  0.0149  1.6381
   75MOL   H33628604   0.538   0.125   0.677  2.1813  0.8778  0.7126
   75MOL   H33728605   0.285   0.311   0.754  0.1393  1.7764  0.2761
   75MOL   H33828606   0.202   0.270   0.603  0.9520  0.0582  0.0047
   75MOL   H33928607   0.280   0.144   0.684 -0.6500 -0.3055  0.0067
   75MOL   H34028608   0.338   0.459   0.475  0.3425  1.4713 -0.3945
   75MOL   H34128609   0.550   0.500   0.356  0.8418  0.5250  0.1229
   75MOL   H34228610   0.688   0.327   0.214  0.4902 -0.1531  0.3728
   75MOL   H34328611   0.819   0.226   0.276 -0.1089 -0.4616  2.4928
   75MOL   C34428612   0.869   0.406   0.152  0.8462 -0.4259  0.4148
   75MOL   C34528613   0.781   0.512   0.084 -0.8415 -0.0500  0.6167
   75MOL   C34628614   0.799   0.648   0.123  0.4360 -0.3386 -0.1662
   75MOL   C34728615   0.720   0.748   0.059  1.0855  0.2297  0.5566
   75MOL   C34828616   0.637   0.709   8.030  0.1339 -0.1057 -0.2705
   75MOL   C34928617   0.557   0.814   7.962 -0.2416 -0.0602 -0.1339
   75MOL   C35028618   0.632   0.580   7.991 -0.2475 -0.1160 -0.5561
   75MOL   C35128619   0.703   0.479   8.055 -0.0417  0.5366  0.6459
   75MOL   C35228620   0.936   0.317   0.038 -0.2526  0.1424 -0.0456
   75MOL   H35328621   0.947   0.454   0.211  2.4567 -1.2273 -1.0296
   75MOL   H35428622   0.873   0.682   0.194  1.2376 -1.2803 -0.5383
   75MOL   H35528623   0.726   0.849   0.098 -0.7280  0.1430  1.1169
   75MOL   H35628624   0.623   0.891   7.921  0.0402 -1.4699 -2.3816
   75MOL   H35728625   0.497   0.777   7.879 -1.8360 -0.1561  1.0407
   75MOL   H35828626   0.485   0.868   8.024 -0.8284 -0.2329 -0.6520
   75MOL   H35928627   0.567   0.542   7.914  2.1759 -2.0314 -1.7120
   75MOL   H36028628   0.691   0.377   8.022  0.0213 -0.0769  2.4280
   75MOL   H36128629   0.946   0.380   8.029 -0.7795  0.4323  0.1014
   75MOL   H36228630   0.874   0.232   0.011 -0.1388  1.4218 -4.8632
   75MOL   C36328631   1.078   0.268   0.075 -0.1749  0.2457 -0.2418
   75MOL   C36428632   1.157   0.212   8.035 -0.2800  0.3262  1.1211
   75MOL   C36528633   1.262   0.296   7.988  0.2567  0.0021  0.2451
   75MOL   C36628634   1.323   0.260   7.864  0.1749 -0.8250 -0.2645
   75MOL   C36728635   1.281   0.140   7.794  0.4712 -0.4021 -0.1504
   75MOL   C36828636   1.340   0.107   7.656  0.5734 -0.1090 -0.7026
   75MOL   C36928637   1.187   0.056   7.849  1.0061 -0.6793 -0.5437
   75MOL   C37028638   1.128   0.090   7.970  0.4005 -0.8328  0.0026
   75MOL   C37128639   1.081   0.173   0.183 -0.1657  0.0000  0.0574
   75MOL   H37228640   1.139   0.353   0.107  2.8585 -1.6143 -0.8622
   75MOL   H37328641   1.278   0.390   8.038  0.5941  0.1872 -0.2056
   75MOL   H37428642   1.400   0.322   7.819 -0.5611 -0.0201 -0.4326
   75MOL   H37528643   1.271   0.059   7.587  0.2108 -0.5035 -0.0620
   75MOL   H37628644   1.376   0.199   7.610 -0.0691  0.4160 -0.1707
   75MOL   H37728645   1.425   0.041   7.677  0.8049  0.2102 -0.6269
   75MOL   H37828646   1.145   8.043   7.815  0.3322 -0.7848  0.5460
   75MOL   H37928647   1.044   0.031   8.002  0.1704 -0.7133 -0.3776
   75MOL   H38028648   1.036   0.230   0.265  0.0697 -1.2944  1.1105
   75MOL   H38128649   1.182   0.142   0.211 -0.2227  0.0886  0.3584
   75MOL   H38228650   1.014   0.089   0.162 -0.8713  0.0546  1.9321
   76MOL     C128651   4.256   4.112   0.698 -0.3443 -0.2276 -0.3420
   76MOL     C228652   4.285   4.243   0.765 -0.4051 -0.5126 -0.7424
   76MOL     C328653   4.265   4.251   0.904 -0.3178  0.9446 -0.8279
   76MOL     C428654   4.305   4.368   0.971 -0.1380 -0.2827  0.7205
   76MOL     C528655   4.354   4.475   0.895  0.3660  0.5492  0.8006
   76MOL     C628656   4.390   4.604   0.967  0.0512 -0.2154  0.4417
   76MOL     C728657   4.373   4.465   0.754 -0.2147 -0.6707  0.2785
   76MOL     C828658   4.341   4.348   0.688  0.9070 -0.5639 -0.0810
   76MOL     C928659   4.173   4.119   0.570  0.6724 -0.4540 -0.1915
   76MOL    H1028660   4.350   4.062   0.674 -0.1875 -0.0714 -0.0462
   76MOL    H1128661   4.224   4.170   0.963  1.0750  0.4255 -0.5625
   76MOL    H1228662   4.275   4.387   1.072 -1.9866 -0.0137  0.1407
   76MOL    H1328663   4.485   4.594   1.021 -0.4140 -0.9786  1.1289
   76MOL    H1428664   4.408   4.683   0.895 -1.1374  0.4588  0.8772
   76MOL    H1528665   4.307   4.641   1.026 -0.5121 -0.3297 -0.2802
   76MOL    H1628666   4.417   4.546   0.696 -0.4473  0.1599  1.2592
   76MOL    H1728667   4.343   4.340   0.580 -4.6400 -1.7667 -0.2447
   76MOL    H1828668   4.232   4.163   0.490 -0.0757  1.1161  0.1113
   76MOL    H1928669   4.092   4.183   0.603 -1.1097 -2.3918 -0.6530
   76MOL    H2028670   4.196   4.053   0.767 -0.1504 -0.9431 -0.7826
   76MOL    C2128671   4.103   3.986   0.525  0.2112  0.0677  0.1250
   76MOL    C2228672   4.205   3.880   0.477  0.2745 -0.3882 -0.3557
   76MOL    C2328673   4.266   3.894   0.353 -0.1209 -0.3598 -0.6582
   76MOL    C2428674   4.356   3.804   0.307  0.3178  0.8643  0.1533
   76MOL    C2528675   4.394   3.692   0.383 -0.3918  0.0012  0.1969
   76MOL    C2628676   4.491   3.592   0.322 -0.1045  0.4538  0.8272
   76MOL    C2728677   4.343   3.685   0.516 -0.7078  0.2453  0.2506
   76MOL    C2828678   4.260   3.784   0.569 -0.1967 -0.1130  0.1967
   76MOL    C2928679   3.997   4.013   0.418  0.9316 -0.5243 -0.3321
   76MOL    H3028680   4.051   3.944   0.610  0.3993 -0.1330  0.1423
   76MOL    H3128681   4.238   3.969   0.280 -1.2219  0.1431  0.2614
   76MOL    H3228682   4.402   3.818   0.210 -0.7753  0.0316 -0.4956
   76MOL    H3328683   4.499   3.509   0.393  0.0588  1.9173  2.5547
   76MOL    H3428684   4.437   3.540   0.243  0.5213 -0.3543  0.9223
   76MOL    H3528685   4.590   3.626   0.290 -0.0480 -0.7196 -0.2908
   76MOL    H3628686   4.379   3.613   0.587  1.0744 -0.3102 -1.1583
   76MOL    H3728687   4.221   3.778   0.669 -0.5072  0.2157  0.0956
   76MOL    H3828688   3.979   3.918   0.368 -0.6355  0.6571 -2.1091
   76MOL    H3928689   4.041   4.090   0.355 -2.0393  0.6506 -1.0762
   76MOL    C4028690   3.864   4.080   0.463 -0.5430 -0.2997  0.1401
   76MOL    C4128691   3.790   4.023   0.580  0.5186  0.7220 -0.1563
   76MOL    C4228692   3.779   3.882   0.599  0.5997  0.3218  1.1782
   76MOL    C4328693   3.713   3.824   0.711 -0.3809  0.9186  0.3518
   76MOL    C4428694   3.682   3.904   0.821 -0.1382 -0.2585 -0.1348
   76MOL    C4528695   3.595   3.848   0.927 -0.1653 -0.3295  0.1762
   76MOL    C4628696   3.693   4.046   0.806  0.7419  0.1599  1.0192
   76MOL    C4728697   3.752   4.099   0.694  0.5753  0.2270  0.3104
   76MOL    C4828698   3.767   4.101   0.343 -0.3437  0.0199 -0.4386
   76MOL    H4928699   3.898   4.171   0.511 -0.4546 -0.5131  0.4845
   76MOL    H5028700   3.803   3.812   0.520 -0.0981 -2.1320  3.1087
   76MOL    H5128701   3.695   3.717   0.711  0.3378  0.7718 -2.2465
   76MOL    H5228702   3.633   3.839   1.029 -0.1148  1.2357  0.3038
   76MOL    H5328703   3.506   3.909   0.937 -0.1908 -0.7322  2.7490
   76MOL    H5428704   3.551   3.750   0.909 -0.4488 -0.2581  0.4762
   76MOL    H5528705   3.648   4.105   0.885 -0.1262  0.0068  0.6474
   76MOL    H5628706   3.753   4.207   0.687  0.9682  0.2435  0.5824
   76MOL    H5728707   3.678   4.162   0.364 -0.7134 -0.6634 -0.0234
   76MOL    H5828708   3.731   4.003   0.312 -1.3611  0.6374 -1.2518
   76MOL    C5928709   3.830   4.177   0.222 -0.5702 -0.9479  0.2787
   76MOL    C6028710   3.884   4.311   0.279  0.1034  0.7011 -0.5051
   76MOL    C6128711   3.796   4.405   0.345  0.1062  0.1878 -0.6677
   76MOL    C6228712   3.844   4.521   0.407 -0.1989 -0.2532  0.7005
   76MOL    C6328713   3.980   4.544   0.415 -0.1043  0.8446  0.0626
   76MOL    C6428714   4.051   4.663   0.481 -0.0327  0.3069 -0.5769
   76MOL    C6528715   4.071   4.454   0.354  1.2007  0.0134 -0.3770
   76MOL    C6628716   4.019   4.340   0.288 -0.2134 -0.1905 -0.6872
   76MOL    C6728717   3.731   4.205   0.101  0.0516  0.3273  0.0311
   76MOL    H6828718   3.915   4.119   0.185 -1.3255 -2.3158  0.6673
   76MOL    H6928719   3.690   4.391   0.357 -0.0053  2.3980  1.3601
   76MOL    H7028720   3.779   4.587   0.462  1.6055  0.8673  1.5771
   76MOL    H7128721   4.056   4.640   0.587 -0.6337 -0.9537 -0.8187
   76MOL    H7228722   4.149   4.674   0.435  0.2492  2.1259  0.4062
   76MOL    H7328723   4.014   4.761   0.450 -0.3039  0.4359  0.1418
   76MOL    H7428724   4.176   4.477   0.347  0.9532  0.9935 -1.0201
   76MOL    H7528725   4.088   4.276   0.236  0.3281 -0.7358  0.6682
   76MOL    H7628726   3.784   4.272   0.034  0.6611  0.4925  0.6781
   76MOL    H7728727   3.641   4.253   0.139  0.1052 -1.4115  2.4870
   76MOL    C7828728   3.695   4.077   0.024 -0.1499  0.4068 -0.1403
   76MOL    C7928729   3.812   3.981   8.073  0.7889 -0.0803  0.2842
   76MOL    C8028730   3.820   3.857   0.055  0.0002 -0.8538 -0.4788
   76MOL    C8128731   3.931   3.774   0.034 -0.2544  0.1873 -1.5508
   76MOL    C8228732   4.044   3.819   8.035  0.7893  0.4234  0.5729
   76MOL    C8328733   4.158   3.729   7.990 -0.0322  0.0761 -0.5154
   76MOL    C8428734   4.036   3.948   7.977  0.2621 -0.1676 -0.1313
   76MOL    C8528735   3.923   4.034   7.993  0.4441  0.4070  0.1023
   76MOL    C8628736   3.620   4.106   7.970 -0.9327  0.8333  0.3673
   76MOL    H8728737   3.630   4.020   0.091 -0.7263  2.3741  1.0462
   76MOL    H8828738   3.741   3.823   0.120 -2.5769  2.0911 -1.9358
   76MOL    H8928739   3.946   3.678   0.080  1.5982  1.4104  0.4738
   76MOL    H9028740   4.132   3.663   7.908  0.8855  0.4971 -1.1410
   76MOL    H9128741   4.244   3.787   7.957  0.2468  0.3986  0.7466
   76MOL    H9228742   4.190   3.676   0.000 -4.2626  3.5843  3.3061
   76MOL    H9328743   4.112   3.988   7.912  0.5860  1.1999  1.0525
   76MOL    H9428744   3.912   4.127   7.939 -0.7648 -0.7314 -1.6889
   76MOL    H9528745   3.616   4.014   7.911 -1.7137  2.0902 -1.6104
   76MOL    H9628746   3.672   4.178   7.907  1.4263 -1.1651 -0.0221
   76MOL    C9728747   3.468   4.143   7.991 -0.3744 -0.9328  0.2847
   76MOL    C9828748   3.393   4.056   0.014 -0.3741 -0.2890  0.4365
   76MOL    C9928749   3.348   4.111   0.136  0.1644 -0.1058  0.2306
   76MOL   C10028750   3.278   4.032   0.228 -0.3546  0.5544  0.6393
   76MOL   C10128751   3.258   3.890   0.201 -0.9083  0.2260 -0.1638
   76MOL   C10228752   3.177   3.809   0.303  0.0158  0.3697  0.2050
   76MOL   C10328753   3.306   3.835   0.081  0.3099 -1.0524  0.3079
   76MOL   C10428754   3.381   3.914   8.071  0.3040 -1.4238 -0.2673
   76MOL   C10528755   3.392   4.161   7.856  0.0052  0.0185  0.1459
   76MOL   H10628756   3.469   4.245   8.032  1.2249 -0.5728 -0.6026
   76MOL   H10728757   3.347   4.219   0.139  1.0065  0.0169 -2.3581
   76MOL   H10828758   3.252   4.081   0.320  0.7016 -1.8513  2.2634
   76MOL   H10928759   3.232   3.719   0.332  1.7565  0.9802 -1.1955
   76MOL   H11028760   3.158   3.863   0.396 -1.4081  1.4496 -0.6840
   76MOL   H11128761   3.085   3.776   0.255  0.7429  0.7811 -1.4943
   76MOL   H11228762   3.296   3.729   0.062 -0.1802 -1.3622  2.2457
   76MOL   H11328763   3.420   3.877   7.977  0.8108 -1.1095 -0.1831
   76MOL   H11428764   3.407   4.065   7.806  2.3648 -0.1764  1.1637
   76MOL   H11528765   3.451   4.235   7.802 -0.7967 -1.0874 -2.3158
   76MOL   C11628766   3.240   4.192   7.860  0.2973  0.2955  0.2121
   76MOL   C11728767   3.175   4.185   7.723 -0.4921 -0.4179  0.3750
   76MOL   C11828768   3.199   4.288   7.625 -0.1007  0.5314  0.2329
   76MOL   C11928769   3.130   4.282   7.503 -0.2196 -0.1988  0.4650
   76MOL   C12028770   3.047   4.179   7.468 -0.6090 -0.0214 -0.1238
   76MOL   C12128771   2.975   4.180   7.331 -0.0094 -0.2716  0.0437
   76MOL   C12228772   3.028   4.080   7.562  1.0694 -0.4503  0.4916
   76MOL   C12328773   3.086   4.080   7.688  0.0378  0.1886 -0.5210
   76MOL   C12428774   3.214   4.331   7.923 -0.4325 -0.2801  0.5051
   76MOL   H12528775   3.181   4.122   7.919 -0.4939 -0.4705 -1.4456
   76MOL   H12628776   3.260   4.371   7.657  0.4319 -0.1296  0.9519
   76MOL   H12728777   3.126   4.367   7.437 -1.6117 -0.9511 -0.4488
   76MOL   H12828778   2.906   4.263   7.316  2.2903  1.4874 -1.1639
   76MOL   H12928779   3.051   4.204   7.257 -0.4863 -0.2923 -0.4585
   76MOL   H13028780   2.927   4.087   7.301  0.0561 -0.4484  0.4828
   76MOL   H13128781   2.952   4.008   7.536  1.4682 -0.6531 -0.1225
   76MOL   H13228782   3.062   3.998   7.754  0.3724  2.3324  2.3754
   76MOL   H13328783   3.268   4.397   7.855 -0.3912 -1.5411 -0.7315
   76MOL   H13428784   3.260   4.345   8.020 -2.0267 -0.6983  1.3364
   76MOL   C13528785   3.064   4.381   7.922  0.4385  0.1573  0.3447
   76MOL   C13628786   3.054   4.521   7.852  0.1097  0.3653  0.7998
   76MOL   C13728787   3.005   4.529   7.720  0.1732  0.2276 -0.4161
   76MOL   C13828788   3.021   4.650   7.647  0.1936  1.7792  0.1507
   76MOL   C13928789   3.079   4.760   7.709 -0.7614  0.2465 -0.3282
   76MOL   C14028790   3.083   4.880   7.621 -0.1230  0.5356  0.0976
   76MOL   C14128791   3.129   4.749   7.840 -0.2315  0.2358 -1.0852
   76MOL   C14228792   3.104   4.632   7.917  0.7497 -0.1925  0.1266
   76MOL   C14328793   2.999   4.386   8.064  0.3354  0.2390 -0.1371
   76MOL   H14428794   3.011   4.312   7.857  0.2842  1.0071 -0.4518
   76MOL   H14528795   2.962   4.453   7.657  1.2188  1.0772 -2.1743
   76MOL   H14628796   2.980   4.649   7.547  2.8775  0.3943 -0.9886
   76MOL   H14728797   3.162   4.951   7.648  1.0410 -0.7417  0.1104
   76MOL   H14828798   3.119   4.856   7.521 -1.3566 -0.0219 -0.2177
   76MOL   H14928799   2.984   4.922   7.604  0.4449  0.1539 -4.9906
   76MOL   H15028800   3.174   4.838   7.883 -1.6532 -0.5855  2.2918
   76MOL   H15128801   3.133   4.640   8.021  1.6223  0.9751 -0.1976
   76MOL   H15228802   2.897   4.424   8.053  0.2827  0.4728  1.1051
   76MOL   H15328803   3.048   4.463   0.044 -0.9078  1.4649 -0.6576
   76MOL   C15428804   2.987   4.254   0.065 -0.4911  0.1215  0.1643
   76MOL   C15528805   2.933   4.138   8.058 -0.9595 -0.3030  0.7979
   76MOL   C15628806   2.985   4.016   0.002  0.0423 -0.0511 -0.0370
   76MOL   C15728807   2.937   3.910   8.004  0.6074  0.7088  0.5862
   76MOL   C15828808   2.848   3.919   7.898 -0.3747 -0.1851  0.6611
   76MOL   C15928809   2.801   3.805   7.808 -0.1790 -0.1084 -0.6790
   76MOL   C16028810   2.793   4.048   7.876  0.1009  0.2719  0.0636
   76MOL   C16128811   2.831   4.156   7.958  0.0070 -0.0939 -0.8077
   76MOL   C16228812   2.905   4.272   0.205  0.2945 -1.0327 -0.1947
   76MOL   H16328813   3.091   4.234   0.091 -0.4993  1.2212  1.0472
   76MOL   H16428814   3.070   4.005   0.068  1.7780  2.1013 -1.8177
   76MOL   H16528815   2.985   3.814   8.022  0.7157  0.4611 -0.9287
   76MOL   H16628816   2.863   3.802   7.718  1.6127 -1.3671  0.5365
   76MOL   H16728817   2.826   3.714   7.862  0.2397  0.5081  0.1867
   76MOL   H16828818   2.697   3.801   7.777 -0.5636 -2.7551  0.8116
   76MOL   H16928819   2.712   4.067   7.808  1.0290 -3.5169 -2.2547
   76MOL   H17028820   2.786   4.254   7.953 -0.6063 -0.2220  1.6562
   76MOL   H17128821   2.913   4.179   0.262 -1.2564 -0.5477  0.8333
   76MOL   H17228822   2.803   4.296   0.176  0.5446  0.0525 -0.1803
   76MOL   C17328823   2.950   4.379   0.301  0.7808 -0.3706  0.5475
   76MOL   C17428824   3.070   4.333   0.379 -0.2710 -0.9143  0.3011
   76MOL   C17528825   3.066   4.230   0.471 -0.1154 -0.1220 -0.2677
   76MOL   C17628826   3.180   4.188   0.547 -1.3070 -0.0265  0.3602
   76MOL   C17728827   3.296   4.258   0.522 -0.6247 -0.1266 -0.0143
   76MOL   C17828828   3.419   4.208   0.600  0.4558 -0.3250  0.2831
   76MOL   C17928829   3.305   4.362   0.430 -0.4442  0.9315  0.0594
   76MOL   C18028830   3.196   4.401   0.358 -0.5934 -0.2253 -0.2705
   76MOL   C18128831   2.828   4.423   0.393 -0.4090 -0.2351 -0.1214
   76MOL   H18228832   2.980   4.465   0.240 -1.6829 -0.8382 -1.3722
   76MOL   H18328833   2.970   4.183   0.487 -0.8318  0.9520 -1.3388
   76MOL   H18428834   3.179   4.108   0.620 -1.1110 -2.7966 -2.5832
   76MOL   H18528835   3.494   4.287   0.592  0.7772 -0.7352 -0.8877
   76MOL   H18628836   3.417   4.190   0.708  0.2715 -0.4965  0.2513
   76MOL   H18728837   3.449   4.107   0.572 -0.2082 -0.4999  0.2004
   76MOL   H18828838   3.397   4.413   0.406  0.4983 -1.0173 -0.5718
   76MOL   H18928839   3.211   4.483   0.290  2.5483 -0.7915 -0.3380
   76MOL   H19028840   2.866   4.463   0.487 -4.2861  3.4794  0.0169
   76MOL   H19128841   2.783   4.326   0.414 -3.9425  0.7260 -2.8759
   76MOL   C19228842   2.736   4.536   0.358  0.0036  0.2079  0.2897
   76MOL   C19328843   2.810   4.664   0.330  0.1435 -0.1153  0.6065
   76MOL   C19428844   2.855   4.752   0.439 -0.8735 -0.3984 -0.5074
   76MOL   C19528845   2.935   4.861   0.402 -0.1808  0.5563  0.4480
   76MOL   C19628846   2.970   4.885   0.268 -0.2679  0.4790  0.6100
   76MOL   C19728847   3.050   5.012   0.243 -0.2433  0.2100  0.8151
   76MOL   C19828848   2.930   4.797   0.163 -0.0740  0.0150  0.4156
   76MOL   C19928849   2.845   4.689   0.193  0.5987  0.1583  0.2808
   76MOL   C20028850   2.621   4.546   0.465  0.7965  0.6512  0.0894
   76MOL   H20128851   2.693   4.505   0.262 -1.5805 -2.1016  1.7028
   76MOL   H20228852   2.822   4.741   0.541  0.9409 -1.4516 -0.0128
   76MOL   H20328853   2.967   4.937   0.472  2.6452 -0.0884 -0.1063
   76MOL   H20428854   3.001   5.095   0.193 -0.7323 -0.2821  0.4737
   76MOL   H20528855   3.097   5.051   0.333  0.3229 -1.1923  1.1429
   76MOL   H20628856   3.124   5.001   0.164  0.0624  0.7171  1.0264
   76MOL   H20728857   2.957   4.809   0.060  0.7859 -1.7715  0.4217
   76MOL   H20828858   2.823   4.623   0.111  1.5307  1.1418 -0.7795
   76MOL   H20928859   2.575   4.644   0.458  2.2110  1.4327  1.4484
   76MOL   H21028860   2.675   4.550   0.560 -1.7991  0.6861  1.6156
   76MOL   C21128861   2.526   4.434   0.476  0.0246  0.5649 -0.3381
   76MOL   C21228862   2.441   4.416   0.350 -0.4437 -0.1050  0.0848
   76MOL   C21328863   2.468   4.310   0.263 -0.2284 -0.7053 -0.5419
   76MOL   C21428864   2.382   4.291   0.151 -0.3019  0.0922 -0.2805
   76MOL   C21528865   2.277   4.381   0.128  0.2142  0.6577 -0.2926
   76MOL   C21628866   2.187   4.365   0.008  0.2923  0.4113 -0.4213
   76MOL   C21728867   2.251   4.484   0.218  0.0132 -0.4989 -0.3572
   76MOL   C21828868   2.338   4.509   0.325 -0.9341 -0.4533  0.7472
   76MOL   C21928869   2.439   4.433   0.602  0.3191 -0.1108 -0.0194
   76MOL   H22028870   2.588   4.344   0.481  1.6098  1.7127  1.7931
   76MOL   H22128871   2.545   4.236   0.282  2.6677  2.0431 -1.1621
   76MOL   H22228872   2.402   4.217   0.075  0.8463  0.1655 -0.0633
   76MOL   H22328873   2.246   4.394   8.001  1.6155  0.1206  0.3718
   76MOL   H22428874   2.160   4.260   0.009  0.1414  0.4528 -0.0697
   76MOL   H22528875   2.100   4.431   0.010 -0.4625 -0.5304 -1.2672
   76MOL   H22628876   2.165   4.548   0.208  1.3423  1.6489  1.5392
   76MOL   H22728877   2.330   4.600   0.383  0.5465 -0.1984  0.5780
   76MOL   H22828878   2.369   4.516   0.610 -0.2344 -0.7625  2.3789
   76MOL   H22928879   2.499   4.463   0.688 -0.2436  1.3386 -0.1305
   76MOL   C23028880   2.383   4.295   0.643 -0.3463  0.1669 -0.5084
   76MOL   C23128881   2.489   4.235   0.735  0.4131  0.2501  0.0894
   76MOL   C23228882   2.488   4.259   0.878 -0.1467  0.0159  0.3143
   76MOL   C23328883   2.587   4.197   0.956 -0.5141  0.5552 -0.1622
   76MOL   C23428884   2.701   4.128   0.897 -0.3004  0.6711  0.9457
   76MOL   C23528885   2.819   4.090   0.985 -0.0209  0.4237  0.2755
   76MOL   C23628886   2.701   4.109   0.758  0.1694 -0.1840  0.5027
   76MOL   C23728887   2.599   4.163   0.680  0.3694  0.2057  0.5237
   76MOL   C23828888   2.341   4.194   0.536 -0.9562 -0.2048  0.0869
   76MOL   H23928889   2.297   4.311   0.707  0.9498  2.1964  0.7951
   76MOL   H24028890   2.406   4.309   0.927  0.2998 -0.5865  1.6971
   76MOL   H24128891   2.572   4.216   1.061 -0.5803  2.9596 -0.5718
   76MOL   H24228892   2.882   4.021   0.929 -2.0580 -0.9997 -0.2856
   76MOL   H24328893   2.871   4.182   1.011  0.5644 -0.0447  0.7950
   76MOL   H24428894   2.776   4.038   1.071 -0.1686  1.1917  0.6700
   76MOL   H24528895   2.798   4.078   0.721 -0.5996  0.3373 -1.9931
   76MOL   H24628896   2.618   4.161   0.574 -0.6095 -0.0712  0.3572
   76MOL   H24728897   2.419   4.189   0.460 -0.5457 -0.4399  0.5221
   76MOL   H24828898   2.261   4.245   0.482  0.6133  0.8780 -1.2866
   76MOL   C24928899   2.304   4.048   0.586  0.4765 -0.1898  0.0234
   76MOL   C25028900   2.312   3.946   0.470  0.0083 -0.3454 -0.6372
   76MOL   C25128901   2.397   3.830   0.491 -0.5993  0.2849  0.4110
   76MOL   C25228902   2.393   3.729   0.395 -0.2051 -0.0375  0.1488
   76MOL   C25328903   2.322   3.744   0.274  0.6926 -0.6003 -0.2647
   76MOL   C25428904   2.336   3.639   0.176  0.3263  0.4289  0.0211
   76MOL   C25528905   2.253   3.859   0.247  0.5939  0.2894  0.1790
   76MOL   C25628906   2.240   3.955   0.349 -0.0128  0.1173 -0.4674
   76MOL   C25728907   2.154   4.052   0.636  0.1948 -0.3047  0.4784
   76MOL   H25828908   2.378   4.021   0.661 -0.0602  0.3468  0.7445
   76MOL   H25928909   2.455   3.823   0.582  0.4752  2.5585 -0.0562
   76MOL   H26028910   2.444   3.635   0.409 -0.2625 -0.0518  0.2636
   76MOL   H26128911   2.321   3.671   0.073  1.0279  3.5220  0.8170
   76MOL   H26228912   2.433   3.591   0.187  0.7335  1.2215 -0.0969
   76MOL   H26328913   2.268   3.555   0.192 -0.4819  0.9766 -0.4589
   76MOL   H26428914   2.223   3.876   0.145  0.9276 -2.7894 -0.4805
   76MOL   H26528915   2.184   4.046   0.331  0.0623 -0.1653 -2.2376
   76MOL   H26628916   2.090   4.050   0.548  0.1081  1.7851  0.4869
   76MOL   H26728917   2.128   4.146   0.684 -3.3405 -1.2052  0.4915
   76MOL   C26828918   2.113   3.938   0.723 -0.4137 -0.1836  0.5679
   76MOL   C26928919   1.964   3.908   0.703 -0.1156  0.5952 -0.0557
   76MOL   C27028920   1.918   3.841   0.580  0.0557  0.1908  0.6146
   76MOL   C27128921   1.790   3.791   0.573 -0.4542  0.0097  0.8536
   76MOL   C27228922   1.701   3.819   0.675  0.1238 -0.0293 -0.0491
   76MOL   C27328923   1.559   3.775   0.659  0.5219 -0.3562  0.5441
   76MOL   C27428924   1.740   3.885   0.793 -0.8897 -0.1780  0.4247
   76MOL   C27528925   1.870   3.927   0.804 -0.4941 -0.0597 -0.0224
   76MOL   C27628926   2.162   3.966   0.867 -0.5039  0.5071 -0.1144
   76MOL   H27728927   2.153   3.844   0.685 -0.9841 -1.1560  2.3362
   76MOL   H27828928   1.988   3.825   0.499 -1.1307  3.2217 -1.0960
   76MOL   H27928929   1.758   3.743   0.482  0.6151  1.3279 -0.2283
   76MOL   H28028930   1.505   3.736   0.745 -1.8100  0.9840 -0.2278
   76MOL   H28128931   1.493   3.856   0.627 -1.1394 -0.2627  4.0099
   76MOL   H28228932   1.558   3.704   0.576 -1.2307  1.1451 -0.7879
   76MOL   H28328933   1.668   3.897   0.872 -2.9913 -0.3451 -1.4013
   76MOL   H28428934   1.891   3.983   0.894 -3.3850  0.1294  0.5756
   76MOL   H28528935   2.133   4.066   0.901  0.6109  0.6901  0.3340
   76MOL   H28628936   2.267   3.993   0.877 -0.0238 -2.0045  2.0870
   76MOL   C28728937   2.140   3.851   0.976 -0.0846 -0.3062 -0.0510
   76MOL   C28828938   2.219   3.882   1.101  0.3027 -0.1518  1.1252
   76MOL   C28928939   2.361   3.898   1.101 -0.3141 -0.9734 -0.1755
   76MOL   C29028940   2.425   3.933   1.220  0.4222 -0.2403 -0.1870
   76MOL   C29128941   2.349   3.961   1.333  0.9360 -0.4187  0.3525
   76MOL   C29228942   2.423   3.978   1.464  0.2362  0.0378 -0.7311
   76MOL   C29328943   2.206   3.961   1.332 -0.8506  0.1032 -0.1079
   76MOL   C29428944   2.140   3.913   1.216  0.2851  0.2472 -0.2677
   76MOL   C29528945   2.174   3.708   0.931  0.4820 -0.7948  0.9517
   76MOL   H29628946   2.034   3.854   0.998 -0.1063  2.5195 -0.3986
   76MOL   H29728947   2.416   3.883   1.009 -2.7375  0.8259 -1.9879
   76MOL   H29828948   2.532   3.943   1.229  0.4950 -0.6948 -0.5278
   76MOL   H29928949   2.497   3.897   1.464  0.5694  0.3087 -2.6211
   76MOL   H30028950   2.468   4.077   1.475  0.1272 -0.0075  0.1329
   76MOL   H30128951   2.352   3.949   1.541 -0.5784 -1.3041 -1.9609
   76MOL   H30228952   2.155   3.989   1.423  0.9262  0.9569  0.6490
   76MOL   H30328953   2.032   3.907   1.222 -0.0744  0.6651 -4.5849
   76MOL   H30428954   2.252   3.676   1.000  1.2934  0.2578  0.5401
   76MOL   H30528955   2.222   3.703   0.833 -0.3826 -0.6491  0.5209
   76MOL   C30628956   2.068   3.592   0.938 -0.7401  0.0866 -0.3633
   76MOL   C30728957   1.986   3.603   1.063  0.0571 -0.0866 -0.2823
   76MOL   C30828958   1.848   3.622   1.068 -0.3522  0.1979  0.4032
   76MOL   C30928959   1.775   3.627   1.187  0.1298 -0.0156 -0.0020
   76MOL   C31028960   1.845   3.614   1.307  0.1314 -0.3234 -0.4383
   76MOL   C31128961   1.773   3.612   1.442  0.4615  0.6119 -0.5161
   76MOL   C31228962   1.981   3.583   1.306  0.6841 -0.3307 -0.5124
   76MOL   C31328963   2.055   3.579   1.189  0.4193  0.2273 -0.2461
   76MOL   C31428964   2.123   3.444   0.928 -0.3949 -0.0576  0.0690
   76MOL   H31528965   1.995   3.601   0.858  1.0728 -0.3805 -2.1112
   76MOL   H31628966   1.801   3.637   0.971  0.2213 -1.6844 -0.1801
   76MOL   H31728967   1.668   3.636   1.186  0.1009 -0.1680  1.0784
   76MOL   H31828968   1.681   3.670   1.435 -0.7842 -1.5005 -2.1653
   76MOL   H31928969   1.732   3.511   1.445 -2.5714  1.7946 -0.2360
   76MOL   H32028970   1.836   3.637   1.527 -0.6148  0.6109  0.3051
   76MOL   H32128971   2.042   3.582   1.396  0.6673  4.2821 -0.3054
   76MOL   H32228972   2.162   3.563   1.194  0.6511  0.9903 -2.5064
   76MOL   H32328973   2.043   3.371   0.940  0.7155 -1.2380  0.3826
   76MOL   H32428974   2.200   3.425   1.002 -0.1254 -1.6257 -0.5796
   76MOL   C32528975   2.196   3.414   0.794 -0.1941  0.9525  0.0371
   76MOL   C32628976   2.100   3.415   0.671  0.4065 -0.2129  0.4271
   76MOL   C32728977   2.125   3.506   0.570 -0.1135 -0.2331  0.0578
   76MOL   C32828978   2.036   3.517   0.463 -0.1606 -0.9558 -0.1732
   76MOL   C32928979   1.914   3.447   0.465  0.0525 -0.1146 -0.8565
   76MOL   C33028980   1.813   3.461   0.354 -0.6865 -0.4004  0.0796
   76MOL   C33128981   1.891   3.358   0.564  0.0989  0.6787 -0.2288
   76MOL   C33228982   1.986   3.330   0.671  0.4767  0.5991 -0.5554
   76MOL   C33328983   2.264   3.274   0.805 -0.8950 -0.3190 -0.3475
   76MOL   H33428984   2.268   3.495   0.786  1.2490 -0.4443 -1.4653
   76MOL   H33528985   2.201   3.581   0.581 -0.2055 -0.0364 -0.6073
   76MOL   H33628986   2.058   3.593   0.389 -1.4825 -0.4658 -0.0724
   76MOL   H33728987   1.835   3.371   0.297  1.4279 -0.6936  1.2897
   76MOL   H33828988   1.706   3.473   0.370 -1.2883 -3.8637 -1.0470
   76MOL   H33928989   1.850   3.539   0.287 -0.1532  0.7443  1.6674
   76MOL   H34028990   1.805   3.294   0.580 -1.2235  2.3891 -0.4588
   76MOL   H34128991   1.977   3.264   0.755 -1.7235  0.1007 -1.1401
   76MOL   H34228992   2.318   3.267   0.710 -0.5604  0.7753 -0.2466
   76MOL   H34328993   2.190   3.195   0.819 -0.3612 -0.8645 -0.5233
   76MOL   C34428994   2.388   3.252   0.904 -1.1229 -0.2422 -0.2197
   76MOL   C34528995   2.483   3.376   0.899 -0.5854  0.2351  1.0448
   76MOL   C34628996   2.550   3.412   0.781 -0.1867  0.0640 -0.3906
   76MOL   C34728997   2.628   3.530   0.758  0.0049 -0.1301 -0.0333
   76MOL   C34828998   2.644   3.613   0.871 -0.3822  0.2797 -0.1091
   76MOL   C34928999   2.729   3.735   0.866 -0.4637  0.0803 -0.4956
   76MOL   C35029000   2.583   3.574   0.992  0.1115 -0.2654 -0.1648
   76MOL   C35129001   2.494   3.463   1.004 -0.2354 -0.2551  0.2442
   76MOL   C35229002   2.464   3.115   0.892 -0.1515 -0.2189 -0.1574
   76MOL   H35329003   2.348   3.256   1.006 -0.4540 -1.8150  0.1201
   76MOL   H35429004   2.531   3.344   0.699 -0.9883  0.3468 -0.4373
   76MOL   H35529005   2.658   3.559   0.658  1.6435  0.4009  0.6050
   76MOL   H35629006   2.660   3.819   0.869 -0.9159 -0.2393 -1.6617
   76MOL   H35729007   2.790   3.736   0.957 -0.2922 -0.8064 -0.5965
   76MOL   H35829008   2.785   3.739   0.772 -1.1966 -0.0832 -0.9423
   76MOL   H35929009   2.591   3.638   1.079  3.0758 -0.9848  0.1557
   76MOL   H36029010   2.438   3.449   1.096 -0.5950 -1.1891 -0.1219
   76MOL   H36129011   2.524   3.120   0.802  2.4456 -0.7401  1.4865
   76MOL   H36229012   2.388   3.038   0.874 -0.5566 -0.6123  2.9769
   76MOL   C36329013   2.567   3.081   1.007  0.7015  0.3336  0.0745
   76MOL   C36429014   2.682   2.990   0.973  0.8023 -0.2415  0.3327
   76MOL   C36529015   2.656   2.860   0.927 -0.0770  0.4825 -0.1539
   76MOL   C36629016   2.755   2.769   0.904  0.1872 -0.5301  0.2602
   76MOL   C36729017   2.889   2.797   0.943  0.6967 -0.1980  0.4952
   76MOL   C36829018   3.001   2.696   0.907  0.2504 -0.0397  0.3003
   76MOL   C36929019   2.921   2.926   0.982 -0.3110  0.4482 -0.0997
   76MOL   C37029020   2.820   3.022   0.993 -0.3872 -0.5186 -0.1031
   76MOL   C37129021   2.487   3.031   1.127  0.1008 -1.3485 -0.5639
   76MOL   H37229022   2.617   3.174   1.034  0.6824 -0.1920  2.0002
   76MOL   H37329023   2.556   2.831   0.900  0.2271  0.5173 -1.3710
   76MOL   H37429024   2.733   2.669   0.869 -2.2170 -0.1073  0.5077
   76MOL   H37529025   3.036   2.734   0.812  1.3219 -0.1961  0.6259
   76MOL   H37629026   3.081   2.703   0.981  0.2052  0.6593  0.2927
   76MOL   H37729027   2.969   2.593   0.895 -0.9130  0.3121  0.3202
   76MOL   H37829028   3.025   2.950   0.996 -0.9354  2.2687  1.6002
   76MOL   H37929029   2.849   3.114   1.041  0.3979 -1.4063  1.1398
   76MOL   H38029030   2.555   3.017   1.211 -1.3999  0.4316  1.0016
   76MOL   H38129031   2.439   2.938   1.096  0.6293 -1.1886 -1.8492
   76MOL   H38229032   2.415   3.105   1.162  0.3412 -2.5644  2.7084
   77MOL     C129033   6.016   3.109   3.415  0.1195  0.2137 -0.1689
   77MOL     C229034   5.965   3.136   3.274  0.6989 -1.1305  0.4874
   77MOL     C329035   5.834   3.160   3.255 -0.2174 -0.0394  0.0655
   77MOL     C429036   5.787   3.192   3.121 -0.1713 -0.3248 -0.2981
   77MOL     C529037   5.882   3.201   3.015  0.3491 -0.2991 -0.1865
   77MOL     C629038   5.832   3.252   2.882 -0.2210  0.0839 -0.4911
   77MOL     C729039   6.016   3.157   3.037 -0.1604  0.2563  0.6855
   77MOL     C829040   6.052   3.126   3.164  0.0678  0.3405 -0.3594
   77MOL     C929041   6.105   2.981   3.423  0.3105  0.0351  0.4671
   77MOL    H1029042   6.076   3.197   3.436 -1.5920  1.5479 -0.7275
   77MOL    H1129043   5.770   3.154   3.342  0.7085  0.8048  0.8208
   77MOL    H1229044   5.686   3.224   3.102 -1.7008 -3.5163  1.9929
   77MOL    H1329045   5.765   3.335   2.904 -1.9218 -1.4907  0.4072
   77MOL    H1429046   5.906   3.275   2.805  1.6978  0.4147  1.4185
   77MOL    H1529047   5.769   3.174   2.839 -1.8045 -0.7898  3.2588
   77MOL    H1629048   6.083   3.148   2.953  2.0510  1.0179  2.3135
   77MOL    H1729049   6.157   3.108   3.183  0.8042  1.7295 -2.8975
   77MOL    H1829050   6.186   3.000   3.353 -0.2952  2.5467  0.3907
   77MOL    H1929051   6.049   2.895   3.387  0.3341  0.3612 -0.3426
   77MOL    H2029052   5.929   3.108   3.480 -0.3481 -0.7020 -0.7949
   77MOL    C2129053   6.161   2.954   3.564 -0.0297 -0.8687  0.1263
   77MOL    C2229054   6.194   3.081   3.636  0.1041 -0.0861 -0.0647
   77MOL    C2329055   6.286   3.168   3.573 -0.6242 -0.1105 -0.1857
   77MOL    C2429056   6.326   3.281   3.649 -0.1883 -0.3148  0.6466
   77MOL    C2529057   6.270   3.313   3.773  0.1088 -0.4219  0.1145
   77MOL    C2629058   6.316   3.433   3.844  0.5776  0.0901  0.4867
   77MOL    C2729059   6.176   3.230   3.832 -0.0399  0.3929 -0.0695
   77MOL    C2829060   6.138   3.113   3.761  0.5363 -0.5929 -0.3471
   77MOL    C2929061   6.262   2.840   3.563 -0.4755  0.4068  0.5101
   77MOL    H3029062   6.077   2.906   3.615  0.1355 -1.1861  0.0998
   77MOL    H3129063   6.323   3.151   3.473 -1.1274  0.3389 -0.4494
   77MOL    H3229064   6.412   3.337   3.616  0.3150 -0.8549  1.0194
   77MOL    H3329065   6.246   3.458   3.923  0.3197  1.4470 -0.1480
   77MOL    H3429066   6.409   3.419   3.898  0.8772  0.8726  0.1891
   77MOL    H3529067   6.334   3.522   3.784  1.0696  1.3571  2.4554
   77MOL    H3629068   6.144   3.255   3.931 -0.6489  2.4843 -0.7733
   77MOL    H3729069   6.060   3.057   3.810 -0.5643  0.4190 -0.9078
   77MOL    H3829070   6.348   2.880   3.509 -0.5312  2.1936  1.6935
   77MOL    H3929071   6.227   2.761   3.497  1.6188 -0.5704  0.5284
   77MOL    C4029072   6.317   2.786   3.697 -0.0561  0.3258  0.5722
   77MOL    C4129073   6.449   2.705   3.680  0.2101 -0.0828 -0.1269
   77MOL    C4229074   6.541   2.704   3.786 -0.1259 -0.6018 -0.2245
   77MOL    C4329075   6.655   2.634   3.783 -0.2334 -0.3921 -0.4356
   77MOL    C4429076   6.676   2.555   3.670  0.1255  1.1647 -0.4293
   77MOL    C4529077   6.804   2.465   3.663 -0.0745 -0.0051  0.4073
   77MOL    C4629078   6.594   2.556   3.559  0.4409 -1.1591  0.3789
   77MOL    C4729079   6.472   2.629   3.567 -0.5845  0.6415  0.3990
   77MOL    C4829080   6.218   2.719   3.791  0.0131 -0.1420 -1.0709
   77MOL    H4929081   6.346   2.876   3.752 -0.0582  1.4359 -1.2018
   77MOL    H5029082   6.517   2.762   3.874  2.5517 -0.0315  0.1951
   77MOL    H5129083   6.738   2.643   3.852  1.2860  0.0069 -2.2665
   77MOL    H5229084   6.786   2.362   3.694  0.9807 -0.0550  0.8695
   77MOL    H5329085   6.839   2.476   3.561  0.5115  1.8101  0.7947
   77MOL    H5429086   6.871   2.518   3.730  0.6235  0.2272 -0.4657
   77MOL    H5529087   6.622   2.487   3.481  1.2814 -0.8330  0.3895
   77MOL    H5629088   6.400   2.626   3.488  1.4990  0.5367 -1.5432
   77MOL    H5729089   6.136   2.787   3.815  0.9406 -0.2509  2.6734
   77MOL    H5829090   6.277   2.708   3.882 -1.8596 -0.0643  0.1951
   77MOL    C5929091   6.170   2.577   3.751 -0.7561 -0.5364  0.2042
   77MOL    C6029092   6.067   2.594   3.642 -0.6059  0.2423 -0.5286
   77MOL    C6129093   6.085   2.526   3.521 -0.2413 -0.0440  0.7067
   77MOL    C6229094   5.989   2.539   3.419 -0.0826 -0.0122 -0.4518
   77MOL    C6329095   5.874   2.612   3.433 -0.0535 -0.1582 -0.0654
   77MOL    C6429096   5.777   2.625   3.308  0.5719  0.3355 -0.4606
   77MOL    C6529097   5.846   2.678   3.554 -0.0642 -0.3137  0.2538
   77MOL    C6629098   5.939   2.665   3.656 -0.4531  0.3478  0.4940
   77MOL    C6729099   6.101   2.507   3.868 -0.3592  0.0647  0.2550
   77MOL    H6829100   6.250   2.519   3.705 -1.9309 -1.7458 -0.3367
   77MOL    H6929101   6.177   2.476   3.493  0.4167  1.8718 -0.6627
   77MOL    H7029102   5.998   2.478   3.330 -2.3876  1.5137 -1.7842
   77MOL    H7129103   5.726   2.530   3.294  0.8294  0.7519 -4.5877
   77MOL    H7229104   5.701   2.702   3.324  0.6099  0.1372  0.7587
   77MOL    H7329105   5.840   2.669   3.231  0.7796  2.0205  0.6276
   77MOL    H7429106   5.758   2.741   3.552 -0.2575 -0.6214 -1.0115
   77MOL    H7529107   5.916   2.717   3.747 -0.2103  0.2158  0.6327
   77MOL    H7629108   6.023   2.436   3.841 -0.9766  0.8647 -0.0844
   77MOL    H7729109   6.045   2.579   3.926  1.3139 -0.5026  2.6382
   77MOL    C7829110   6.199   2.438   3.959  0.5031 -0.0435 -0.5128
   77MOL    C7929111   6.256   2.324   3.889 -0.4843 -0.4415  0.0629
   77MOL    C8029112   6.182   2.204   3.880 -0.8632  0.3232 -0.1871
   77MOL    C8129113   6.232   2.095   3.810  0.3210 -0.2597 -0.4097
   77MOL    C8229114   6.360   2.106   3.750 -0.2106 -0.1268  0.2231
   77MOL    C8329115   6.428   1.985   3.683  0.1454  0.1768  0.0481
   77MOL    C8429116   6.434   2.224   3.758 -0.4227  0.2870  0.6792
   77MOL    C8529117   6.384   2.333   3.829  0.8081  0.7837 -0.2585
   77MOL    C8629118   6.126   2.414   4.094  0.1490 -0.3431 -0.3778
   77MOL    H8729119   6.288   2.496   3.980  1.7756 -1.8936 -0.6602
   77MOL    H8829120   6.085   2.189   3.925 -0.3262 -2.6235  0.1069
   77MOL    H8929121   6.192   1.996   3.824  1.3227 -0.5061  0.8079
   77MOL    H9029122   6.363   1.898   3.686  0.9017 -0.3727  0.5526
   77MOL    H9129123   6.452   2.022   3.584 -0.5343  0.3301 -0.0628
   77MOL    H9229124   6.517   1.955   3.739  1.1727  0.8450 -1.2030
   77MOL    H9329125   6.528   2.233   3.706 -2.0573  2.6847 -2.0184
   77MOL    H9429126   6.456   2.413   3.839 -0.1921  1.6437  0.1937
   77MOL    H9529127   6.029   2.367   4.080 -0.3068  0.3930  0.3143
   77MOL    H9629128   6.110   2.510   4.142 -0.3978 -1.2498  1.2828
   77MOL    C9729129   6.208   2.327   4.186  0.1177  0.7320  0.0657
   77MOL    C9829130   6.121   2.275   4.302 -0.0414  1.1781  0.7190
   77MOL    C9929131   6.103   2.137   4.316 -0.0553  0.0227 -0.9534
   77MOL   C10029132   6.020   2.084   4.419 -0.8313  0.7031 -0.2826
   77MOL   C10129133   5.958   2.173   4.517  0.2741 -0.2223  0.2544
   77MOL   C10229134   5.870   2.116   4.625 -0.3600 -0.2031 -0.5926
   77MOL   C10329135   5.970   2.309   4.497 -0.2847  0.1087 -0.3208
   77MOL   C10429136   6.056   2.362   4.391 -0.2137  0.1226 -0.9660
   77MOL   C10529137   6.348   2.378   4.236 -0.0515 -0.1721 -0.5923
   77MOL   H10629138   6.232   2.241   4.124 -0.7408  0.6864 -0.2020
   77MOL   H10729139   6.149   2.064   4.251 -0.8225  0.0484 -1.5395
   77MOL   H10829140   6.029   1.977   4.429 -1.8643  0.6734  0.3508
   77MOL   H10929141   5.807   2.201   4.652 -0.3384  0.1465 -1.6090
   77MOL   H11029142   5.799   2.042   4.589 -0.4240  0.1471 -1.1842
   77MOL   H11129143   5.927   2.068   4.704  1.3391  0.7869 -1.2010
   77MOL   H11229144   5.931   2.376   4.571 -0.7970 -1.7617  1.1445
   77MOL   H11329145   6.069   2.469   4.380 -0.6325  0.1636 -1.0887
   77MOL   H11429146   6.336   2.456   4.311  1.7953 -0.0034 -0.4734
   77MOL   H11529147   6.397   2.431   4.155 -1.0399 -0.4131 -1.3636
   77MOL   C11629148   6.458   2.276   4.283 -0.2544 -0.4168 -0.3357
   77MOL   C11729149   6.572   2.352   4.348 -0.1758 -0.1431  0.0598
   77MOL   C11829150   6.700   2.354   4.291  0.0783  0.2075  0.4123
   77MOL   C11929151   6.806   2.424   4.349  0.7039 -0.4888 -0.1421
   77MOL   C12029152   6.790   2.489   4.475 -1.0418 -0.0940 -0.1371
   77MOL   C12129153   6.916   2.554   4.541  1.0511 -0.3473 -0.9326
   77MOL   C12229154   6.663   2.491   4.533 -0.6325 -0.0404 -0.5436
   77MOL   C12329155   6.558   2.425   4.467  0.5725 -0.4214 -0.5451
   77MOL   C12429156   6.492   2.179   4.165 -0.3330  0.2193  0.2931
   77MOL   H12529157   6.412   2.220   4.365  0.0830 -0.2196 -0.0106
   77MOL   H12629158   6.709   2.309   4.193  0.3209 -2.2824  1.5452
   77MOL   H12729159   6.900   2.435   4.299  1.0648  0.6418  0.7336
   77MOL   H12829160   6.889   2.631   4.612  0.0778  0.4585 -2.1634
   77MOL   H12929161   6.987   2.486   4.589  1.2140 -0.5187 -1.4065
   77MOL   H13029162   6.976   2.614   4.472  1.0131 -0.1592 -0.8008
   77MOL   H13129163   6.660   2.533   4.632 -1.6658  0.6190 -0.8573
   77MOL   H13229164   6.459   2.445   4.505 -0.5284 -2.5057 -2.2562
   77MOL   H13329165   6.542   2.247   4.096 -0.9853 -1.3916 -1.7849
   77MOL   H13429166   6.402   2.138   4.120 -0.6476  1.3022 -0.0840
   77MOL   C13529167   6.588   2.065   4.198 -0.5318  0.3733 -0.2103
   77MOL   C13629168   6.699   2.060   4.094  0.3581 -0.4313  0.9736
   77MOL   C13729169   6.672   2.037   3.960  0.0819  0.5349 -0.4398
   77MOL   C13829170   6.766   2.049   3.859 -0.2417  0.2421 -0.0754
   77MOL   C13929171   6.901   2.077   3.894 -0.7568  0.0031  0.4687
   77MOL   C14029172   7.006   2.100   3.778 -0.1447  0.8260 -0.0636
   77MOL   C14129173   6.934   2.115   4.031  0.2723  0.1733  0.4507
   77MOL   C14229174   6.831   2.105   4.131 -0.4552  0.1983  0.2494
   77MOL   C14329175   6.520   1.930   4.225 -0.2979  0.0273 -0.2436
   77MOL   H14429176   6.639   2.095   4.290 -2.0426 -0.1128  0.8093
   77MOL   H14529177   6.576   1.993   3.936 -0.5158  1.3788  0.3613
   77MOL   H14629178   6.723   2.038   3.761 -0.0677 -2.2783  0.1040
   77MOL   H14729179   6.980   2.192   3.726  0.0574  2.6376  2.9174
   77MOL   H14829180   7.100   2.117   3.832  0.0761  3.5952 -1.2128
   77MOL   H14929181   7.010   2.017   3.708  1.6431 -0.0377  1.0336
   77MOL   H15029182   7.030   2.158   4.053  0.6382 -0.3328 -0.1711
   77MOL   H15129183   6.852   2.131   4.234  0.1949  0.8969 -0.0472
   77MOL   H15229184   6.459   1.908   4.137  1.1141  0.0643 -1.2550
   77MOL   H15329185   6.449   1.937   4.307 -0.4389 -3.6790  0.0458
   77MOL   C15429186   6.628   1.825   4.263  0.4498 -1.0128 -1.0984
   77MOL   C15529187   6.563   1.687   4.263 -0.7120  0.4187 -0.7327
   77MOL   C15629188   6.437   1.666   4.326  0.1979 -0.8183  0.3987
   77MOL   C15729189   6.382   1.535   4.309 -0.2085  0.2421 -0.5722
   77MOL   C15829190   6.456   1.424   4.259 -0.2863  0.2715 -0.2888
   77MOL   C15929191   6.391   1.293   4.234 -0.9854 -0.7625  0.0826
   77MOL   C16029192   6.585   1.445   4.204  0.2587 -0.5350  0.0284
   77MOL   C16129193   6.635   1.578   4.215 -0.0458 -0.0034 -0.6362
   77MOL   C16229194   6.723   1.848   4.383 -0.1608  0.2511  0.1068
   77MOL   H16329195   6.692   1.815   4.176  1.9171 -1.0824 -0.0206
   77MOL   H16429196   6.375   1.747   4.361 -2.2658 -2.0507 -1.0292
   77MOL   H16529197   6.284   1.513   4.347 -0.3826  1.7050 -0.1438
   77MOL   H16629198   6.300   1.294   4.173 -0.4510 -2.6565 -0.8095
   77MOL   H16729199   6.455   1.225   4.178  0.3051 -0.8666  1.6693
   77MOL   H16829200   6.378   1.246   4.332  2.0212  0.0376  0.9056
   77MOL   H16929201   6.640   1.367   4.155 -0.8332 -1.7704  0.7290
   77MOL   H17029202   6.734   1.594   4.174  1.1763  1.7031  2.8415
   77MOL   H17129203   6.761   1.951   4.388  1.1812 -0.2380  0.2328
   77MOL   H17229204   6.808   1.785   4.358 -1.6492 -1.3325 -1.0020
   77MOL   C17329205   6.676   1.801   4.528 -0.5030 -0.6558 -0.4879
   77MOL   C17429206   6.570   1.896   4.575  0.0483  0.3602 -0.1682
   77MOL   C17529207   6.593   2.041   4.581  0.5711  0.5860  0.0690
   77MOL   C17629208   6.493   2.124   4.632  0.9769  0.0524 -0.5903
   77MOL   C17729209   6.365   2.074   4.667 -0.3637  0.8971  0.1038
   77MOL   C17829210   6.253   2.168   4.716  0.1670 -0.6484  0.4870
   77MOL   C17929211   6.339   1.932   4.654 -0.0733  0.1330  0.6830
   77MOL   C18029212   6.441   1.846   4.604  0.3277  0.0834 -0.0067
   77MOL   C18129213   6.789   1.802   4.635  0.9615 -0.1866  0.8515
   77MOL   H18229214   6.642   1.697   4.528  0.0188 -0.8275 -0.5539
   77MOL   H18329215   6.690   2.088   4.570 -0.2250  1.7031 -2.5821
   77MOL   H18429216   6.524   2.224   4.656  0.2664  0.7110 -2.3536
   77MOL   H18529217   6.268   2.265   4.669  1.2671 -0.7144  0.7042
   77MOL   H18629218   6.149   2.133   4.710 -0.7348  1.7862  1.3684
   77MOL   H18729219   6.267   2.184   4.823  0.8203  0.2089  0.2806
   77MOL   H18829220   6.243   1.889   4.675  0.0725  0.1531  1.4043
   77MOL   H18929221   6.409   1.744   4.591 -0.3567  0.4518 -1.2941
   77MOL   H19029222   6.753   1.841   4.731 -2.0180  0.9447 -0.6653
   77MOL   H19129223   6.869   1.872   4.609 -0.0210  0.4709 -0.3921
   77MOL   C19229224   6.838   1.669   4.684  0.6930  0.2630 -0.3417
   77MOL   C19329225   6.948   1.671   4.788  0.0734  0.1897  0.6444
   77MOL   C19429226   6.924   1.604   4.911  0.2751  0.7977  0.7887
   77MOL   C19529227   7.030   1.614   5.008 -0.4185  0.5231  0.6662
   77MOL   C19629228   7.157   1.681   4.986  0.5627 -0.3114  0.2854
   77MOL   C19729229   7.266   1.675   5.086  0.2315  0.3230  0.3073
   77MOL   C19829230   7.167   1.750   4.862 -0.1802  0.2664  0.0257
   77MOL   C19929231   7.065   1.749   4.766 -0.6553  0.1346 -0.0230
   77MOL   C20029232   6.886   1.584   4.563 -0.3887 -0.6517 -0.1244
   77MOL   H20129233   6.755   1.613   4.728  1.1133  1.1834  1.6252
   77MOL   H20229234   6.832   1.551   4.930  0.5501  0.3148  0.8000
   77MOL   H20329235   7.012   1.579   5.109 -0.3904  1.2079  0.9068
   77MOL   H20429236   7.335   1.594   5.064 -2.4890 -1.8959 -0.3626
   77MOL   H20529237   7.334   1.758   5.102  0.0782  0.1310  2.0615
   77MOL   H20629238   7.220   1.642   5.179  1.3801  0.3934  0.9084
   77MOL   H20729239   7.255   1.809   4.843 -0.1577 -0.1979 -1.3959
   77MOL   H20829240   7.077   1.802   4.673  0.5709  0.9645  0.6009
   77MOL   H20929241   6.949   1.642   4.496 -0.9834 -1.4295 -1.3575
   77MOL   H21029242   6.801   1.553   4.503 -0.1825  1.2223 -1.4257
   77MOL   C21129243   6.970   1.452   4.586  0.2773 -0.2884 -0.3668
   77MOL   C21229244   7.018   1.403   4.450  0.0388 -0.6179 -0.1010
   77MOL   C21329245   7.139   1.447   4.395 -0.3528  0.4010 -0.5426
   77MOL   C21429246   7.187   1.405   4.269 -0.3227 -0.7251 -0.2200
   77MOL   C21529247   7.104   1.321   4.189 -0.4802  0.4385 -0.0690
   77MOL   C21629248   7.165   1.290   4.055  1.2367  0.5018  0.1710
   77MOL   C21729249   6.973   1.285   4.239  0.1060 -0.5568 -0.1995
   77MOL   C21829250   6.929   1.328   4.365 -0.0234 -0.1412 -0.4055
   77MOL   C21929251   6.899   1.337   4.672 -0.7144 -0.4450  0.1083
   77MOL   H22029252   7.054   1.483   4.648 -0.2839 -0.3331  0.4228
   77MOL   H22129253   7.206   1.514   4.447 -1.2896  1.2773 -0.4471
   77MOL   H22229254   7.272   1.457   4.226  0.0351 -1.8552 -0.8953
   77MOL   H22329255   7.230   1.204   4.073 -1.4869 -1.0862  3.0336
   77MOL   H22429256   7.093   1.245   3.987  1.3249  0.4163  0.1343
   77MOL   H22529257   7.232   1.368   4.019  0.5353  1.3293  0.6424
   77MOL   H22629258   6.908   1.224   4.178  0.1171 -1.3611  0.5795
   77MOL   H22729259   6.833   1.286   4.390  1.2525 -2.8711  0.0949
   77MOL   H22829260   6.820   1.294   4.611 -0.2035 -3.2416  1.3458
   77MOL   H22929261   6.860   1.381   4.764 -1.5035 -1.9505  0.5013
   77MOL   C23029262   6.994   1.221   4.718  0.2269 -0.2696 -0.0899
   77MOL   C23129263   6.931   1.075   4.708 -0.0420  0.6766 -0.0683
   77MOL   C23229264   6.793   1.065   4.743 -0.2473  0.9679 -0.5697
   77MOL   C23329265   6.715   0.944   4.727 -0.1345 -0.3736  0.0347
   77MOL   C23429266   6.788   0.834   4.672 -0.6231 -0.6990 -0.0800
   77MOL   C23529267   6.717   0.704   4.657 -0.8179 -0.5828  0.0766
   77MOL   C23629268   6.926   0.845   4.637 -0.5123  0.0878 -0.0161
   77MOL   C23729269   6.999   0.963   4.654  0.0570  0.0556 -0.6754
   77MOL   C23829270   7.051   1.250   4.856  0.5778 -0.2283  0.6142
   77MOL   H23929271   7.088   1.223   4.663  0.2353  2.5137 -0.0474
   77MOL   H24029272   6.745   1.149   4.790  2.3704  1.4679  1.3222
   77MOL   H24129273   6.614   0.926   4.760  0.1735 -3.0204 -0.3507
   77MOL   H24229274   6.769   0.651   4.577  0.1794 -0.1752  0.4401
   77MOL   H24329275   6.731   0.642   4.745 -1.1956 -1.1881 -0.2853
   77MOL   H24429276   6.609   0.710   4.642 -1.1983 -1.7214  2.1912
   77MOL   H24529277   6.981   0.758   4.603 -0.1869  0.5612 -0.7033
   77MOL   H24629278   7.104   0.979   4.631 -0.0415  2.2568  0.3470
   77MOL   H24729279   6.960   1.232   4.914  0.4670 -0.8250  0.2522
   77MOL   H24829280   7.087   1.352   4.873  2.0401 -0.6399 -0.0132
   77MOL   C24929281   7.157   1.149   4.917 -0.1297  0.4883 -0.4492
   77MOL   C25029282   7.125   1.115   5.064 -0.0488  0.4675  0.0612
   77MOL   C25129283   7.137   1.220   5.158  0.8712  0.8445  0.0453
   77MOL   C25229284   7.109   1.198   5.298  0.0928  0.1905 -0.4169
   77MOL   C25329285   7.050   1.077   5.330 -0.5183  0.1767 -0.1306
   77MOL   C25429286   7.006   1.053   5.472 -0.6761  0.2080  0.0886
   77MOL   C25529287   7.025   0.982   5.238  0.5085  1.3721 -0.3120
   77MOL   C25629288   7.063   0.994   5.102 -0.7731 -0.0163 -0.0475
   77MOL   C25729289   7.299   1.203   4.909  0.0654 -0.1600 -0.6153
   77MOL   H25829290   7.137   1.053   4.869 -0.6448  1.4565 -2.2212
   77MOL   H25929291   7.180   1.313   5.123  0.7091  1.6111  1.8548
   77MOL   H26029292   7.136   1.274   5.370 -0.2650  0.9324 -1.0575
   77MOL   H26129293   7.093   1.030   5.534  0.3825  0.2835 -1.3630
   77MOL   H26229294   6.951   1.131   5.525 -0.3635  0.2334  0.3747
   77MOL   H26329295   6.946   0.962   5.478 -0.1298 -0.1498  0.1430
   77MOL   H26429296   6.976   0.889   5.265  1.5471  1.1603  0.8887
   77MOL   H26529297   7.031   0.919   5.032  1.7412 -1.2279  0.0332
   77MOL   H26629298   7.358   1.158   4.990  1.6454  0.0372 -1.6404
   77MOL   H26729299   7.297   1.311   4.924  2.3334 -0.4153  1.8102
   77MOL   C26829300   7.378   1.169   4.778 -0.4849 -0.6163  0.1448
   77MOL   C26929301   7.369   1.018   4.747  0.5680 -0.3663  1.1674
   77MOL   C27029302   7.362   0.978   4.611  0.0600 -0.2586 -0.0025
   77MOL   C27129303   7.344   0.843   4.575 -1.1709 -0.1277 -0.5067
   77MOL   C27229304   7.348   0.745   4.679  0.3907 -0.9698  0.4669
   77MOL   C27329305   7.324   0.595   4.644  0.4144 -0.8215 -0.3107
   77MOL   C27429306   7.370   0.786   4.812  0.0334  0.3280 -0.2492
   77MOL   C27529307   7.391   0.917   4.846 -0.0153 -0.0937  0.2333
   77MOL   C27629308   7.524   1.209   4.807 -0.4811  0.6436  0.3194
   77MOL   H27729309   7.336   1.232   4.700 -1.8002 -0.5317  0.9155
   77MOL   H27829310   7.367   1.051   4.532 -1.9633 -1.9982 -1.7942
   77MOL   H27929311   7.327   0.824   4.470  0.4038 -0.7297 -0.6564
   77MOL   H28029312   7.216   0.594   4.623  0.8531 -2.0133 -2.7493
   77MOL   H28129313   7.387   0.564   4.561 -1.0820  1.2507 -2.2871
   77MOL   H28229314   7.334   0.541   4.738 -1.1889  1.2517  1.0934
   77MOL   H28329315   7.367   0.713   4.891 -2.0541 -1.4534 -1.9184
   77MOL   H28429316   7.410   0.955   4.945 -1.2275  1.6121 -0.1658
   77MOL   H28529317   7.569   1.165   4.718  0.1330  1.1238  0.3876
   77MOL   H28629318   7.553   1.148   4.892 -0.4880 -0.8960 -0.7608
   77MOL   C28729319   7.554   1.359   4.824 -0.3947 -0.4465 -0.4990
   77MOL   C28829320   7.520   1.436   4.701  0.2327 -0.2411 -0.7605
   77MOL   C28929321   7.431   1.542   4.703 -0.0633 -0.0106  0.2230
   77MOL   C29029322   7.408   1.622   4.591 -0.5977 -0.5084 -0.7533
   77MOL   C29129323   7.483   1.604   4.473 -0.6970 -0.0795 -0.5803
   77MOL   C29229324   7.470   1.692   4.350  0.6141  0.8056 -0.3281
   77MOL   C29329325   7.578   1.494   4.470  0.3883 -0.2182 -0.5966
   77MOL   C29429326   7.593   1.411   4.582 -0.3190  0.4251 -0.2344
   77MOL   C29529327   7.702   1.392   4.862 -0.3814  0.6888 -0.5803
   77MOL   H29629328   7.503   1.381   4.917  1.1648  0.4149  0.1723
   77MOL   H29729329   7.366   1.567   4.786 -1.3041  1.2558 -1.0979
   77MOL   H29829330   7.327   1.693   4.603 -0.7013 -0.7637  0.0781
   77MOL   H29929331   7.434   1.630   4.268  3.0429 -2.2587  0.8069
   77MOL   H30029332   7.407   1.781   4.346 -0.2557  0.1305 -2.5501
   77MOL   H30129333   7.567   1.728   4.318 -0.2375  0.1681 -3.8527
   77MOL   H30229334   7.651   1.484   4.391  1.0664  0.6210 -0.0997
   77MOL   H30329335   7.666   1.332   4.574  1.0798  1.8813 -2.5986
   77MOL   H30429336   7.741   1.490   4.835  1.2840  0.5124  1.0618
   77MOL   H30529337   7.757   1.321   4.800 -0.8930 -1.3611  1.2657
   77MOL   C30629338   7.736   1.367   5.015  0.6112 -0.3554 -0.5443
   77MOL   C30729339   7.664   1.464   5.103 -0.1137  0.4933  0.7250
   77MOL   C30829340   7.685   1.601   5.084  0.3281 -0.6166  0.3163
   77MOL   C30929341   7.629   1.694   5.174 -0.0100 -0.6564 -0.5068
   77MOL   C31029342   7.545   1.648   5.274  0.0149  0.7624 -0.5264
   77MOL   C31129343   7.487   1.752   5.368  1.2390 -0.4361  0.2247
   77MOL   C31229344   7.521   1.508   5.288  0.7891 -0.2986  0.0341
   77MOL   C31329345   7.579   1.412   5.204 -0.3166 -0.2686 -0.8800
   77MOL   C31429346   7.887   1.368   5.046 -0.1896 -0.1268  0.1656
   77MOL   H31529347   7.700   1.268   5.045 -2.0947  0.7440  0.0083
   77MOL   H31629348   7.758   1.639   5.014 -0.3176  0.3679  0.1607
   77MOL   H31729349   7.652   1.800   5.174 -2.2986 -0.1367 -0.0862
   77MOL   H31829350   7.555   1.761   5.453 -0.2758 -0.0997  1.4278
   77MOL   H31929351   7.471   1.849   5.320  1.3824 -1.7072 -2.4650
   77MOL   H32029352   7.392   1.720   5.410  0.6724  1.5222  0.4632
   77MOL   H32129353   7.446   1.473   5.358  0.2462 -1.0870 -0.9290
   77MOL   H32229354   7.568   1.305   5.218 -1.1030  0.1567  1.9683
   77MOL   H32329355   7.932   1.467   5.046 -0.9971  0.2657 -1.4805
   77MOL   H32429356   7.937   1.315   4.965 -1.0415 -2.2380  0.9628
   77MOL   C32529357   7.941   1.294   5.171  0.7939 -0.9048 -0.3990
   77MOL   C32629358   8.067   1.361   5.210 -0.3968  0.6628  0.3769
   77MOL   C32729359   0.002   1.418   5.337 -0.2040 -0.4122  0.2631
   77MOL   C32829360   0.129   1.455   5.386  0.3140 -0.2917 -0.1568
   77MOL   C32929361   0.238   1.453   5.299 -0.1408 -0.6176  0.1602
   77MOL   C33029362   0.372   1.511   5.345  0.0616 -0.0989 -0.0999
   77MOL   C33129363   0.220   1.413   5.168  0.3147  0.1785 -0.7980
   77MOL   C33229364   0.094   1.363   5.123 -0.3054 -0.2748 -0.9253
   77MOL   C33329365   7.975   1.140   5.150 -0.5248  0.0129 -0.0366
   77MOL   H33429366   7.879   1.305   5.259  1.9527 -1.9207  0.5593
   77MOL   H33529367   7.995   1.411   5.401  0.8875 -1.2831  1.6620
   77MOL   H33629368   0.144   1.502   5.482 -1.7160 -0.7567  0.4060
   77MOL   H33729369   0.382   1.614   5.312 -1.1342 -0.5370 -1.9560
   77MOL   H33829370   0.405   1.498   5.448  0.1878 -0.4087 -0.1787
   77MOL   H33929371   0.439   1.454   5.281  0.3869 -0.8775  0.9277
   77MOL   H34029372   0.295   1.427   5.092 -1.0336  0.5248 -2.0987
   77MOL   H34129373   0.085   1.325   5.022 -2.3344  3.4187 -2.2718
   77MOL   H34229374   8.035   1.117   5.238 -0.1229  1.3369  0.0414
   77MOL   H34329375   8.055   1.123   5.079  0.2153  0.2858  0.7236
   77MOL   C34429376   7.856   1.050   5.127  0.4024 -0.0043  0.2368
   77MOL   C34529377   7.746   1.049   5.231  0.3360  0.0328 -0.0281
   77MOL   C34629378   7.619   1.003   5.192 -0.7973 -0.1912 -0.0575
   77MOL   C34729379   7.512   1.010   5.284 -0.3684 -0.1125 -0.3698
   77MOL   C34829380   7.532   1.060   5.415 -0.7099 -0.0281 -0.4207
   77MOL   C34929381   7.422   1.069   5.520 -0.6070  0.2675  1.3034
   77MOL   C35029382   7.668   1.092   5.455  0.1194  0.2782  1.1074
   77MOL   C35129383   7.771   1.095   5.360 -0.5406 -0.5331  0.2929
   77MOL   C35229384   7.893   0.903   5.092 -0.4526 -0.1998  0.0710
   77MOL   H35329385   7.811   1.087   5.034 -0.9829  0.4309  1.0716
   77MOL   H35429386   7.615   0.960   5.093  2.8320 -0.1623 -0.2901
   77MOL   H35529387   7.416   0.968   5.260 -0.9250  1.0571 -0.1907
   77MOL   H35629388   7.453   1.133   5.603  0.0137  0.4648  0.9174
   77MOL   H35729389   7.331   1.106   5.472 -0.9054 -2.6013 -0.3951
   77MOL   H35829390   7.404   0.970   5.561  1.4725  0.1344  1.9351
   77MOL   H35929391   7.690   1.144   5.547  2.7047  0.3699  0.4531
   77MOL   H36029392   7.868   1.137   5.380 -1.5508  1.4686  1.0492
   77MOL   H36129393   7.808   0.837   5.074  0.0793 -0.6769 -0.6885
   77MOL   H36229394   7.940   0.859   5.180 -0.8932  0.2791  0.5488
   77MOL   C36329395   7.979   0.873   4.965  0.5090 -0.3940 -0.4633
   77MOL   C36429396   7.930   0.926   4.826  0.4683 -0.0273 -0.0966
   77MOL   C36529397   8.002   1.016   4.747 -0.1008 -0.3639 -0.1688
   77MOL   C36629398   7.959   1.048   4.618 -0.5822 -0.4237  0.0406
   77MOL   C36729399   7.835   0.999   4.577 -0.4790 -0.5243 -0.1159
   77MOL   C36829400   7.800   1.017   4.430 -0.7356 -0.4486 -0.4105
   77MOL   C36929401   7.760   0.919   4.654 -0.3925 -0.5307 -0.3182
   77MOL   C37029402   7.807   0.874   4.779 -0.0385  0.3417  0.4864
   77MOL   C37129403   8.022   0.727   4.950  0.6131  0.7383  0.0934
   77MOL   H37229404   8.073   0.926   4.982  0.1355 -0.0525  0.5731
   77MOL   H37329405   0.023   1.045   4.770 -0.5877  1.1281  0.1802
   77MOL   H37429406   8.013   1.119   4.558 -1.1095 -0.2338 -0.2138
   77MOL   H37529407   7.692   1.031   4.438 -0.3898  2.5898 -0.5120
   77MOL   H37629408   7.848   1.105   4.389  0.6009 -0.0962  1.8112
   77MOL   H37729409   7.811   0.925   4.374  0.3296 -0.4161 -0.2661
   77MOL   H37829410   7.664   0.878   4.626 -0.1063 -0.8270 -0.8653
   77MOL   H37929411   7.752   0.804   4.840  1.1381  0.1490  1.3606
   77MOL   H38029412   8.051   0.682   5.045 -1.6030 -1.2899 -0.1322
   77MOL   H38129413   0.028   0.707   4.885  1.0196 -0.2960  0.9369
   77MOL   H38229414   7.944   0.656   4.924  1.7222 -1.3178  2.1739
   78MOL     C129415   5.258   2.382   0.615  0.3405  0.4231  0.5571
   78MOL     C229416   5.308   2.443   0.743 -0.1781  0.2800  0.5379
   78MOL     C329417   5.349   2.367   0.858  0.6281 -0.1223  0.0471
   78MOL     C429418   5.391   2.431   0.972  0.0086 -0.3637 -0.8633
   78MOL     C529419   5.394   2.569   0.979 -0.3283  0.6410  0.1441
   78MOL     C629420   5.476   2.638   1.086  0.0233 -0.0904  0.4963
   78MOL     C729421   5.347   2.647   0.870  0.1929 -0.0974 -0.1357
   78MOL     C829422   5.300   2.583   0.749  0.0635 -0.8316 -0.4791
   78MOL     C929423   5.108   2.388   0.590  0.0519  0.1048 -0.5987
   78MOL    H1029424   5.304   2.424   0.526  0.5587  0.3142  0.6185
   78MOL    H1129425   5.361   2.260   0.859 -1.0348 -0.3322  0.5017
   78MOL    H1229426   5.430   2.386   1.062 -0.4388  1.4154  0.2544
   78MOL    H1329427   5.576   2.597   1.070 -0.0482  0.6616 -2.1381
   78MOL    H1429428   5.487   2.746   1.082  0.6306 -0.1771 -0.3765
   78MOL    H1529429   5.455   2.600   1.185 -0.5703 -3.2401 -0.7749
   78MOL    H1629430   5.350   2.754   0.877 -0.9579 -0.0106 -0.7606
   78MOL    H1729431   5.269   2.635   0.660  1.1846 -1.4752 -1.2700
   78MOL    H1829432   5.087   2.494   0.585  0.3837  0.3192  1.8549
   78MOL    H1929433   5.055   2.340   0.672  0.6418  1.1720  0.4269
   78MOL    H2029434   5.285   2.276   0.616  0.0369  0.3450  0.6385
   78MOL    C2129435   5.078   2.324   0.455 -0.3728  0.1524 -0.4988
   78MOL    C2229436   4.955   2.373   0.395 -0.5612 -0.2186  0.0081
   78MOL    C2329437   4.956   2.471   0.296 -0.7681 -0.2573 -0.0805
   78MOL    C2429438   4.835   2.512   0.242  0.5022  0.2810 -0.9238
   78MOL    C2529439   4.709   2.463   0.293  0.4694  0.1876  0.5199
   78MOL    C2629440   4.575   2.508   0.233  0.1162 -0.8272  0.0748
   78MOL    C2729441   4.709   2.359   0.392 -0.3496  0.8209 -0.0044
   78MOL    C2829442   4.836   2.326   0.447  0.0388  0.1146  0.0649
   78MOL    C2929443   5.090   2.173   0.451 -0.6213  0.5182 -0.4164
   78MOL    H3029444   5.145   2.369   0.382  1.0432  0.6867  1.1053
   78MOL    H3129445   5.045   2.518   0.257 -0.9074 -0.0901 -0.1928
   78MOL    H3229446   4.846   2.587   0.164  0.9479 -0.5254 -1.6437
   78MOL    H3329447   4.558   2.615   0.238  2.2438 -0.3615 -1.9917
   78MOL    H3429448   4.581   2.480   0.127 -0.6401  1.1606 -0.4981
   78MOL    H3529449   4.487   2.458   0.274 -1.1815  0.9634 -0.4830
   78MOL    H3629450   4.623   2.317   0.442 -0.3064 -0.2021 -0.7876
   78MOL    H3729451   4.839   2.255   0.529  2.8798 -1.0530 -0.9674
   78MOL    H3829452   5.008   2.124   0.504 -1.1821  0.0022 -1.7329
   78MOL    H3929453   5.185   2.141   0.492 -1.1351 -0.6385 -0.0897
   78MOL    C4029454   5.063   2.107   0.312 -0.4419 -0.2310 -0.4316
   78MOL    C4129455   5.042   1.952   0.321 -0.3242 -0.3855  0.0497
   78MOL    C4229456   5.118   1.873   0.415  0.2725  0.6810 -0.0970
   78MOL    C4329457   5.100   1.730   0.423 -0.1410  0.7857  0.3415
   78MOL    C4429458   5.006   1.664   0.338 -0.1315  0.1970  0.1981
   78MOL    C4529459   4.984   1.516   0.358  0.2522  0.2543 -0.7493
   78MOL    C4629460   4.924   1.742   0.255 -0.5356  0.3657 -0.6076
   78MOL    C4729461   4.943   1.884   0.248  0.3713 -0.5275 -0.2242
   78MOL    C4829462   5.190   2.136   0.225  0.1552  1.0313  0.9226
   78MOL    H4929463   4.984   2.149   0.251 -0.4671 -0.8104 -0.7953
   78MOL    H5029464   5.195   1.918   0.475  0.8876 -2.8354  1.8007
   78MOL    H5129465   5.153   1.664   0.489 -0.5943 -0.9282 -0.9706
   78MOL    H5229466   4.898   1.498   0.423  1.5569  1.5186  1.3625
   78MOL    H5329467   4.975   1.464   0.263 -1.8586 -0.8149  0.0029
   78MOL    H5429468   5.072   1.468   0.402 -0.0674 -0.8979 -1.3281
   78MOL    H5529469   4.860   1.689   0.185  1.5769 -3.0016 -0.0731
   78MOL    H5629470   4.884   1.947   0.182  1.2722  2.1255  1.4456
   78MOL    H5729471   5.257   2.054   0.250 -0.6725 -0.0231 -0.2511
   78MOL    H5829472   5.241   2.223   0.265 -1.3474  1.8277  1.1500
   78MOL    C5929473   5.163   2.130   0.074  0.5156 -0.2770 -0.0149
   78MOL    C6029474   5.282   2.083   8.071  0.4927  0.7743  0.2323
   78MOL    C6129475   5.279   1.983   7.969 -0.7202 -0.0916 -0.4444
   78MOL    C6229476   5.398   1.940   7.914  0.5668 -0.1729  0.3402
   78MOL    C6329477   5.522   1.997   7.939  0.2540  0.7670  0.0361
   78MOL    C6429478   5.649   1.941   7.882 -0.3545  0.4031  0.6018
   78MOL    C6529479   5.530   2.109   8.026 -0.9672 -0.8143 -0.1225
   78MOL    C6629480   5.405   2.153   0.008  0.4838  0.1602 -0.4959
   78MOL    C6729481   5.108   2.258   0.012  0.1592 -0.0526  0.2334
   78MOL    H6829482   5.082   2.059   0.059 -0.3799  0.6587  0.3339
   78MOL    H6929483   5.186   1.933   7.945 -1.1793  0.0401  0.9890
   78MOL    H7029484   5.389   1.863   7.839  1.1790  0.2920 -0.2256
   78MOL    H7129485   5.637   1.838   7.849  0.4907  0.3987  0.2973
   78MOL    H7229486   5.663   1.993   7.787 -0.2862 -1.2616 -0.3254
   78MOL    H7329487   5.736   1.958   7.945  0.7912  2.3579 -1.4305
   78MOL    H7429488   5.626   2.154   8.048 -0.3356 -2.5391  0.7635
   78MOL    H7529489   5.409   2.237   0.076  0.7024 -0.0688 -0.2225
   78MOL    H7629490   5.189   2.320   8.052 -1.4894  1.8240 -0.2558
   78MOL    H7729491   5.075   2.322   0.093 -0.9418 -2.1791  1.4998
   78MOL    C7829492   4.995   2.251   7.989 -0.2914  0.5501  0.6482
   78MOL    C7929493   4.971   2.394   7.931 -0.4890 -0.5031  0.1283
   78MOL    C8029494   5.072   2.458   7.854  0.5448 -0.0997 -0.1416
   78MOL    C8129495   5.041   2.588   7.803 -0.4153 -0.0294  0.1910
   78MOL    C8229496   4.917   2.650   7.828  0.2816  0.4768  0.0347
   78MOL    C8329497   4.869   2.778   7.756  0.3124  0.4067  0.0085
   78MOL    C8429498   4.824   2.583   7.906 -0.2889 -0.3382  0.1415
   78MOL    C8529499   4.855   2.460   7.965 -0.9301 -0.1985 -0.4902
   78MOL    C8629500   4.871   2.172   8.039  0.2260 -1.0304 -0.1209
   78MOL    H8729501   5.029   2.193   7.903  0.7267  2.1192 -0.0431
   78MOL    H8829502   5.160   2.405   7.820  1.6862  2.1233 -0.7346
   78MOL    H8929503   5.111   2.620   7.728 -0.4315 -1.5159 -0.4710
   78MOL    H9029504   4.938   2.810   7.678  0.7093  0.2524  0.2900
   78MOL    H9129505   4.764   2.778   7.726  0.4357 -1.8693 -0.4743
   78MOL    H9229506   4.869   2.862   7.827 -1.0545  2.1189 -1.9522
   78MOL    H9329507   4.723   2.619   7.921  0.5776  2.7385 -1.0243
   78MOL    H9429508   4.782   2.410   8.027 -0.2060 -1.2995 -0.5185
   78MOL    H9529509   4.837   2.220   0.051  0.9968 -3.1886  1.3281
   78MOL    H9629510   4.904   2.075   8.077  1.2566  0.1817  2.2163
   78MOL    C9729511   4.765   2.138   7.935  0.0165  1.2173  0.1072
   78MOL    C9829512   4.633   2.156   7.997  0.2069  0.0711  0.1407
   78MOL    C9929513   4.616   2.085   0.042 -0.6569  0.2287 -0.3048
   78MOL   C10029514   4.499   2.100   0.113  0.4651  0.0291 -0.4365
   78MOL   C10129515   4.406   2.196   0.077  0.3489 -0.3381  0.2632
   78MOL   C10229516   4.285   2.220   0.157 -0.3974  0.8935  0.7050
   78MOL   C10329517   4.429   2.265   8.038 -0.0300 -0.1447  0.5928
   78MOL   C10429518   4.537   2.248   7.956 -0.7390 -0.1725  0.2806
   78MOL   C10529519   4.792   2.018   7.845 -0.4296 -0.0207 -0.3137
   78MOL   H10629520   4.769   2.223   7.866  4.7628  0.5061 -0.6137
   78MOL   H10729521   4.692   2.019   0.081 -1.6945 -0.5110  0.5054
   78MOL   H10829522   4.491   2.050   0.208  1.1975  1.3274  0.3211
   78MOL   H10929523   4.313   2.217   0.263 -0.0579 -2.0573  0.5559
   78MOL   H11029524   4.245   2.318   0.129  0.0106  0.7789 -0.2897
   78MOL   H11129525   4.206   2.146   0.150 -1.4593  2.1691 -1.0638
   78MOL   H11229526   4.355   2.338   8.009  1.3668  0.7460 -0.8092
   78MOL   H11329527   4.559   2.305   7.867  1.2426  0.6190  1.2365
   78MOL   H11429528   4.900   2.012   7.831 -0.4209  0.2496 -0.3662
   78MOL   H11529529   4.761   2.031   7.741 -0.2624 -0.7952 -0.4626
   78MOL   C11629530   4.753   1.872   7.900 -0.0791  0.7789 -0.0516
   78MOL   C11729531   4.847   1.765   7.865  0.5912 -0.6306 -0.4093
   78MOL   C11829532   4.900   1.691   7.966 -0.1277 -0.9709  0.3404
   78MOL   C11929533   5.014   1.610   7.944  0.0222 -0.1167  0.1605
   78MOL   C12029534   5.054   1.582   7.815 -0.6220  0.1916 -0.1092
   78MOL   C12129535   5.181   1.502   7.781 -0.1078  0.0393  0.0784
   78MOL   C12229536   4.997   1.651   7.707  0.1600  0.5664  0.1099
   78MOL   C12329537   4.894   1.744   7.735 -0.2282  0.3581 -0.3796
   78MOL   C12429538   4.609   1.836   7.881  0.2175 -0.1309 -0.3809
   78MOL   H12529539   4.762   1.879   8.008  0.4279  2.1124 -0.1592
   78MOL   H12629540   4.866   1.709   8.067  1.5000 -0.8354  0.8850
   78MOL   H12729541   5.053   1.552   8.026  0.3820 -1.2315 -0.7851
   78MOL   H12829542   5.274   1.558   7.778 -0.7944  1.1013 -2.0892
   78MOL   H12929543   5.198   1.424   7.856 -3.1546 -0.8910 -0.1093
   78MOL   H13029544   5.165   1.455   7.683  3.5518  0.9361 -1.0323
   78MOL   H13129545   5.024   1.635   7.603 -4.9842 -0.6466 -1.1922
   78MOL   H13229546   4.839   1.800   7.661 -0.6779  1.5022  0.7994
   78MOL   H13329547   4.552   1.915   7.931 -0.4623 -0.2967 -0.8814
   78MOL   H13429548   4.592   1.751   7.948 -0.5069 -0.1086 -0.5281
   78MOL   C13529549   4.554   1.795   7.740  0.0463  0.6597  0.5305
   78MOL   C13629550   4.566   1.905   7.632 -0.2268 -0.7846  0.0244
   78MOL   C13729551   4.490   2.022   7.638 -0.4939  0.5589 -0.1928
   78MOL   C13829552   4.494   2.116   7.528 -0.2325  0.3533 -0.3882
   78MOL   C13929553   4.579   2.096   7.417 -0.2509  0.1509  0.3748
   78MOL   C14029554   4.567   2.194   7.299  0.0133  0.0201  0.8133
   78MOL   C14129555   4.655   1.973   7.408 -0.0079 -0.0032  0.3946
   78MOL   C14229556   4.641   1.876   7.513 -0.0430 -0.1960  0.3950
   78MOL   C14329557   4.408   1.732   7.737  0.1299  0.4775  0.0378
   78MOL   H14429558   4.619   1.712   7.714  1.4836  1.6702  0.8498
   78MOL   H14529559   4.423   2.026   7.723 -0.3224  2.6812 -0.1344
   78MOL   H14629560   4.428   2.201   7.530  0.7550  1.1468 -1.2375
   78MOL   H14729561   4.655   2.255   7.280  0.5514 -0.3588  2.0942
   78MOL   H14829562   4.542   2.138   7.209  1.1378  0.7945  0.0012
   78MOL   H14929563   4.486   2.265   7.318  1.3258  1.4705  1.0628
   78MOL   H15029564   4.712   1.935   7.326 -0.0577 -2.8454  1.6286
   78MOL   H15129565   4.680   1.776   7.505  1.2728  0.2913  0.6942
   78MOL   H15229566   4.335   1.811   7.758  1.9912  2.0372  0.8718
   78MOL   H15329567   4.406   1.667   7.824  1.8448 -0.7277 -0.7980
   78MOL   C15429568   4.373   1.653   7.606  0.0100  0.4009  0.1225
   78MOL   C15529569   4.288   1.741   7.514  0.3747  0.9722 -0.0978
   78MOL   C15629570   4.338   1.781   7.388 -1.1857  0.5300 -0.0045
   78MOL   C15729571   4.260   1.854   7.305  0.6016  0.0031  0.1785
   78MOL   C15829572   4.120   1.867   7.334  0.4942 -0.1374  0.0597
   78MOL   C15929573   4.027   1.936   7.228 -0.4061  0.2657  0.1382
   78MOL   C16029574   4.067   1.830   7.460 -0.5567 -0.0308  0.3861
   78MOL   C16129575   4.158   1.769   7.546 -0.8350  1.1160  0.0584
   78MOL   C16229576   4.298   1.519   7.639 -0.6649 -0.4680  0.5946
   78MOL   H16329577   4.469   1.630   7.560  0.9794 -0.2310  2.3894
   78MOL   H16429578   4.440   1.757   7.363 -0.7343  0.5699  1.7128
   78MOL   H16529579   4.310   1.893   7.218  0.9510  0.0231  0.3905
   78MOL   H16629580   3.998   1.858   7.158 -0.9781  1.4685 -0.9911
   78MOL   H16729581   3.940   1.984   7.274  0.1187 -0.3089  1.7657
   78MOL   H16829582   4.084   2.008   7.169 -1.4037 -0.3277 -1.5863
   78MOL   H16929583   3.962   1.839   7.481  0.1318  1.2305  3.7538
   78MOL   H17029584   4.127   1.741   7.646  0.3273 -0.9181 -0.1189
   78MOL   H17129585   4.250   1.490   7.546 -0.3500  0.5470  0.1095
   78MOL   H17229586   4.217   1.535   7.710 -1.2489 -1.7860  0.2383
   78MOL   C17329587   4.386   1.401   7.693 -0.1831 -0.7954 -0.3547
   78MOL   C17429588   4.488   1.353   7.590  0.0153  0.0922  0.0506
   78MOL   C17529589   4.622   1.352   7.627  0.0385 -0.7581  0.0967
   78MOL   C17629590   4.717   1.310   7.538 -0.2715  0.3090 -0.8255
   78MOL   C17729591   4.679   1.259   7.416 -0.3499  0.3371  0.0695
   78MOL   C17829592   4.788   1.233   7.314 -0.2120  0.0211 -0.3064
   78MOL   C17929593   4.544   1.248   7.379  0.1700 -0.2262  0.1862
   78MOL   C18029594   4.447   1.298   7.467  0.4890  0.0039 -0.2586
   78MOL   C18129595   4.300   1.277   7.744 -0.1893  0.5653  0.7952
   78MOL   H18229596   4.444   1.438   7.777 -0.8182 -1.2279  0.2775
   78MOL   H18329597   4.657   1.410   7.711  1.4004 -1.2490 -0.1235
   78MOL   H18429598   4.823   1.319   7.559 -0.3821  1.5897 -0.7866
   78MOL   H18529599   4.866   1.309   7.305  0.7653 -0.7252  1.5179
   78MOL   H18629600   4.844   1.145   7.347 -0.4024  0.0769  0.1722
   78MOL   H18729601   4.751   1.216   7.213 -1.3609  2.4737 -0.3428
   78MOL   H18829602   4.521   1.207   7.282 -1.3534 -2.7429  1.5510
   78MOL   H18929603   4.342   1.296   7.442  0.9024  0.2865 -2.0996
   78MOL   H19029604   4.361   1.187   7.750 -1.3867 -0.3728 -0.6117
   78MOL   H19129605   4.233   1.234   7.669  0.5391 -2.0187  1.5830
   78MOL   C19229606   4.217   1.308   7.870  0.7345 -1.1029  0.4893
   78MOL   C19329607   4.317   1.342   7.979  0.0756  0.0069  0.4253
   78MOL   C19429608   4.335   1.478   8.024  0.3541  0.5700  0.4202
   78MOL   C19529609   4.423   1.521   0.043 -0.3073 -0.0203  0.1421
   78MOL   C19629610   4.519   1.427   0.087 -0.6131 -0.2133  0.0197
   78MOL   C19729611   4.622   1.475   0.194 -0.7756 -0.2263 -0.1644
   78MOL   C19829612   4.503   1.292   0.044  0.8084  0.6999  0.0078
   78MOL   C19929613   4.404   1.250   8.038 -0.4580 -0.0848  0.1981
   78MOL   C20029614   4.122   1.197   7.912  0.0992  0.3586  0.2068
   78MOL   H20129615   4.154   1.394   7.847  2.0460 -0.4591 -0.7471
   78MOL   H20229616   4.272   1.556   7.984 -1.4645 -0.8085  0.5605
   78MOL   H20329617   4.435   1.622   0.081 -0.1649 -0.3621  1.0172
   78MOL   H20429618   4.622   1.584   0.190 -2.9626 -0.2424 -0.9595
   78MOL   H20529619   4.590   1.443   0.294  0.7017 -1.9960 -0.2288
   78MOL   H20629620   4.718   1.430   0.169 -0.1800  1.0746 -0.2544
   78MOL   H20729621   4.570   1.218   0.085 -2.0557 -2.2098 -0.3330
   78MOL   H20829622   4.397   1.146   8.010 -0.2873 -0.2961  0.9280
   78MOL   H20929623   4.185   1.111   7.936  0.5802  1.1743  1.9119
   78MOL   H21029624   4.043   1.183   7.838 -0.1274 -0.5568  0.6084
   78MOL   C21129625   4.050   1.227   8.049 -0.0196 -0.0600 -0.1506
   78MOL   C21229626   3.992   1.093   0.015 -0.2066  0.4999  0.4581
   78MOL   C21329627   3.911   1.018   8.008  0.4727 -0.4370 -0.5098
   78MOL   C21429628   3.857   0.898   8.047 -0.6921  0.0697 -0.1843
   78MOL   C21529629   3.910   0.839   0.083 -0.4326  0.1180 -0.1956
   78MOL   C21629630   3.863   0.696   0.124 -0.8779  0.4799  0.3376
   78MOL   C21729631   4.000   0.903   0.166 -0.4879  0.8170  0.0906
   78MOL   C21829632   4.044   1.027   0.134 -0.3000 -0.0885 -0.9279
   78MOL   C21929633   3.948   1.342   8.043  0.1820 -0.4306 -0.3991
   78MOL   H22029634   4.131   1.249   0.038  1.1696 -0.2942 -1.4526
   78MOL   H22129635   3.884   1.054   7.910  1.7090  1.7129 -0.0925
   78MOL   H22229636   3.792   0.835   7.988 -0.4367 -1.5860  1.2598
   78MOL   H22329637   3.936   0.641   0.182 -1.6130 -1.6086 -0.6535
   78MOL   H22429638   3.773   0.713   0.183 -1.9435 -1.0644 -0.8040
   78MOL   H22529639   3.845   0.626   0.042  0.2440 -3.1393  3.0505
   78MOL   H22629640   4.028   0.867   0.264  1.5026 -0.9405 -1.0939
   78MOL   H22729641   4.120   1.072   0.195 -0.7538 -0.7536  0.1501
   78MOL   H22829642   3.861   1.309   7.988 -0.5296  0.8281 -0.0399
   78MOL   H22929643   3.995   1.430   7.999 -1.8858  1.4585  1.0964
   78MOL   C23029644   3.898   1.385   0.102 -0.1945 -0.5381 -0.1438
   78MOL   C23129645   3.776   1.473   0.090  0.5592 -0.0408 -0.1523
   78MOL   C23229646   3.659   1.433   0.151  0.2922 -0.4065 -0.3658
   78MOL   C23329647   3.544   1.516   0.143  0.4504 -0.5441 -0.1161
   78MOL   C23429648   3.541   1.629   0.054 -0.3669  0.0825 -0.2267
   78MOL   C23529649   3.415   1.721   0.041  0.9920 -0.0131 -0.0800
   78MOL   C23629650   3.659   1.660   8.070  0.0969  0.0253 -0.1166
   78MOL   C23729651   3.775   1.582   0.003  0.3301  0.3157 -0.2983
   78MOL   C23829652   4.008   1.442   0.200  0.5290 -0.5027 -0.1008
   78MOL   H23929653   3.866   1.292   0.150 -0.7229 -0.9731 -1.3123
   78MOL   H24029654   3.642   1.350   0.218  1.7248 -0.0468  0.4769
   78MOL   H24129655   3.449   1.486   0.185  0.9063 -0.5967  0.8939
   78MOL   H24229656   3.435   1.828   0.052 -2.2381  0.7780 -1.2935
   78MOL   H24329657   3.363   1.693   8.030 -1.4910  1.0346  0.9612
   78MOL   H24429658   3.346   1.707   0.124  1.2448 -0.2280  0.0949
   78MOL   H24529659   3.673   1.756   8.022 -1.4597  0.1451 -0.3704
   78MOL   H24629660   3.865   1.607   8.030  2.7851 -1.3568  2.9003
   78MOL   H24729661   4.033   1.538   0.155 -1.5560  1.6506  3.1251
   78MOL   H24829662   4.099   1.382   0.205  0.8534  0.0833  1.2258
   78MOL   C24929663   3.967   1.458   0.350  0.2940 -0.0942 -0.1973
   78MOL   C25029664   4.073   1.528   0.437  0.0748  0.3511  0.1033
   78MOL   C25129665   4.203   1.468   0.445 -0.5989 -0.5198 -0.1153
   78MOL   C25229666   4.306   1.531   0.520  0.2017 -0.3368 -0.6059
   78MOL   C25329667   4.284   1.663   0.572  0.0853  0.2949 -0.1443
   78MOL   C25429668   4.394   1.737   0.645 -0.3430 -0.4256  0.4170
   78MOL   C25529669   4.148   1.719   0.573  0.2617 -0.9858 -0.2870
   78MOL   C25629670   4.049   1.651   0.508  0.7877  0.2013  1.0246
   78MOL   C25729671   3.915   1.330   0.419 -0.7088 -0.0416 -0.6826
   78MOL   H25829672   3.879   1.522   0.358 -0.1640 -0.5983 -1.0405
   78MOL   H25929673   4.223   1.378   0.389  2.6911  0.5271 -0.7412
   78MOL   H26029674   4.406   1.490   0.526  1.3297  2.4135 -0.1734
   78MOL   H26129675   4.357   1.829   0.690 -1.4084 -1.0201  0.7959
   78MOL   H26229676   4.417   1.686   0.739 -1.5293 -1.1639  0.3229
   78MOL   H26329677   4.488   1.755   0.594 -0.1934 -0.0404  0.8289
   78MOL   H26429678   4.135   1.814   0.623  3.0019 -2.4620  3.5199
   78MOL   H26529679   3.958   1.707   0.494  0.4226 -0.0992  2.1705
   78MOL   H26629680   3.984   1.247   0.405 -0.3816  0.0614  0.2823
   78MOL   H26729681   3.822   1.297   0.373 -1.8055  0.3425  1.2072
   78MOL   C26829682   3.880   1.341   0.573  0.1273  0.3310 -0.2313
   78MOL   C26929683   3.995   1.299   0.661 -0.6739  0.6358  0.2362
   78MOL   C27029684   4.035   1.383   0.766 -0.5459  0.6946 -0.3267
   78MOL   C27129685   4.150   1.352   0.840 -0.1730  0.1064 -0.0738
   78MOL   C27229686   4.227   1.235   0.822 -0.4841  0.4559 -0.2070
   78MOL   C27329687   4.331   1.187   0.918  0.1954 -0.3874 -0.1214
   78MOL   C27429688   4.182   1.149   0.719  0.1380  1.0340 -1.0303
   78MOL   C27529689   4.064   1.177   0.640 -0.3121  0.5269 -0.4360
   78MOL   C27629690   3.756   1.273   0.634  0.6882  0.2242  0.3448
   78MOL   H27729691   3.878   1.449   0.589 -0.3653  0.1490  1.0276
   78MOL   H27829692   3.981   1.474   0.786  0.9132  2.0404 -2.3060
   78MOL   H27929693   4.169   1.416   0.925 -1.0628 -0.7019  0.7550
   78MOL   H28029694   4.422   1.138   0.884 -1.1313 -1.8111 -1.7957
   78MOL   H28129695   4.364   1.263   0.988 -1.3742  1.7222 -1.6024
   78MOL   H28229696   4.292   1.111   0.986 -0.2258  1.4545  1.7207
   78MOL   H28329697   4.231   1.053   0.708  1.0788  1.1836  1.5299
   78MOL   H28429698   4.049   1.110   0.557 -2.1223  0.8789 -0.4224
   78MOL   H28529699   3.757   1.292   0.742 -0.4232  0.7609  0.2686
   78MOL   H28629700   3.767   1.166   0.621  1.4897  0.3702 -0.2108
   78MOL   C28729701   3.628   1.323   0.578  0.6097  0.1614 -0.2329
   78MOL   C28829702   3.603   1.475   0.613 -0.1897 -0.1333  0.5620
   78MOL   C28929703   3.604   1.572   0.511 -0.3797  0.4908  0.3782
   78MOL   C29029704   3.576   1.708   0.541  0.1738 -0.5430  0.0791
   78MOL   C29129705   3.566   1.748   0.671 -0.3203 -0.0870 -0.7190
   78MOL   C29229706   3.533   1.896   0.702  0.6437  0.0817 -0.2171
   78MOL   C29329707   3.567   1.652   0.774 -0.1578  0.4825 -0.0507
   78MOL   C29429708   3.586   1.514   0.751 -0.8561 -0.0233 -0.3589
   78MOL   C29529709   3.510   1.235   0.638 -0.2873 -0.2681  0.3241
   78MOL   H29629710   3.615   1.322   0.470 -2.1913 -0.2990  0.0860
   78MOL   H29729711   3.626   1.540   0.411 -1.2388 -1.0979  0.6735
   78MOL   H29829712   3.572   1.775   0.456  1.5624 -2.1619 -1.3047
   78MOL   H29929713   3.444   1.899   0.765  1.4410 -1.0714  1.0109
   78MOL   H30029714   3.614   1.945   0.756  0.2652 -1.2390  1.6066
   78MOL   H30129715   3.497   1.957   0.619  0.3580 -0.9654 -0.8706
   78MOL   H30229716   3.568   1.697   0.872  0.5306 -0.6528  0.4706
   78MOL   H30329717   3.595   1.446   0.835  1.5191 -0.1996 -0.7239
   78MOL   H30429718   3.418   1.292   0.625  1.2618  2.2175 -0.0365
   78MOL   H30529719   3.506   1.235   0.747 -0.6062  0.4965  0.3204
   78MOL   C30629720   3.492   1.098   0.574 -0.3187  0.2666  0.3039
   78MOL   C30729721   3.512   1.100   0.421 -0.1769 -0.4252  0.2050
   78MOL   C30829722   3.622   1.033   0.356 -0.7430 -0.1518  0.2863
   78MOL   C30929723   3.638   1.037   0.214 -0.0386 -0.1522  0.2063
   78MOL   C31029724   3.556   1.117   0.135 -0.7701 -0.6576 -0.1287
   78MOL   C31129725   3.598   1.142   8.074 -0.0461  0.5704 -0.4124
   78MOL   C31229726   3.450   1.182   0.198  0.4232  0.5426 -0.5469
   78MOL   C31329727   3.430   1.174   0.340  0.3198  0.3694  0.2083
   78MOL   C31429728   3.372   1.019   0.613 -0.2845 -0.3528 -0.2092
   78MOL   H31529729   3.574   1.035   0.608  0.0533  1.4220  1.5926
   78MOL   H31629730   3.685   0.971   0.418 -1.3402 -0.2434  0.8097
   78MOL   H31729731   3.727   0.991   0.173 -0.1834  0.4208 -0.7586
   78MOL   H31829732   3.637   1.051   8.028  2.5874  0.3354  2.1386
   78MOL   H31929733   3.513   1.183   8.019 -0.0020  0.6330 -0.4342
   78MOL   H32029734   3.680   1.213   8.075 -1.0298  1.7177 -0.5075
   78MOL   H32129735   3.386   1.248   0.143 -1.1725 -0.3250  0.2175
   78MOL   H32229736   3.350   1.232   0.384 -0.1960 -0.8800  0.9230
   78MOL   H32329737   3.355   0.924   0.563  0.0188  0.4481 -1.8825
   78MOL   H32429738   3.285   1.076   0.582 -0.5991 -1.2012 -0.8978
   78MOL   C32529739   3.353   1.001   0.767 -0.1459 -0.2844 -0.2438
   78MOL   C32629740   3.462   0.912   0.842  0.6640  0.6648  0.3130
   78MOL   C32729741   3.431   0.782   0.885  0.0342 -0.1167 -0.0110
   78MOL   C32829742   3.532   0.703   0.939  0.4967 -0.0130 -0.0728
   78MOL   C32929743   3.664   0.755   0.958  0.7973  0.1979  0.1318
   78MOL   C33029744   3.771   0.665   1.021 -0.2295 -0.3632 -0.4019
   78MOL   C33129745   3.697   0.887   0.920 -0.0816  0.1287  0.3796
   78MOL   C33229746   3.595   0.966   0.864  0.3861 -0.2166 -0.2261
   78MOL   C33329747   3.202   0.972   0.814  1.0537 -0.3318 -0.4388
   78MOL   H33429748   3.373   1.094   0.821  0.6999 -0.7683  0.2968
   78MOL   H33529749   3.333   0.743   0.864  0.2597 -0.6546 -0.0681
   78MOL   H33629750   3.517   0.597   0.958  1.1251 -0.3421 -1.3532
   78MOL   H33729751   3.855   0.734   1.024  1.2396 -2.1559  0.2951
   78MOL   H33829752   3.748   0.634   1.122 -2.6154 -2.4097 -1.5150
   78MOL   H33929753   3.790   0.579   0.957  1.2227 -0.0410 -0.4240
   78MOL   H34029754   3.789   0.938   0.943 -0.1877  0.6712 -0.3619
   78MOL   H34129755   3.622   1.067   0.839 -0.5276  0.1693  0.2918
   78MOL   H34229756   3.201   0.949   0.921  1.9140 -0.9913 -0.5675
   78MOL   H34329757   3.171   0.875   0.775 -0.5103  0.5269 -1.3883
   78MOL   C34429758   3.100   1.082   0.782 -0.6689  0.0858 -0.2809
   78MOL   C34529759   3.132   1.220   0.831  0.4957  0.1813  0.8566
   78MOL   C34629760   3.150   1.235   0.967  0.0227  0.2074 -0.1120
   78MOL   C34729761   3.180   1.359   1.022 -0.0330 -1.0623  0.1868
   78MOL   C34829762   3.203   1.470   0.940 -0.1042 -0.2727  0.1213
   78MOL   C34929763   3.242   1.607   0.994  0.3471 -0.2743  0.5442
   78MOL   C35029764   3.180   1.453   0.797  0.1342 -0.1288  0.1134
   78MOL   C35129765   3.137   1.333   0.745 -0.5763  0.6803 -0.2922
   78MOL   C35229766   2.948   1.044   0.819 -0.5496 -0.4884  0.2960
   78MOL   H35329767   3.106   1.089   0.673  1.1917 -1.3366 -0.2932
   78MOL   H35429768   3.146   1.142   1.023  0.7700  0.2243 -0.0316
   78MOL   H35529769   3.196   1.380   1.126  0.5572  1.8241 -0.4449
   78MOL   H35629770   3.159   1.676   0.976 -0.8010 -2.0807 -1.3473
   78MOL   H35729771   3.259   1.593   1.101 -1.7167  3.0738  1.4052
   78MOL   H35829772   3.333   1.649   0.951  0.2472  0.1267  0.7164
   78MOL   H35929773   3.182   1.539   0.731 -0.8638 -0.1398  0.0554
   78MOL   H36029774   3.122   1.325   0.639  2.3557  1.6968 -0.8408
   78MOL   H36129775   2.947   1.040   0.928 -0.5514 -0.0559  0.3142
   78MOL   H36229776   2.913   0.951   0.773  1.6278 -0.4523 -1.4950
   78MOL   C36329777   2.833   1.144   0.779 -0.1510  0.0273  0.6516
   78MOL   C36429778   2.753   1.171   0.897 -0.1604 -0.3791  0.1392
   78MOL   C36529779   2.650   1.083   0.934 -0.1644 -0.8469 -0.2952
   78MOL   C36629780   2.560   1.121   1.037 -0.7393  0.0484 -0.1364
   78MOL   C36729781   2.570   1.245   1.102 -1.0909  0.5986  0.2669
   78MOL   C36829782   2.466   1.283   1.206 -0.3570  0.2118  0.8085
   78MOL   C36929783   2.677   1.331   1.060  0.0068 -0.7057  0.2122
   78MOL   C37029784   2.765   1.299   0.963  0.1859 -0.9131 -0.5319
   78MOL   C37129785   2.750   1.095   0.658  0.6938  0.0286  0.7531
   78MOL   H37229786   2.884   1.233   0.743 -1.4033  0.6948  0.4854
   78MOL   H37329787   2.635   0.988   0.886  0.2707 -0.4709 -1.1960
   78MOL   H37429788   2.483   1.054   1.071  0.2643 -2.1720 -2.0868
   78MOL   H37529789   2.417   1.379   1.191  1.4457  1.0284  0.0136
   78MOL   H37629790   2.384   1.212   1.196 -1.4280  1.7411 -1.7129
   78MOL   H37729791   2.508   1.284   1.307  1.4962  0.5122  0.0442
   78MOL   H37829792   2.676   1.422   1.118 -2.9616  0.3072 -1.3060
   78MOL   H37929793   2.846   1.365   0.938  0.6396 -1.1384  0.3325
   78MOL   H38029794   2.698   1.002   0.680 -1.7004  1.5566  1.6430
   78MOL   H38129795   2.816   1.079   0.572  0.8600 -0.5816  0.9910
   78MOL   H38229796   2.667   1.162   0.634 -0.1418 -1.5278 -0.8231
   79MOL     C129797   1.232   6.048   1.886  0.4662  0.1373 -0.2910
   79MOL     C229798   1.333   6.145   1.933  0.1201 -0.1125  0.1783
   79MOL     C329799   1.461   6.162   1.875  0.5145  0.0625  0.5364
   79MOL     C429800   1.554   6.260   1.915  0.3064 -0.1238  0.2713
   79MOL     C529801   1.520   6.337   2.024  0.2728 -0.1462 -0.0981
   79MOL     C629802   1.604   6.460   2.064 -0.7808  0.4788  0.4103
   79MOL     C729803   1.403   6.308   2.097  0.5006 -0.4199 -0.0380
   79MOL     C829804   1.309   6.215   2.053  0.0374  0.3887  0.3424
   79MOL     C929805   1.171   6.102   1.756 -0.2478 -0.1962 -0.3265
   79MOL    H1029806   1.273   5.948   1.883 -0.7501 -0.4284  1.2015
   79MOL    H1129807   1.477   6.100   1.788  0.9803 -1.7314  1.8701
   79MOL    H1229808   1.644   6.275   1.857 -0.4767  0.9590 -0.6925
   79MOL    H1329809   1.558   6.522   2.141 -0.1300 -1.0578  2.0827
   79MOL    H1429810   1.703   6.434   2.102 -0.9173  1.2412  1.2914
   79MOL    H1529811   1.621   6.519   1.974  1.3137  0.8036  0.9928
   79MOL    H1629812   1.388   6.368   2.186  0.1165  1.0260 -1.0539
   79MOL    H1729813   1.211   6.208   2.099 -0.9876 -1.0734 -1.9490
   79MOL    H1829814   1.250   6.118   1.683 -0.0044  0.0803 -0.0076
   79MOL    H1929815   1.117   6.193   1.782  1.9904  1.2357 -0.5401
   79MOL    H2029816   1.151   6.037   1.958  0.1052 -3.1473 -1.1462
   79MOL    C2129817   1.078   6.007   1.690  0.3769 -0.5127 -0.1310
   79MOL    C2229818   1.128   5.869   1.677 -0.2803  0.3720 -0.0045
   79MOL    C2329819   1.248   5.839   1.605 -0.6765  0.5378 -0.0936
   79MOL    C2429820   1.295   5.707   1.586  0.2732 -0.2042 -0.0095
   79MOL    C2529821   1.213   5.601   1.630 -0.5273  0.0575 -0.6820
   79MOL    C2629822   1.247   5.457   1.610  0.4993 -0.1328 -0.1177
   79MOL    C2729823   1.100   5.630   1.702  0.2889 -0.1216 -0.1852
   79MOL    C2829824   1.062   5.759   1.727 -0.2119  0.0485  0.2446
   79MOL    C2929825   1.025   6.060   1.559  0.4540  0.4370  0.1313
   79MOL    H3029826   0.990   5.999   1.753  0.6507 -2.3976  0.0574
   79MOL    H3129827   1.311   5.924   1.583 -0.2602  0.9330  2.3746
   79MOL    H3229828   1.391   5.686   1.541  0.5156  1.2570 -0.1847
   79MOL    H3329829   1.269   5.408   1.705 -0.8881  0.3203  0.4484
   79MOL    H3429830   1.154   5.406   1.587 -0.2932  0.6195  1.3434
   79MOL    H3529831   1.337   5.454   1.547 -0.4517  0.7850 -1.5415
   79MOL    H3629832   1.039   5.548   1.739 -0.2408  1.0237  1.5713
   79MOL    H3729833   0.975   5.782   1.787 -0.5907 -0.9985  0.0921
   79MOL    H3829834   1.105   6.062   1.485  0.9652 -1.3890  0.6130
   79MOL    H3929835   0.986   6.162   1.568  0.0853  0.2939  0.1359
   79MOL    C4029836   0.924   5.968   1.487 -1.3971 -0.6049 -0.2567
   79MOL    C4129837   0.905   6.021   1.349  0.6440  0.0393  0.6279
   79MOL    C4229838   0.810   6.116   1.315  0.3288  0.0466  0.1917
   79MOL    C4329839   0.801   6.165   1.184 -0.4858 -0.4212  0.2416
   79MOL    C4429840   0.888   6.117   1.085  0.3131  0.0453  0.3332
   79MOL    C4529841   0.889   6.181   0.943  0.6620 -0.1882 -0.5363
   79MOL    C4629842   0.981   6.017   1.116  0.4329 -0.1390 -0.2749
   79MOL    C4729843   0.986   5.966   1.248  0.0227 -0.5510  0.7077
   79MOL    C4829844   0.795   5.945   1.567 -0.1835 -0.2469  0.0235
   79MOL    H4929845   0.969   5.870   1.473 -0.3972 -0.4392  1.5850
   79MOL    H5029846   0.758   6.165   1.396  1.3465  0.6217  0.5148
   79MOL    H5129847   0.724   6.238   1.164 -0.0799 -0.0156  0.1504
   79MOL    H5229848   0.986   6.191   0.895  0.6388  1.2621 -0.3216
   79MOL    H5329849   0.809   6.139   0.882 -1.0779 -0.1206  1.5891
   79MOL    H5429850   0.851   6.281   0.964  2.4259  0.5622 -0.8726
   79MOL    H5529851   1.045   5.971   1.042  0.1570 -1.8780  0.5472
   79MOL    H5629852   1.053   5.882   1.264  1.4108  0.5567  0.8307
   79MOL    H5729853   0.729   6.031   1.572 -0.8588 -0.7846  0.3614
   79MOL    H5829854   0.813   5.912   1.670  2.0328 -1.6973 -0.7883
   79MOL    C5929855   0.702   5.836   1.509 -0.3075 -0.3440 -0.2770
   79MOL    C6029856   0.576   5.823   1.597 -0.4457  0.1609  0.3050
   79MOL    C6129857   0.573   5.749   1.721 -0.0695 -0.1657 -0.2317
   79MOL    C6229858   0.469   5.764   1.808 -0.0924 -0.6649 -0.1991
   79MOL    C6329859   0.349   5.838   1.768 -0.7149  1.1147  0.6892
   79MOL    C6429860   0.227   5.831   1.848 -0.2534 -1.0493  0.1474
   79MOL    C6529861   0.349   5.901   1.647  0.6811  0.0681  0.4335
   79MOL    C6629862   0.461   5.899   1.561 -0.1890  0.9561  0.3946
   79MOL    C6729863   0.770   5.698   1.480  0.0744 -0.6667  0.7833
   79MOL    H6829864   0.675   5.880   1.413  2.6070  2.0396 -0.0889
   79MOL    H6929865   0.662   5.699   1.755 -0.3374 -1.1266 -0.9197
   79MOL    H7029866   0.481   5.720   1.905  0.2179 -0.6242 -0.2177
   79MOL    H7129867   0.201   5.931   1.882  1.1665 -0.6729  0.1642
   79MOL    H7229868   0.152   5.770   1.798 -2.1920 -0.1803  1.9206
   79MOL    H7329869   0.252   5.776   1.939 -2.3763 -4.6358 -1.3503
   79MOL    H7429870   0.258   5.951   1.617 -0.2738 -0.8064  1.8090
   79MOL    H7529871   0.460   5.956   1.470 -0.4127 -0.4118 -0.4794
   79MOL    H7629872   0.845   5.692   1.559  0.9874  3.0258  0.3208
   79MOL    H7729873   0.834   5.715   1.393  0.3751  1.7468  1.4293
   79MOL    C7829874   0.697   5.563   1.451 -0.5243 -0.7653  0.0779
   79MOL    C7929875   0.797   5.445   1.460  0.4786 -0.4585 -0.1170
   79MOL    C8029876   0.758   5.334   1.543  0.0604  0.7267  0.2861
   79MOL    C8129877   0.849   5.226   1.559 -0.3320 -0.1437  0.3125
   79MOL    C8229878   0.974   5.222   1.492 -0.1343  0.2229  0.3363
   79MOL    C8329879   1.073   5.107   1.522  0.4471 -0.1239  0.3376
   79MOL    C8429880   1.006   5.334   1.411 -0.3263  0.1714 -0.3727
   79MOL    C8529881   0.916   5.443   1.392  0.2100  0.3760 -0.3680
   79MOL    C8629882   0.623   5.570   1.321 -0.0480 -0.2557  0.1664
   79MOL    H8729883   0.625   5.540   1.529  0.8300  0.0151  1.5791
   79MOL    H8829884   0.663   5.346   1.593  1.1007  1.1217  2.1938
   79MOL    H8929885   0.827   5.143   1.624 -0.8220  0.2868  0.6931
   79MOL    H9029886   1.030   5.013   1.487  0.6267  0.2360 -0.8637
   79MOL    H9129887   1.166   5.120   1.466 -0.0984  2.0500 -0.1189
   79MOL    H9229888   1.102   5.114   1.627  0.6510 -0.3773  0.2993
   79MOL    H9329889   1.102   5.344   1.361 -1.3741 -1.1897 -2.7615
   79MOL    H9429890   0.958   5.527   1.340  2.8629 -2.0726 -2.3570
   79MOL    H9529891   0.692   5.593   1.240 -1.2600 -2.0932 -1.4248
   79MOL    H9629892   0.557   5.656   1.327 -0.2287 -0.3463 -0.4497
   79MOL    C9729893   0.550   5.437   1.290 -0.2987 -0.1786  0.0811
   79MOL    C9829894   0.534   5.423   1.142 -0.0872 -0.5943  0.7961
   79MOL    C9929895   0.620   5.341   1.066 -0.0022 -0.0628 -0.1966
   79MOL   C10029896   0.603   5.333   0.927 -0.0986  0.3706 -0.3103
   79MOL   C10129897   0.505   5.413   0.863 -0.4819  0.5535  0.4568
   79MOL   C10229898   0.476   5.384   0.722  0.2152 -0.4608  0.4315
   79MOL   C10329899   0.431   5.500   0.939  0.3122 -0.7220  0.1234
   79MOL   C10429900   0.439   5.504   1.075  0.1083 -0.5212  0.5290
   79MOL   C10529901   0.408   5.436   1.359 -0.2732 -0.3672 -0.5363
   79MOL   H10629902   0.604   5.352   1.331 -1.2345 -0.3441  0.9862
   79MOL   H10729903   0.692   5.278   1.116 -1.2151 -1.3659 -0.0674
   79MOL   H10829904   0.653   5.255   0.872  1.1683  0.0264  1.2818
   79MOL   H10929905   0.379   5.335   0.712  0.3494 -0.9164  1.3281
   79MOL   H11029906   0.474   5.480   0.669  0.9481 -1.1307 -0.8366
   79MOL   H11129907   0.552   5.327   0.668  1.0698  0.8759  0.1839
   79MOL   H11229908   0.365   5.571   0.892 -2.7171 -2.7698  1.1172
   79MOL   H11329909   0.386   5.582   1.126  0.1505  0.5335 -1.0270
   79MOL   H11429910   0.366   5.535   1.341 -0.5959 -0.0485  1.7983
   79MOL   H11529911   0.438   5.439   1.463  0.9797 -0.7373 -0.8856
   79MOL   C11629912   0.301   5.324   1.317  0.0529 -0.3433  0.1023
   79MOL   C11729913   0.159   5.386   1.333 -0.6481  0.4776  0.3818
   79MOL   C11829914   0.051   5.344   1.253 -0.2223  0.2139  0.9184
   79MOL   C11929915   8.004   5.387   1.270  0.7077  0.7342 -0.3130
   79MOL   C12029916   7.965   5.464   1.378 -0.5235 -0.7113  0.3915
   79MOL   C12129917   7.823   5.499   1.403 -0.2670  0.0451  0.7045
   79MOL   C12229918   8.069   5.511   1.464 -0.6445  0.1632  0.8031
   79MOL   C12329919   0.124   5.480   1.434  0.9470 -0.5722 -0.4533
   79MOL   C12429920   0.326   5.187   1.397 -0.0835 -0.5005  0.2747
   79MOL   H12529921   0.310   5.300   1.211 -2.7008 -1.5534  0.0866
   79MOL   H12629922   0.070   5.273   1.173  0.7792  1.7885 -0.2819
   79MOL   H12729923   7.933   5.338   1.205 -0.4737  0.5188  1.1350
   79MOL   H12829924   7.777   5.401   1.403 -0.8794  0.3275  0.2555
   79MOL   H12929925   7.797   5.552   1.494  0.2971  1.7151 -0.0644
   79MOL   H13029926   7.776   5.540   1.313 -2.6702  0.9905  2.3543
   79MOL   H13129927   8.042   5.574   1.547 -0.7010  2.2275 -0.7328
   79MOL   H13229928   0.200   5.507   1.506 -2.2051  1.1338  2.3804
   79MOL   H13329929   0.433   5.167   1.398  0.4591  2.1377  0.2886
   79MOL   H13429930   0.291   5.114   1.325 -2.9820 -0.6089  1.7316
   79MOL   C13529931   0.248   5.165   1.528 -0.7757 -1.1273  0.0432
   79MOL   C13629932   0.336   5.224   1.642 -0.3315 -0.1864  0.1058
   79MOL   C13729933   0.459   5.172   1.679  0.4163 -0.4258 -0.3812
   79MOL   C13829934   0.529   5.226   1.791 -0.3591  0.6928  0.4543
   79MOL   C13929935   0.479   5.334   1.860 -0.6609  0.2146  0.3703
   79MOL   C14029936   0.557   5.382   1.984  0.2580  1.1989  0.6053
   79MOL   C14129937   0.351   5.390   1.830 -0.5722  0.0596  0.0351
   79MOL   C14229938   0.280   5.330   1.723  0.0140  0.0381  0.0308
   79MOL   C14329939   0.231   5.004   1.547 -0.2163  0.3494  0.3783
   79MOL   H14429940   0.148   5.208   1.535  0.4508  1.7447  0.6127
   79MOL   H14529941   0.497   5.085   1.628 -2.1009 -1.2353 -0.9592
   79MOL   H14629942   0.630   5.189   1.805 -1.2650 -1.7193  0.8275
   79MOL   H14729943   0.606   5.475   1.956  1.2579 -0.1032 -2.1028
   79MOL   H14829944   0.488   5.400   2.067 -1.9620 -0.7184 -0.7316
   79MOL   H14929945   0.635   5.314   2.018 -0.1860  0.1756 -0.3574
   79MOL   H15029946   0.313   5.469   1.893  1.5011 -1.3479  3.1743
   79MOL   H15129947   0.179   5.361   1.704  0.0256 -0.7596 -1.4271
   79MOL   H15229948   0.323   4.972   1.596  1.5329  1.8567 -1.8250
   79MOL   H15329949   0.233   4.951   1.451 -1.0276  1.0963 -0.0584
   79MOL   C15429950   0.105   4.972   1.627  0.2756  0.3297 -0.3320
   79MOL   C15529951   0.139   4.909   1.759 -0.0163  0.0637  0.3157
   79MOL   C15629952   0.198   4.979   1.860  0.2046 -0.0468 -0.4532
   79MOL   C15729953   0.213   4.921   1.988 -0.1782  0.7445 -0.3948
   79MOL   C15829954   0.154   4.799   2.020  0.4359  0.2663 -0.1440
   79MOL   C15929955   0.148   4.743   2.160  0.2822  0.0405 -0.1735
   79MOL   C16029956   0.092   4.729   1.919 -0.8540  0.1634  0.3173
   79MOL   C16129957   0.096   4.775   1.793 -0.0181 -0.2934  0.2774
   79MOL   C16229958   0.008   4.901   1.534  0.8299 -0.2906 -0.9169
   79MOL   H16329959   0.054   5.062   1.660 -0.4594 -0.7822  1.6674
   79MOL   H16429960   0.230   5.080   1.836  2.1775 -0.2086  1.3902
   79MOL   H16529961   0.265   4.974   2.067 -2.4806  1.8616  0.4257
   79MOL   H16629962   0.050   4.700   2.178  0.4832 -0.6417 -0.6903
   79MOL   H16729963   0.226   4.667   2.177 -0.7868 -0.5273  2.3580
   79MOL   H16829964   0.163   4.814   2.241  0.2663 -1.0235  0.7833
   79MOL   H16929965   0.041   4.635   1.930  1.6453 -1.4199 -1.0819
   79MOL   H17029966   0.033   4.730   1.718  0.2550 -0.5508  0.2007
   79MOL   H17129967   0.042   4.798   1.523  0.1352 -0.4935 -1.1774
   79MOL   H17229968   0.028   4.942   1.435 -1.1216  1.3868 -0.6379
   79MOL   C17329969   7.941   4.914   1.578  0.1876 -0.1167 -0.4197
   79MOL   C17429970   7.888   4.812   1.683  0.7722 -0.8693 -0.4433
   79MOL   C17529971   7.851   4.679   1.647  0.5515  0.2950 -0.3605
   79MOL   C17629972   7.790   4.593   1.740  0.4391  0.6120  0.3913
   79MOL   C17729973   7.768   4.638   1.874  0.4551 -0.7738  0.2937
   79MOL   C17829974   7.700   4.547   1.971  0.0383 -0.4547  0.4120
   79MOL   C17929975   7.794   4.772   1.911 -0.5647  0.1040 -0.2338
   79MOL   C18029976   7.853   4.858   1.813  0.1314  0.6138  0.1287
   79MOL   C18129977   7.847   4.932   1.454 -0.3228  0.1979 -0.2681
   79MOL   H18229978   7.927   5.014   1.620 -1.6266 -0.0476 -1.1250
   79MOL   H18329979   7.853   4.649   1.543  2.0481  2.5532 -1.0267
   79MOL   H18429980   7.777   4.491   1.707  3.6701 -0.3500  1.8095
   79MOL   H18529981   7.647   4.465   1.922 -0.3398  0.9191 -1.5356
   79MOL   H18629982   7.763   4.496   2.043 -2.3893 -1.6395  1.7787
   79MOL   H18729983   7.626   4.605   2.027  1.7339  2.8430 -0.6265
   79MOL   H18829984   7.762   4.823   2.001  0.2548 -1.1864  0.8042
   79MOL   H18929985   7.854   4.963   1.838  0.1255  0.4598  0.7782
   79MOL   H19029986   7.858   4.846   1.389  1.4957 -0.4014  0.8134
   79MOL   H19129987   7.893   5.009   1.392  2.1367 -2.9154 -2.4430
   79MOL   C19229988   7.691   4.952   1.486 -0.2367  0.3267  0.7728
   79MOL   C19329989   7.615   4.822   1.489 -0.4767  0.1156 -0.3917
   79MOL   C19429990   7.610   4.737   1.376 -0.0010 -0.3314  0.3500
   79MOL   C19529991   7.553   4.612   1.383 -0.8586  0.7171  0.2213
   79MOL   C19629992   7.490   4.577   1.505 -0.2389 -0.3161 -0.1606
   79MOL   C19729993   7.425   4.445   1.524  0.1689 -0.1898  0.0967
   79MOL   C19829994   7.485   4.670   1.615  0.1397  0.7218  0.3321
   79MOL   C19929995   7.559   4.785   1.610 -0.4019  0.1363 -0.6682
   79MOL   C20029996   7.627   5.055   1.398  0.4722  0.1865  0.3162
   79MOL   H20129997   7.692   5.006   1.580  0.7196  1.1112  0.3215
   79MOL   H20229998   7.662   4.756   1.283 -1.0127 -0.6752 -0.2901
   79MOL   H20329999   7.565   4.554   1.292 -2.2505 -0.9346  1.0590
   79MOL   H20430000   7.473   4.403   1.613 -1.4634  2.2010  2.1504
   79MOL   H20530001   7.320   4.464   1.546  0.2701 -1.3494  1.7356
   79MOL   H20630002   7.421   4.375   1.440 -1.5966  3.3606 -2.9303
   79MOL   H20730003   7.428   4.632   1.698  1.0947 -0.6764  0.3618
   79MOL   H20830004   7.563   4.861   1.686 -0.3896 -0.9741  0.4678
   79MOL   H20930005   7.622   5.031   1.292  3.0651  1.3234 -0.1062
   79MOL   H21030006   7.689   5.144   1.406  0.1568  0.1960  3.0278
   79MOL   C21130007   7.494   5.110   1.460 -0.1104  0.1881 -0.1229
   79MOL   C21230008   7.412   5.180   1.357  0.0481 -0.1238  0.2858
   79MOL   C21330009   7.457   5.292   1.293 -0.2276 -0.3098 -0.0663
   79MOL   C21430010   7.365   5.375   1.216  0.5903 -0.1217 -0.4641
   79MOL   C21530011   7.242   5.326   1.178 -0.2519 -0.5089  0.5707
   79MOL   C21630012   7.158   5.413   1.086 -0.4258  0.0597 -0.3600
   79MOL   C21730013   7.209   5.195   1.218 -0.0131  0.3917  0.1778
   79MOL   C21830014   7.290   5.123   1.306 -0.1880  0.6881 -0.5537
   79MOL   C21930015   7.504   5.193   1.592 -0.2231  0.2571 -0.2839
   79MOL   H22030016   7.429   5.028   1.491 -1.3588  1.5831  1.0236
   79MOL   H22130017   7.557   5.318   1.321 -0.5521  2.1074 -1.0135
   79MOL   H22230018   7.400   5.470   1.178  0.2091 -0.9120 -2.8824
   79MOL   H22330019   7.168   5.520   1.105  1.4966  0.0916 -1.3811
   79MOL   H22430020   7.202   5.388   0.989 -1.9962  1.5217 -1.4727
   79MOL   H22530021   7.053   5.387   1.089 -1.5551  3.7379 -3.7021
   79MOL   H22630022   7.114   5.156   1.185  0.7446 -0.5377 -0.9571
   79MOL   H22730023   7.253   5.028   1.342  2.2350 -0.3565 -0.7639
   79MOL   H22830024   7.590   5.258   1.577  0.1392 -0.7880 -2.8921
   79MOL   H22930025   7.520   5.138   1.685  0.1340  1.4943  0.3981
   79MOL   C23030026   7.393   5.298   1.628  1.2606  0.3578 -0.4610
   79MOL   C23130027   7.437   5.374   1.754 -0.0087  0.7393  0.1239
   79MOL   C23230028   7.494   5.503   1.744 -0.1036 -0.3052 -1.2883
   79MOL   C23330029   7.534   5.576   1.860  0.1708 -0.9678  0.4938
   79MOL   C23430030   7.526   5.508   1.982 -0.6871  0.2083  0.2678
   79MOL   C23530031   7.578   5.574   2.103  0.2551  0.9098  0.2296
   79MOL   C23630032   7.477   5.374   1.989  0.5812  0.0226  0.0501
   79MOL   C23730033   7.422   5.314   1.877  0.0705 -0.5956  0.2298
   79MOL   C23830034   7.248   5.245   1.638 -0.1062 -0.6549  0.3207
   79MOL   H23930035   7.380   5.363   1.541  0.1175 -0.5003 -0.9522
   79MOL   H24030036   7.508   5.538   1.643  1.0658  0.8593 -0.7324
   79MOL   H24130037   7.572   5.677   1.861  0.6515 -1.1296 -0.4984
   79MOL   H24230038   7.665   5.514   2.130  0.3038  0.3425 -1.0977
   79MOL   H24330039   7.618   5.673   2.082 -0.0668  1.0158  0.1123
   79MOL   H24430040   7.510   5.584   2.188  1.0487  0.2328  0.9502
   79MOL   H24530041   7.460   5.325   2.084  0.0636  0.5261  0.2243
   79MOL   H24630042   7.373   5.218   1.888 -1.0052 -0.0420  0.3339
   79MOL   H24730043   7.241   5.177   1.722 -1.2490 -1.1910 -0.1920
   79MOL   H24830044   7.236   5.177   1.553  0.7224 -1.3057  0.7131
   79MOL   C24930045   7.138   5.353   1.668  0.3412  0.2540 -0.0167
   79MOL   C25030046   7.007   5.290   1.719  0.2724  0.0552  0.3542
   79MOL   C25130047   6.980   5.304   1.858 -0.2418 -0.3087  0.4564
   79MOL   C25230048   6.860   5.253   1.916 -0.1893  0.4780  0.4130
   79MOL   C25330049   6.784   5.166   1.838 -0.0163  0.4635 -0.2928
   79MOL   C25430050   6.672   5.085   1.906 -0.1384 -0.2383 -0.9476
   79MOL   C25530051   6.808   5.156   1.699  0.1938  0.3956  0.0762
   79MOL   C25630052   6.919   5.218   1.638  0.5075  0.8963  0.8979
   79MOL   C25730053   7.108   5.447   1.549 -0.1257  0.6977 -0.2113
   79MOL   H25830054   7.175   5.424   1.742  2.8251  0.2280 -1.1939
   79MOL   H25930055   7.054   5.356   1.918  0.0208 -0.0293 -0.1111
   79MOL   H26030056   6.839   5.259   2.022  1.9601 -2.5547  1.0898
   79MOL   H26130057   6.680   5.094   2.014  0.5209  2.7069 -1.2076
   79MOL   H26230058   6.583   5.139   1.875  1.4732  2.1217 -1.5574
   79MOL   H26330059   6.671   4.978   1.881 -1.5645 -0.0711 -1.6642
   79MOL   H26430060   6.749   5.093   1.634  1.8796  0.6417 -1.7322
   79MOL   H26530061   6.928   5.206   1.532  2.5501 -0.0798  1.1687
   79MOL   H26630062   7.060   5.377   1.480 -0.0369  0.0529  0.3742
   79MOL   H26730063   7.199   5.480   1.499  0.1786  0.3378  0.1013
   79MOL   C26830064   7.025   5.570   1.582  0.3332  0.3304 -0.7007
   79MOL   C26930065   6.952   5.621   1.459 -0.0115 -0.4875  0.4459
   79MOL   C27030066   7.022   5.698   1.362 -0.4837  0.2176  0.5874
   79MOL   C27130067   6.955   5.754   1.249 -0.0392 -0.3045  0.1906
   79MOL   C27230068   6.822   5.724   1.229  0.9368  0.2526 -0.1237
   79MOL   C27330069   6.749   5.773   1.102 -0.3492 -0.7045 -0.3876
   79MOL   C27430070   6.750   5.649   1.322 -0.3836 -0.1350  0.4412
   79MOL   C27530071   6.815   5.604   1.437  0.7559  0.2307 -0.8718
   79MOL   C27630072   7.104   5.683   1.659 -0.1803 -0.0183 -0.2742
   79MOL   H27730073   6.951   5.540   1.655  0.3934  0.2569 -0.6707
   79MOL   H27830074   7.121   5.738   1.377 -1.6998  3.8667 -0.6472
   79MOL   H27930075   7.016   5.817   1.186  0.7199 -1.6863 -0.4869
   79MOL   H28030076   6.721   5.690   1.037  1.3175 -0.2590 -1.7319
   79MOL   H28130077   6.655   5.817   1.135  0.5038 -0.4334  1.7451
   79MOL   H28230078   6.805   5.848   1.045 -1.4320 -0.4265 -1.0920
   79MOL   H28330079   6.644   5.642   1.304 -0.1810 -1.1264 -0.4488
   79MOL   H28430080   6.761   5.545   1.509  1.1372  0.4073 -0.4334
   79MOL   H28530081   7.180   5.726   1.594 -0.6257  2.0838  0.5388
   79MOL   H28630082   7.155   5.643   1.747 -4.3555 -1.7533  1.5051
   79MOL   C28730083   7.022   5.803   1.704  0.2708 -0.3089 -0.3426
   79MOL   C28830084   7.090   5.940   1.678  0.0738 -0.1744 -0.2247
   79MOL   C28930085   7.144   6.011   1.784 -0.0875 -0.7193  0.2409
   79MOL   C29030086   7.195   6.143   1.763  0.5695 -0.2494 -0.1796
   79MOL   C29130087   7.182   6.206   1.638  0.2586  0.2684 -0.2334
   79MOL   C29230088   7.233   6.347   1.629 -0.2461  0.2227 -0.1123
   79MOL   C29330089   7.135   6.127   1.529  0.7488  0.3641  0.0071
   79MOL   C29430090   7.094   5.998   1.548 -0.0247  0.6501 -0.7886
   79MOL   C29530091   6.981   5.781   1.854  0.3765  0.2201  0.0008
   79MOL   H29630092   6.933   5.798   1.640  0.4454  4.0393 -1.0623
   79MOL   H29730093   7.136   5.982   1.887  2.5428 -1.0827  0.3865
   79MOL   H29830094   7.244   6.189   1.848  2.2953 -2.2498 -0.0392
   79MOL   H29930095   7.151   6.416   1.649  0.2368  0.7883 -0.0583
   79MOL   H30030096   7.320   6.355   1.695 -1.0677  0.9316  0.9051
   79MOL   H30130097   7.284   6.355   1.533  0.1633 -1.7404 -0.0784
   79MOL   H30230098   7.127   6.170   1.430 -2.2705  0.0549  0.0817
   79MOL   H30330099   7.069   5.933   1.465 -1.7453  0.1261  0.1264
   79MOL   H30430100   7.073   5.777   1.913 -1.3921  1.7577  2.9997
   79MOL   H30530101   6.932   5.685   1.867  1.0917  0.0704  1.8002
   79MOL   C30630102   6.886   5.894   1.908  0.0301  0.6704  0.7198
   79MOL   C30730103   6.908   5.944   2.052 -0.2974 -0.3928  0.6253
   79MOL   C30830104   6.936   6.081   2.080  0.1970 -0.2076 -0.6030
   79MOL   C30930105   6.960   6.128   2.211 -0.4547 -0.4262  0.4047
   79MOL   C31030106   6.941   6.038   2.314 -0.1826 -0.3922 -0.4493
   79MOL   C31130107   6.966   6.080   2.452 -0.8164 -0.4656 -0.0217
   79MOL   C31230108   6.918   5.901   2.288 -0.2559 -0.8472 -0.1829
   79MOL   C31330109   6.906   5.851   2.158 -0.7075 -0.3531  0.2536
   79MOL   C31430110   6.744   5.838   1.894  0.1462  0.1286 -0.2690
   79MOL   H31530111   6.890   5.981   1.842 -0.5356 -0.9423 -1.4916
   79MOL   H31630112   6.940   6.152   1.999  2.3852  0.7146  0.2897
   79MOL   H31730113   6.995   6.229   2.228  2.1930 -1.5354  1.9430
   79MOL   H31830114   7.053   6.145   2.451 -1.0699 -0.1316 -0.2980
   79MOL   H31930115   6.887   6.142   2.493  0.4446  0.9548  0.2741
   79MOL   H32030116   6.989   6.002   2.525  2.4682 -0.5335 -1.0397
   79MOL   H32130117   6.921   5.828   2.366 -0.6711 -1.7936 -1.0417
   79MOL   H32230118   6.890   5.745   2.144 -1.9969 -0.1617  0.2386
   79MOL   H32330119   6.729   5.758   1.966  1.6323  0.5618  0.5395
   79MOL   H32430120   6.744   5.787   1.798 -0.1444  0.7348 -0.5962
   79MOL   C32530121   6.623   5.938   1.904  0.6559  0.0110 -0.4257
   79MOL   C32630122   6.523   5.870   2.005 -0.3822  0.3800  0.8149
   79MOL   C32730123   6.412   5.801   1.949  0.3387 -0.6790  0.0819
   79MOL   C32830124   6.320   5.739   2.033  0.3929 -0.1908 -0.4857
   79MOL   C32930125   6.337   5.733   2.173 -0.5604 -0.6931 -0.7562
   79MOL   C33030126   6.256   5.645   2.271 -0.0804  0.3004 -0.3902
   79MOL   C33130127   6.451   5.798   2.225  0.1658 -0.3675  0.2229
   79MOL   C33230128   6.541   5.869   2.145 -0.2858 -0.1754 -0.9413
   79MOL   C33330129   6.573   5.975   1.765  0.0868  0.0519 -0.4835
   79MOL   H33430130   6.658   6.029   1.953  0.4851 -0.5589  0.7877
   79MOL   H33530131   6.390   5.792   1.844  1.6839  0.1261 -0.2831
   79MOL   H33630132   6.236   5.692   1.984 -2.3412  2.3605  1.5633
   79MOL   H33730133   6.328   5.600   2.339 -0.5538 -2.7015 -1.7562
   79MOL   H33830134   6.196   5.708   2.335  0.7204 -2.0116  2.7482
   79MOL   H33930135   6.201   5.562   2.226  1.1878 -1.1437  0.6744
   79MOL   H34030136   6.469   5.789   2.331  0.2264  0.8815  0.3204
   79MOL   H34130137   6.622   5.922   2.194 -0.6093 -0.3020 -0.2748
   79MOL   H34230138   6.473   6.015   1.776 -0.2706 -1.0991  0.5523
   79MOL   H34330139   6.552   5.881   1.714  0.2660  0.1749 -0.7843
   79MOL   C34430140   6.658   6.076   1.679 -0.5417  0.2428  0.4204
   79MOL   C34530141   6.681   6.213   1.744  0.2162 -0.0197 -0.4383
   79MOL   C34630142   6.811   6.258   1.733  0.0946 -0.4393 -0.1616
   79MOL   C34730143   6.844   6.383   1.790  0.2703  0.5237  0.0845
   79MOL   C34830144   6.745   6.456   1.852  0.3530 -0.2072 -0.1820
   79MOL   C34930145   6.782   6.593   1.911  0.2443 -0.2780  0.5911
   79MOL   C35030146   6.614   6.408   1.864 -0.1353  0.0396  0.3147
   79MOL   C35130147   6.583   6.284   1.812 -0.4323 -0.0267 -0.5273
   79MOL   C35230148   6.585   6.097   1.542 -0.2962 -0.2561  0.4756
   79MOL   H35330149   6.754   6.027   1.663  0.8651  3.0039  0.1247
   79MOL   H35430150   6.889   6.205   1.680 -1.0319 -0.7550 -1.5194
   79MOL   H35530151   6.941   6.428   1.773  0.6633 -0.3533 -0.0443
   79MOL   H35630152   6.774   6.596   2.020 -1.4302  2.0708  0.4300
   79MOL   H35730153   6.888   6.616   1.902  0.1694 -0.4663 -0.8629
   79MOL   H35830154   6.723   6.670   1.862  1.5292  0.7589  0.6663
   79MOL   H35930155   6.536   6.463   1.916 -0.5629  0.2712 -0.5523
   79MOL   H36030156   6.480   6.252   1.808 -0.3383 -0.4975  0.6689
   79MOL   H36130157   6.490   6.142   1.573 -1.4334 -0.8192 -2.0698
   79MOL   H36230158   6.570   5.999   1.497 -2.5276  0.4971 -0.5039
   79MOL   C36330159   6.649   6.184   1.433 -0.2157 -0.7071 -0.7117
   79MOL   C36430160   6.549   6.246   1.345  0.1646  1.1740  0.6298
   79MOL   C36530161   6.528   6.383   1.337 -0.4974 -0.0996 -0.0637
   79MOL   C36630162   6.437   6.433   1.244  0.2471 -0.3688 -0.6941
   79MOL   C36730163   6.346   6.346   1.171 -0.1861  0.3875 -0.2045
   79MOL   C36830164   6.228   6.402   1.091 -0.3595  0.0757  0.7454
   79MOL   C36930165   6.372   6.205   1.174  0.5613  0.5319 -0.1203
   79MOL   C37030166   6.471   6.160   1.259 -0.1384 -0.1708  0.5757
   79MOL   C37130167   6.758   6.117   1.347 -0.5319 -0.3567 -0.6025
   79MOL   H37230168   6.700   6.263   1.488  0.0072 -0.7039 -0.9197
   79MOL   H37330169   6.585   6.451   1.399 -0.2317  0.1582 -0.5915
   79MOL   H37430170   6.421   6.540   1.242 -1.7026 -0.5675  1.5325
   79MOL   H37530171   6.198   6.329   1.017  0.9362  1.5646 -1.3322
   79MOL   H37630172   6.149   6.428   1.162  0.0917  0.4691  1.1105
   79MOL   H37730173   6.269   6.492   1.045  2.0922 -0.5910  1.5295
   79MOL   H37830174   6.310   6.133   1.123  0.8344  2.0623 -2.7045
   79MOL   H37930175   6.490   6.054   1.269  0.4031  0.1171  2.8504
   79MOL   H38030176   6.823   6.193   1.304 -0.3062 -0.3415 -0.2384
   79MOL   H38130177   6.731   6.058   1.260 -0.6174 -0.8391 -0.2506
   79MOL   H38230178   6.830   6.069   1.414 -0.6239  1.2222  0.6474
   80MOL     C130179   4.047   3.525   3.025  0.0357  0.4365  0.6606
   80MOL     C230180   4.049   3.499   3.177  0.8413  0.1409  0.1809
   80MOL     C330181   4.114   3.380   3.227 -0.4142 -0.0563  0.5682
   80MOL     C430182   4.118   3.352   3.364  0.5015  0.5372 -0.2623
   80MOL     C530183   4.040   3.437   3.449  0.6017  0.1557  0.3478
   80MOL     C630184   4.013   3.385   3.587 -0.4062  0.2048 -0.0003
   80MOL     C730185   3.975   3.554   3.405  0.5984 -0.1618 -0.1763
   80MOL     C830186   3.983   3.588   3.267  0.2096 -0.6785  0.2800
   80MOL     C930187   4.160   3.619   2.981 -0.1079 -0.4314 -0.2585
   80MOL    H1030188   4.060   3.434   2.966  0.8425  2.4237 -2.3674
   80MOL    H1130189   4.176   3.320   3.162 -1.1055 -0.0918 -0.0512
   80MOL    H1230190   4.161   3.263   3.407 -1.5061  0.5187  1.8149
   80MOL    H1330191   4.062   3.446   3.662 -0.0708 -1.5810  1.2567
   80MOL    H1430192   3.905   3.381   3.603 -0.4875 -0.2640 -0.6451
   80MOL    H1530193   4.051   3.284   3.597 -1.5843 -0.1039  1.5425
   80MOL    H1630194   3.908   3.613   3.465  0.8780  0.8729 -0.8570
   80MOL    H1730195   3.938   3.676   3.222 -1.1824 -2.7679 -2.6024
   80MOL    H1830196   4.250   3.582   3.030  0.4969  0.6401 -0.5296
   80MOL    H1930197   4.126   3.709   3.033 -1.4706 -0.3085 -1.3310
   80MOL    H2030198   3.950   3.559   2.988 -1.1499 -2.8286  0.6448
   80MOL    C2130199   4.163   3.651   2.831  0.1983 -1.3709 -0.0602
   80MOL    C2230200   4.032   3.687   2.763  0.6126 -0.3342  0.7795
   80MOL    C2330201   3.944   3.584   2.716 -0.0754 -0.2435 -0.3391
   80MOL    C2430202   3.821   3.623   2.654  0.5451  0.0816 -0.2424
   80MOL    C2530203   3.785   3.756   2.638  0.1261 -0.0265 -0.9105
   80MOL    C2630204   3.655   3.792   2.574 -0.3279  0.2050 -1.0904
   80MOL    C2730205   3.870   3.855   2.686 -0.4795  0.4003  0.6218
   80MOL    C2830206   3.990   3.818   2.748 -0.1325 -0.2547 -0.1179
   80MOL    C2930207   4.251   3.544   2.758  0.1132 -0.6751 -0.1432
   80MOL    H3030208   4.219   3.744   2.830 -0.5412 -0.9244  0.1420
   80MOL    H3130209   3.973   3.481   2.732  1.5905  0.5255  1.7048
   80MOL    H3230210   3.763   3.540   2.615  2.1867  0.0288 -2.7475
   80MOL    H3330211   3.616   3.706   2.519  1.0202 -0.9238 -0.3197
   80MOL    H3430212   3.568   3.813   2.635  0.2157 -1.5879  0.3498
   80MOL    H3530213   3.674   3.872   2.502 -0.0458  0.3490 -0.8563
   80MOL    H3630214   3.834   3.954   2.662 -2.5300 -0.7057 -1.0043
   80MOL    H3730215   4.060   3.898   2.767  0.0958 -0.2917 -0.8075
   80MOL    H3830216   4.200   3.449   2.769 -1.8829  0.3583 -0.1593
   80MOL    H3930217   4.348   3.541   2.808  0.2358 -1.9345 -0.4408
   80MOL    C4030218   4.263   3.570   2.602 -0.3583 -0.1087 -0.0059
   80MOL    C4130219   4.349   3.461   2.532 -0.0509 -0.0634  0.1681
   80MOL    C4230220   4.491   3.447   2.548  0.7837  0.3467  0.3038
   80MOL    C4330221   4.564   3.345   2.479 -0.6451  0.1443  0.4690
   80MOL    C4430222   4.498   3.258   2.394  0.2427  0.4084 -0.7602
   80MOL    C4530223   4.568   3.158   2.310 -0.3047  0.1956 -0.3774
   80MOL    C4630224   4.358   3.268   2.373  0.0782  0.2818 -0.0551
   80MOL    C4730225   4.286   3.366   2.444 -0.4108 -0.7447  0.0409
   80MOL    C4830226   4.306   3.716   2.573  0.3359 -1.0563  0.5157
   80MOL    H4930227   4.164   3.564   2.557 -0.1819 -2.0638 -0.1629
   80MOL    H5030228   4.551   3.508   2.614 -1.3788  3.1577 -0.2578
   80MOL    H5130229   4.671   3.333   2.487 -0.5794 -3.5668 -3.9554
   80MOL    H5230230   4.495   3.101   2.253 -0.8333 -2.0649  2.4577
   80MOL    H5330231   4.622   3.211   2.232 -1.7838  0.0153 -1.5502
   80MOL    H5430232   4.634   3.091   2.365  0.1377 -0.9315 -2.2122
   80MOL    H5530233   4.310   3.200   2.305 -1.1294 -0.0380  1.0922
   80MOL    H5630234   4.181   3.381   2.427 -0.6184 -1.9571  0.2507
   80MOL    H5730235   4.397   3.731   2.631  3.3339 -1.1347 -3.9213
   80MOL    H5830236   4.226   3.777   2.615 -1.1718 -0.7701 -2.6170
   80MOL    C5930237   4.332   3.751   2.419 -0.1438  0.2185  0.7766
   80MOL    C6030238   4.377   3.900   2.400  0.4587 -0.2180 -0.1169
   80MOL    C6130239   4.514   3.931   2.380  0.4714  0.4370  0.1062
   80MOL    C6230240   4.560   4.065   2.353  0.9126  0.1566 -0.3175
   80MOL    C6330241   4.471   4.175   2.378 -0.4881 -0.1298  0.0017
   80MOL    C6430242   4.528   4.321   2.386 -0.2527  0.1498  0.0354
   80MOL    C6530243   4.334   4.138   2.399  0.1526 -0.0996  0.2305
   80MOL    C6630244   4.285   4.008   2.403 -0.1615  0.1062 -0.0924
   80MOL    C6730245   4.206   3.721   2.331 -0.1926 -0.1312 -0.1728
   80MOL    H6830246   4.405   3.675   2.392  0.4823  1.0172  0.1834
   80MOL    H6930247   4.583   3.848   2.377 -0.5345 -0.4759  1.3739
   80MOL    H7030248   4.666   4.083   2.342  1.3883 -3.2051 -1.6346
   80MOL    H7130249   4.548   4.374   2.293  0.0878 -0.5337 -0.2827
   80MOL    H7230250   4.463   4.387   2.443 -1.8184  1.1030 -2.7623
   80MOL    H7330251   4.626   4.309   2.432 -0.5084 -1.2927  0.2369
   80MOL    H7430252   4.252   4.208   2.401  1.0819  1.0001  1.6305
   80MOL    H7530253   4.179   3.993   2.420 -0.5726  2.6665 -0.1569
   80MOL    H7630254   4.123   3.783   2.365  0.4696 -0.1241  1.4858
   80MOL    H7730255   4.178   3.617   2.349  0.3002 -0.0250  1.2811
   80MOL    C7830256   4.227   3.725   2.178  0.0764  0.3703  0.1171
   80MOL    C7930257   4.096   3.707   2.100  0.3928  0.1672  0.3449
   80MOL    C8030258   4.035   3.820   2.037  0.2379 -0.1196 -0.2652
   80MOL    C8130259   3.927   3.802   1.944 -0.3485 -0.6752  0.5778
   80MOL    C8230260   3.879   3.674   1.920  0.4616  0.1033 -0.2320
   80MOL    C8330261   3.759   3.647   1.830 -0.5513 -0.0091  0.1646
   80MOL    C8430262   3.936   3.563   1.986 -0.2039 -0.0715 -0.1032
   80MOL    C8530263   4.042   3.584   2.069  0.2368 -1.2259  0.0219
   80MOL    C8630264   4.339   3.624   2.138 -0.7045  0.4488  0.1781
   80MOL    H8730265   4.263   3.825   2.156 -0.0467  0.1556 -1.1385
   80MOL    H8830266   4.085   3.913   2.061 -3.6132  1.5121  1.7359
   80MOL    H8930267   3.884   3.892   1.904 -2.2915 -1.2016  1.4460
   80MOL    H9030268   3.672   3.711   1.848  0.2223  1.5656 -1.4947
   80MOL    H9130269   3.773   3.666   1.724 -2.1422  0.1500 -0.0326
   80MOL    H9230270   3.722   3.546   1.844 -1.0078 -0.1249 -1.7266
   80MOL    H9330271   3.898   3.465   1.961 -1.8685  0.8043 -1.0965
   80MOL    H9430272   4.083   3.497   2.117  0.0520 -0.7436  1.0867
   80MOL    H9530273   4.314   3.521   2.164  1.3494 -0.3386 -0.8565
   80MOL    H9630274   4.427   3.650   2.196 -0.1783 -1.6620  0.3443
   80MOL    C9730275   4.389   3.636   1.987 -0.3624  0.1841  0.3707
   80MOL    C9830276   4.440   3.506   1.929  0.2730  0.5952 -0.0267
   80MOL    C9930277   4.380   3.460   1.811  0.3684 -0.2380  0.1954
   80MOL   C10030278   4.428   3.345   1.745 -0.4005 -1.1294  0.4508
   80MOL   C10130279   4.520   3.259   1.816  0.3499  0.5488 -0.5803
   80MOL   C10230280   4.566   3.129   1.760 -0.4356  0.5894  0.0351
   80MOL   C10330281   4.584   3.310   1.928  0.1747 -0.2898 -0.1240
   80MOL   C10430282   4.537   3.429   1.988 -0.6070 -0.8371  0.5715
   80MOL   C10530283   4.488   3.750   1.971 -0.5393  0.6159  0.7188
   80MOL   H10630284   4.296   3.652   1.932 -0.9511  0.9577  1.5749
   80MOL   H10730285   4.300   3.514   1.763 -0.4709 -0.1156  1.6979
   80MOL   H10830286   4.384   3.300   1.658 -1.8804  0.9207  0.0814
   80MOL   H10930287   4.473   3.099   1.713  0.3446 -2.1758  0.1188
   80MOL   H11030288   4.640   3.148   1.682  1.8902 -0.0066  2.0215
   80MOL   H11130289   4.592   3.052   1.833  1.4667 -0.4645 -1.6918
   80MOL   H11230290   4.664   3.256   1.976  0.9776  2.8256  2.2219
   80MOL   H11330291   4.570   3.462   2.086  0.7089  0.3050 -0.2346
   80MOL   H11430292   4.579   3.698   1.998  0.1792  2.2318  1.5071
   80MOL   H11530293   4.483   3.829   2.047 -0.3452  0.4004  0.9570
   80MOL   C11630294   4.506   3.801   1.828  0.7314  0.3110 -0.4704
   80MOL   C11730295   4.653   3.822   1.795  0.2182 -0.4179  0.2689
   80MOL   C11830296   4.719   3.940   1.832  0.1169 -0.1263  1.0483
   80MOL   C11930297   4.858   3.957   1.804 -0.8697 -0.5161  0.1474
   80MOL   C12030298   4.931   3.857   1.735  0.4114 -0.0665  0.7468
   80MOL   C12130299   5.083   3.871   1.704  0.2148  0.0377 -0.1782
   80MOL   C12230300   4.857   3.740   1.701  0.1186 -0.0243  0.1241
   80MOL   C12330301   4.724   3.717   1.734  0.5063  0.2015 -0.9341
   80MOL   C12430302   4.420   3.931   1.807 -0.6411 -0.7749 -0.0675
   80MOL   H12530303   4.467   3.721   1.765  1.0103 -0.1770 -0.0192
   80MOL   H12630304   4.662   4.020   1.877 -1.6441  0.0768 -1.4568
   80MOL   H12730305   4.912   4.046   1.835 -1.3947 -0.7768  1.8758
   80MOL   H12830306   5.102   3.908   1.603  0.2830  0.2421 -0.0911
   80MOL   H12930307   5.132   3.940   1.773 -1.2790  2.5173 -1.5088
   80MOL   H13030308   5.120   3.771   1.725 -0.2414 -0.3207 -1.0477
   80MOL   H13130309   4.900   3.654   1.653  1.9609  1.4797 -1.0217
   80MOL   H13230310   4.688   3.617   1.721 -0.1711  0.5061 -1.4123
   80MOL   H13330311   4.472   3.983   1.726 -2.9740  0.7094 -0.6312
   80MOL   H13430312   4.443   3.994   1.893  0.2010 -1.2603  0.0765
   80MOL   C13530313   4.275   3.911   1.765  0.3263  0.0103  0.1902
   80MOL   C13630314   4.262   3.824   1.644  0.3085 -0.1877  0.0702
   80MOL   C13730315   4.341   3.828   1.525  0.6689  0.6711  0.2663
   80MOL   C13830316   4.312   3.738   1.422  0.3213  0.0158  0.2344
   80MOL   C13930317   4.219   3.633   1.438  0.9159 -0.0985 -0.3193
   80MOL   C14030318   4.201   3.520   1.344 -0.2462 -0.6943  0.0135
   80MOL   C14130319   4.135   3.633   1.551 -0.1361 -0.6751 -1.1264
   80MOL   C14230320   4.152   3.736   1.650 -0.4106  0.7761 -0.1957
   80MOL   C14330321   4.191   4.043   1.776 -0.3729 -0.0621 -0.2273
   80MOL   H14430322   4.226   3.857   1.845 -0.7688  1.1910  0.3376
   80MOL   H14530323   4.412   3.908   1.507 -0.0524  1.1312 -0.6195
   80MOL   H14630324   4.360   3.742   1.325 -0.4742  1.6225 -0.1137
   80MOL   H14730325   4.146   3.444   1.399 -0.6769 -0.4993 -0.1483
   80MOL   H14830326   4.144   3.558   1.259  0.3739  4.2399  1.6455
   80MOL   H14930327   4.301   3.483   1.322  0.1422  0.1158  0.4035
   80MOL   H15030328   4.048   3.568   1.552 -0.4041 -0.3137 -1.0671
   80MOL   H15130329   4.078   3.727   1.728  1.1716 -2.1146  1.0553
   80MOL   H15230330   4.212   4.083   1.875  0.1905 -2.7812  0.8207
   80MOL   H15330331   4.085   4.021   1.776  0.0740 -2.5003  1.4583
   80MOL   C15430332   4.195   4.142   1.660 -0.1542  0.6184  0.1728
   80MOL   C15530333   4.336   4.185   1.630  0.5064 -0.3503 -0.1617
   80MOL   C15630334   4.410   4.261   1.721  0.6584 -0.2563  0.7177
   80MOL   C15730335   4.535   4.317   1.699 -0.5230 -0.0517  0.1677
   80MOL   C15830336   4.599   4.285   1.577 -0.6778 -0.4201 -0.6762
   80MOL   C15930337   4.751   4.312   1.580  0.8437  0.2031  0.2606
   80MOL   C16030338   4.531   4.213   1.478 -0.1557 -0.4232  0.0542
   80MOL   C16130339   4.396   4.161   1.502  0.2961 -0.4349  0.3203
   80MOL   C16230340   4.106   4.268   1.698  0.0162 -1.2028 -0.6305
   80MOL   H16330341   4.162   4.096   1.566 -0.2877  1.5059 -0.2185
   80MOL   H16430342   4.361   4.292   1.812  0.2024 -0.5549  0.5724
   80MOL   H16530343   4.590   4.367   1.777  1.1789 -0.1417 -0.9449
   80MOL   H16630344   4.773   4.418   1.581 -1.4576  0.7280 -1.4497
   80MOL   H16730345   4.806   4.273   1.666 -0.3160 -0.5740  0.6635
   80MOL   H16830346   4.808   4.273   1.496 -0.1685  0.6996 -0.6667
   80MOL   H16930347   4.585   4.176   1.393  0.0419  0.0020 -0.0088
   80MOL   H17030348   4.338   4.103   1.431 -1.2681  0.4223  0.8670
   80MOL   H17130349   4.153   4.361   1.668 -1.8800  0.2705  0.8073
   80MOL   H17230350   4.100   4.268   1.807 -0.8857  0.0198 -0.6604
   80MOL   C17330351   3.960   4.271   1.640 -0.6755 -0.4850  0.9095
   80MOL   C17430352   3.944   4.244   1.482  0.0385 -0.9830 -0.3974
   80MOL   C17530353   3.820   4.199   1.431  0.1741  0.1802  0.0914
   80MOL   C17630354   3.809   4.179   1.291  0.2944 -0.3795 -0.1451
   80MOL   C17730355   3.932   4.168   1.218 -0.3344 -0.1520 -0.4248
   80MOL   C17830356   3.929   4.106   1.079 -0.1455  0.0605 -0.0066
   80MOL   C17930357   4.053   4.216   1.263 -0.2348 -0.3356  0.5048
   80MOL   C18030358   4.054   4.267   1.397  0.4000  0.0184 -0.0623
   80MOL   C18130359   3.878   4.395   1.684  0.8708 -0.1256  0.0217
   80MOL   H18230360   3.918   4.174   1.668  0.7507 -2.3521 -3.0174
   80MOL   H18330361   3.732   4.176   1.490 -0.5644 -1.5079 -1.6160
   80MOL   H18430362   3.717   4.142   1.248  0.7374 -1.1196 -0.4632
   80MOL   H18530363   3.844   4.153   1.030 -0.5070 -0.8820 -0.2916
   80MOL   H18630364   4.026   4.111   1.029 -1.0510  0.5279 -1.7726
   80MOL   H18730365   3.893   4.003   1.083  2.3113 -0.8494 -0.6650
   80MOL   H18830366   4.144   4.210   1.205 -0.6007  1.1452 -0.2285
   80MOL   H18930367   4.146   4.310   1.435 -0.8392  0.8378  2.0960
   80MOL   H19030368   3.790   4.406   1.621  0.6467  1.1636  0.5452
   80MOL   H19130369   3.936   4.482   1.655  1.8499 -0.5643  0.6424
   80MOL   C19230370   3.818   4.389   1.829 -0.1592 -0.4358 -0.0187
   80MOL   C19330371   3.731   4.268   1.862  0.2087 -0.7175 -0.6247
   80MOL   C19430372   3.602   4.264   1.813 -0.0696 -0.1198  0.1689
   80MOL   C19530373   3.511   4.152   1.841 -0.2129 -0.2850 -0.4760
   80MOL   C19630374   3.558   4.056   1.932  0.0600 -0.2060  0.1435
   80MOL   C19730375   3.469   3.946   1.977 -0.6874 -0.0675  0.0599
   80MOL   C19830376   3.695   4.059   1.976  1.4794 -0.4154 -0.7319
   80MOL   C19930377   3.782   4.163   1.943  0.1583 -0.1882 -0.5147
   80MOL   C20030378   3.746   4.516   1.873  0.3674  0.1567 -0.1320
   80MOL   H20130379   3.898   4.389   1.902 -1.2406  0.9681  1.1860
   80MOL   H20230380   3.572   4.338   1.741  1.8778 -0.1922 -0.7434
   80MOL   H20330381   3.411   4.155   1.799  0.4211 -0.2300 -1.9981
   80MOL   H20430382   3.480   3.863   1.907  1.4825  1.5630 -1.6043
   80MOL   H20530383   3.496   3.911   2.076  1.9605 -0.1115 -0.6451
   80MOL   H20630384   3.364   3.976   1.983 -0.6747  0.3491 -1.5350
   80MOL   H20730385   3.723   3.973   2.033  1.4423  0.5670  0.7958
   80MOL   H20830386   3.883   4.162   1.982  0.5379 -0.2219 -1.5001
   80MOL   H20930387   3.653   4.520   1.816  0.7589  0.8507 -0.7405
   80MOL   H21030388   3.798   4.601   1.827  0.1651 -0.0673 -0.7836
   80MOL   C21130389   3.720   4.540   2.026 -0.1001  0.4941 -0.5688
   80MOL   C21230390   3.579   4.595   2.040  0.8789  0.4486  0.5779
   80MOL   C21330391   3.546   4.732   2.026  0.1750  0.5991 -0.6394
   80MOL   C21430392   3.417   4.777   2.062  0.8451  0.0459  0.1447
   80MOL   C21530393   3.317   4.689   2.112 -0.0562  0.5624  0.3618
   80MOL   C21630394   3.181   4.740   2.154  0.3111  0.6441  0.6255
   80MOL   C21730395   3.356   4.553   2.116 -0.0839 -0.1581  0.2993
   80MOL   C21830396   3.475   4.506   2.076  0.1009  0.2261  0.6229
   80MOL   C21930397   3.824   4.634   2.090  0.5055  0.1099  0.4992
   80MOL   H22030398   3.721   4.446   2.081 -0.2711  1.3212  0.8796
   80MOL   H22130399   3.628   4.798   2.003  0.8930 -0.3170 -0.7267
   80MOL   H22230400   3.390   4.879   2.041  4.0466  0.7181 -0.9737
   80MOL   H22330401   3.188   4.848   2.146  1.4894  0.5573  0.4495
   80MOL   H22430402   3.095   4.710   2.095 -2.2569  2.7136  3.1811
   80MOL   H22530403   3.155   4.713   2.256  0.3367 -0.7592  0.2720
   80MOL   H22630404   3.282   4.485   2.156 -0.2334 -0.3862 -0.3742
   80MOL   H22730405   3.489   4.401   2.094 -0.1908  0.0475 -0.1861
   80MOL   H22830406   3.778   4.660   2.185 -1.3698 -3.3589  0.6041
   80MOL   H22930407   3.830   4.728   2.035 -0.3203  0.5278  1.1078
   80MOL   C23030408   3.967   4.582   2.116 -0.0004  0.0105  0.3628
   80MOL   C23130409   3.969   4.471   2.212 -0.1312 -0.3509  0.5351
   80MOL   C23230410   3.953   4.488   2.348 -0.9231 -0.3385 -0.0783
   80MOL   C23330411   3.961   4.380   2.439 -0.3474  0.0446  0.0916
   80MOL   C23430412   3.960   4.251   2.388 -0.1703  0.2316 -0.4853
   80MOL   C23530413   3.942   4.140   2.487 -0.4312  0.6474  0.0485
   80MOL   C23630414   3.993   4.228   2.252  0.0736 -0.1452 -0.8653
   80MOL   C23730415   4.004   4.341   2.164  0.5086 -0.6851  0.2754
   80MOL   C23830416   4.069   4.692   2.159  0.1339 -0.4356  0.4727
   80MOL   H23930417   4.009   4.557   2.018  0.0565  1.6930 -0.0734
   80MOL   H24030418   3.945   4.593   2.373  2.0394  0.3010 -1.5574
   80MOL   H24130419   3.952   4.387   2.547 -1.3461 -1.2598  0.0917
   80MOL   H24230420   4.039   4.134   2.535 -1.2560 -0.5189  1.6024
   80MOL   H24330421   3.867   4.156   2.564 -0.5061 -1.0836  0.3630
   80MOL   H24430422   3.918   4.043   2.444  1.1247  1.3693 -2.5899
   80MOL   H24530423   4.013   4.128   2.217 -1.7588 -1.3964  1.5591
   80MOL   H24630424   4.038   4.331   2.062  0.8507  0.9888  0.2053
   80MOL   H24730425   4.162   4.639   2.179  0.7080  0.7582  1.0065
   80MOL   H24830426   4.043   4.742   2.252  2.3057  1.0554  0.3274
   80MOL   C24930427   4.118   4.797   2.053  0.0021 -0.0352 -0.9125
   80MOL   C25030428   4.160   4.735   1.928 -0.6689 -0.5659  0.0460
   80MOL   C25130429   4.089   4.762   1.809  0.3710  1.0766  0.4401
   80MOL   C25230430   4.135   4.712   1.688 -0.3048 -0.1865 -0.2102
   80MOL   C25330431   4.252   4.630   1.691  0.0297 -0.2297 -0.2938
   80MOL   C25430432   4.296   4.574   1.557 -0.7413  0.1481 -0.0077
   80MOL   C25530433   4.322   4.598   1.811 -0.2881 -0.1762 -0.3349
   80MOL   C25630434   4.277   4.658   1.926  0.2687 -1.1298 -0.0691
   80MOL   C25730435   4.217   4.897   2.109  0.3519 -0.1741  0.6669
   80MOL   H25830436   4.029   4.857   2.033 -2.8471 -4.1547 -1.3254
   80MOL   H25930437   4.006   4.831   1.803 -0.4280  0.0205 -0.8502
   80MOL   H26030438   4.086   4.734   1.594  0.0037 -2.1475 -0.8741
   80MOL   H26130439   4.212   4.526   1.507  0.4719  0.3194 -2.2519
   80MOL   H26230440   4.343   4.647   1.492 -0.2247  0.9907  1.2800
   80MOL   H26330441   4.371   4.497   1.578 -0.6883 -0.4502 -2.3083
   80MOL   H26430442   4.404   4.527   1.805  1.1956  1.3823  0.8212
   80MOL   H26530443   4.340   4.638   2.011 -1.4598 -0.0790  1.4894
   80MOL   H26630444   4.316   4.886   2.065 -0.4030 -0.6417 -0.9551
   80MOL   H26730445   4.244   4.863   2.209 -0.5384 -1.0206  0.6301
   80MOL   C26830446   4.169   5.049   2.093  0.3559  0.6335 -0.0024
   80MOL   C26930447   4.136   5.084   1.948  0.1061 -0.6043  0.4182
   80MOL   C27030448   4.238   5.066   1.853  0.0638  0.2052 -0.2079
   80MOL   C27130449   4.215   5.098   1.720 -0.0051  0.3810 -0.0071
   80MOL   C27230450   4.098   5.163   1.684  0.3956 -0.3605  0.1106
   80MOL   C27330451   4.077   5.194   1.541  0.2284  0.2923  0.3729
   80MOL   C27430452   3.989   5.171   1.771 -0.1286  0.4656  0.6943
   80MOL   C27530453   4.015   5.138   1.910 -0.5547  0.1575 -0.1731
   80MOL   C27630454   4.268   5.146   2.156  0.2179 -0.1276 -0.0575
   80MOL   H27730455   4.075   5.054   2.148 -0.5648 -1.1497 -1.3502
   80MOL   H27830456   4.332   5.020   1.880  0.0753  1.2038  1.5604
   80MOL   H27930457   4.290   5.069   1.648 -0.0638 -0.3321  0.2101
   80MOL   H28030458   4.063   5.302   1.529  0.3679  0.1151 -1.4072
   80MOL   H28130459   4.163   5.171   1.479  0.3794  1.8641 -0.0408
   80MOL   H28230460   3.993   5.140   1.497 -0.9134  2.1595  0.2007
   80MOL   H28330461   3.892   5.203   1.735 -1.0148 -3.8305 -0.9767
   80MOL   H28430462   3.932   5.144   1.978  0.4045  1.6293  0.8934
   80MOL   H28530463   4.367   5.139   2.113  1.1619  0.1301  1.9993
   80MOL   H28630464   4.288   5.112   2.257  1.4089  1.0140  0.0988
   80MOL   C28730465   4.232   5.302   2.156 -0.4851 -0.7093 -0.2723
   80MOL   C28830466   4.340   5.368   2.236 -0.1148  0.0715  0.1001
   80MOL   C28930467   4.337   5.369   2.379  0.3270  0.4248 -0.7734
   80MOL   C29030468   4.454   5.414   2.440  0.0198  0.3550  0.0662
   80MOL   C29130469   4.575   5.452   2.374  1.1921  0.1932 -0.2731
   80MOL   C29230470   4.693   5.493   2.447  0.5153  0.6278  0.2618
   80MOL   C29330471   4.564   5.455   2.232 -0.3171 -0.5365 -0.2237
   80MOL   C29430472   4.450   5.413   2.165  0.1738 -0.4230 -0.2629
   80MOL   C29530473   4.092   5.333   2.211 -0.0703  1.0055  0.2441
   80MOL   H29630474   4.237   5.342   2.055  1.6194  1.0479  0.4897
   80MOL   H29730475   4.249   5.333   2.431  0.5170  1.2132  0.0818
   80MOL   H29830476   4.450   5.402   2.547  0.6115  1.3522  0.2058
   80MOL   H29930477   4.683   5.596   2.481 -1.7266  0.4580  0.1773
   80MOL   H30030478   4.714   5.439   2.539  2.7942  2.0084  0.5838
   80MOL   H30130479   4.782   5.481   2.385 -0.1487  0.0719 -0.5911
   80MOL   H30230480   4.649   5.498   2.180 -0.3871  1.5114  1.2815
   80MOL   H30330481   4.443   5.412   2.057  1.4250 -2.2559 -0.3573
   80MOL   H30430482   4.078   5.275   2.302 -1.7403 -1.6189 -1.6027
   80MOL   H30530483   4.031   5.273   2.142 -0.0474 -0.4593  1.4663
   80MOL   C30630484   4.035   5.475   2.240  0.6736 -0.1442 -0.2292
   80MOL   C30730485   3.882   5.468   2.251  0.3130  0.0727 -0.1507
   80MOL   C30830486   3.811   5.425   2.139  0.0323 -0.0653  0.7528
   80MOL   C30930487   3.672   5.409   2.149  0.4257  0.9042  0.9221
   80MOL   C31030488   3.601   5.449   2.260 -0.3240 -0.6765  0.0430
   80MOL   C31130489   3.445   5.448   2.253 -0.4192 -0.5159  0.0655
   80MOL   C31230490   3.669   5.505   2.368 -0.2192  0.1269 -0.0079
   80MOL   C31330491   3.811   5.513   2.365 -0.3517  0.3916 -0.4751
   80MOL   C31430492   4.075   5.583   2.134 -0.0273 -0.3512 -0.0098
   80MOL   H31530493   4.062   5.501   2.343 -1.4569  0.2287  0.2686
   80MOL   H31630494   3.852   5.402   2.042 -0.0826  0.3274  0.6080
   80MOL   H31730495   3.625   5.373   2.058  0.0305  1.4035  0.9256
   80MOL   H31830496   3.419   5.372   2.179 -0.9377  0.5001 -0.8189
   80MOL   H31930497   3.395   5.429   2.348 -0.1947  2.5790  0.8715
   80MOL   H32030498   3.404   5.541   2.212  0.4316 -0.2004 -0.0843
   80MOL   H32130499   3.616   5.530   2.458  1.6453  0.8204  0.9212
   80MOL   H32230500   3.852   5.544   2.460 -2.6943 -0.7940  0.9671
   80MOL   H32330501   3.982   5.636   2.113 -0.5447 -1.6511 -1.0396
   80MOL   H32430502   4.108   5.552   2.035  3.7375  1.6457  0.5240
   80MOL   C32530503   4.177   5.688   2.177 -0.0174  0.3153 -0.6149
   80MOL   C32630504   4.156   5.732   2.324 -0.1186  0.0832  0.5011
   80MOL   C32730505   4.253   5.697   2.417  0.2933  0.5196 -0.1720
   80MOL   C32830506   4.236   5.730   2.555 -0.1227 -0.9764 -0.5838
   80MOL   C32930507   4.133   5.822   2.589 -0.2184  0.0774 -0.1966
   80MOL   C33030508   4.121   5.871   2.726  0.3907 -0.6916  0.2925
   80MOL   C33130509   4.047   5.869   2.491  0.0927 -0.2466  0.4505
   80MOL   C33230510   4.055   5.822   2.358 -0.0764  0.8335  0.2114
   80MOL   C33330511   4.195   5.806   2.079  0.8353 -0.0359 -0.2405
   80MOL   H33430512   4.275   5.639   2.171 -0.4421 -0.2253 -4.1130
   80MOL   H33530513   4.346   5.645   2.397  0.7709  0.9955  0.8070
   80MOL   H33630514   4.311   5.704   2.627  0.2768 -0.3085 -0.7531
   80MOL   H33730515   4.202   5.943   2.735 -1.2047  1.2281 -0.4087
   80MOL   H33830516   4.034   5.933   2.745  0.2342 -0.9701  0.4740
   80MOL   H33930517   4.116   5.782   2.789 -0.2527 -0.7894  0.1082
   80MOL   H34030518   3.960   5.932   2.508 -0.4515 -0.1590 -2.3666
   80MOL   H34130519   3.985   5.849   2.280  0.8305 -0.8236 -1.2288
   80MOL   H34230520   4.099   5.851   2.054 -0.2944 -0.8188  2.4133
   80MOL   H34330521   4.213   5.775   1.976  1.5361  0.6555 -0.3274
   80MOL   C34430522   4.286   5.918   2.131 -0.3606 -0.0705 -0.0948
   80MOL   C34530523   4.296   6.031   2.026  0.3473 -0.3125  0.6345
   80MOL   C34630524   4.366   6.012   1.905 -0.2745 -0.7823 -0.0044
   80MOL   C34730525   4.396   6.117   1.819  0.3528 -0.2380  0.3436
   80MOL   C34830526   4.355   6.251   1.856  0.0415  0.1824  0.7478
   80MOL   C34930527   4.400   6.367   1.764  0.3364  0.3180  0.3686
   80MOL   C35030528   4.265   6.267   1.962 -0.4910  0.8091 -0.3519
   80MOL   C35130529   4.247   6.157   2.052 -0.7984  0.1305  0.1955
   80MOL   C35230530   4.433   5.869   2.163 -0.2227 -0.3753  0.6449
   80MOL   H35330531   4.253   5.952   2.229 -1.9471 -0.1889 -0.5797
   80MOL   H35430532   4.394   5.915   1.868  1.0563 -0.1915 -0.5660
   80MOL   H35530533   4.466   6.104   1.738  0.0450 -0.4971  0.1186
   80MOL   H35630534   4.334   6.405   1.686 -0.3654  2.0001  1.7478
   80MOL   H35730535   4.430   6.449   1.830 -1.0256 -0.4996  2.0475
   80MOL   H35830536   4.488   6.337   1.707 -0.1570 -0.7694  0.1669
   80MOL   H35930537   4.219   6.362   1.985  0.2110  1.1110 -0.1803
   80MOL   H36030538   4.194   6.169   2.145 -0.1319 -0.9065  0.7183
   80MOL   H36130539   4.488   5.858   2.070  2.5715  2.0014  1.9683
   80MOL   H36230540   4.428   5.771   2.212  0.3856  1.0010  3.6011
   80MOL   C36330541   4.521   5.958   2.248 -0.6022 -0.2012  0.1308
   80MOL   C36430542   4.669   5.933   2.227  0.3806 -0.1234 -0.6324
   80MOL   C36530543   4.755   6.039   2.184 -0.4160 -0.8552  1.0702
   80MOL   C36630544   4.894   6.016   2.168 -0.0664 -0.0524 -0.2839
   80MOL   C36730545   4.949   5.899   2.212  0.4619 -0.0225  0.8085
   80MOL   C36830546   5.100   5.876   2.207 -0.3811  1.1277 -0.1127
   80MOL   C36930547   4.865   5.786   2.243  1.0755 -0.3529  0.0769
   80MOL   C37030548   4.721   5.807   2.257 -1.0523 -0.2999  0.4772
   80MOL   C37130549   4.490   5.931   2.403  1.1688  0.0676  0.4225
   80MOL   H37230550   4.491   6.062   2.235 -1.7696 -0.4006  1.0772
   80MOL   H37330551   4.714   6.136   2.158 -5.1395 -2.7970  0.9302
   80MOL   H37430552   4.955   6.101   2.140  0.3773  0.1926  1.4232
   80MOL   H37530553   5.147   5.933   2.128 -0.5664  0.7114 -0.5304
   80MOL   H37630554   5.149   5.909   2.299 -3.0358 -0.6821  2.0562
   80MOL   H37730555   5.121   5.769   2.195  1.7306  1.3621  1.2519
   80MOL   H37830556   4.908   5.692   2.272 -1.6767 -1.0336  2.1711
   80MOL   H37930557   4.657   5.726   2.289 -2.0364  0.3037  0.0820
   80MOL   H38030558   4.384   5.937   2.428  1.3402  0.3467  1.1085
   80MOL   H38130559   4.521   6.023   2.452  1.9548  2.4410 -4.2853
   80MOL   H38230560   4.541   5.848   2.454  0.0811 -1.1570 -0.4552
   81MOL     C130561   2.476   6.112   6.274 -0.3148 -0.6612  0.2609
   81MOL     C230562   2.445   6.260   6.240  0.5352 -0.0838 -0.6532
   81MOL     C330563   2.360   6.292   6.128  0.2692 -0.0705 -0.5251
   81MOL     C430564   2.337   6.430   6.097  0.1276 -0.0652  0.7293
   81MOL     C530565   2.407   6.529   6.160  0.3490  0.2800  0.1092
   81MOL     C630566   2.383   6.677   6.126  1.4960  1.1275 -0.0520
   81MOL     C730567   2.498   6.494   6.259 -0.0314 -0.3329 -0.0059
   81MOL     C830568   2.512   6.364   6.307 -0.2990 -0.3248  1.2097
   81MOL     C930569   2.614   6.064   6.212  0.8220 -0.1781 -0.4882
   81MOL    H1030570   2.463   6.083   6.378 -0.8541 -3.3148 -0.4905
   81MOL    H1130571   2.307   6.215   6.073 -0.6382  0.2441 -0.0886
   81MOL    H1230572   2.257   6.459   6.030  1.7758  2.5425 -0.2104
   81MOL    H1330573   2.450   6.729   6.057  0.9903  0.4101 -1.0970
   81MOL    H1430574   2.291   6.683   6.068  1.7447  1.9770 -0.3677
   81MOL    H1530575   2.381   6.735   6.218 -0.6517 -0.6165  1.0193
   81MOL    H1630576   2.541   6.572   6.319  0.3769 -1.0278  0.6079
   81MOL    H1730577   2.565   6.344   6.399  2.7478 -0.0803 -0.4326
   81MOL    H1830578   2.702   6.106   6.261 -1.0941 -0.2945  3.1737
   81MOL    H1930579   2.619   6.106   6.111  1.0753  0.4378 -0.2212
   81MOL    H2030580   2.410   6.047   6.216 -0.1995  0.6358 -1.3523
   81MOL    C2130581   2.639   5.909   6.186 -0.8126  0.2477  0.1444
   81MOL    C2230582   2.625   5.838   6.317  0.4732 -0.2976 -0.1991
   81MOL    C2330583   2.539   5.723   6.315  0.4730 -0.6332 -0.2951
   81MOL    C2430584   2.524   5.653   6.440 -0.2162 -0.3377 -0.2321
   81MOL    C2530585   2.593   5.688   6.562  0.4631  0.1491 -0.4430
   81MOL    C2630586   2.574   5.605   6.691 -0.3164  0.6241 -0.1505
   81MOL    C2730587   2.679   5.798   6.557  0.3230  0.0241 -1.0617
   81MOL    C2830588   2.686   5.875   6.438 -0.2863  0.0419 -0.3594
   81MOL    C2930589   2.774   5.863   6.126  0.2437  0.1549 -1.5034
   81MOL    H3030590   2.552   5.883   6.126 -1.7997  2.4690  0.5821
   81MOL    H3130591   2.482   5.689   6.230 -1.5733  3.0553 -0.4781
   81MOL    H3230592   2.454   5.571   6.440  0.9145 -1.3231 -1.6897
   81MOL    H3330593   2.654   5.604   6.765 -0.4974 -0.8038  0.0535
   81MOL    H3430594   2.479   5.633   6.736 -0.1850 -0.1141  0.5987
   81MOL    H3530595   2.572   5.505   6.646 -0.8083  0.4035  0.3649
   81MOL    H3630596   2.739   5.826   6.642 -1.3497 -2.4999  1.0316
   81MOL    H3730597   2.729   5.973   6.449  1.1190 -0.4695 -1.1489
   81MOL    H3830598   2.776   5.754   6.133 -0.5385  0.2316 -0.0769
   81MOL    H3930599   2.855   5.907   6.184 -0.6587  0.7213 -0.6711
   81MOL    C4030600   2.778   5.905   5.982 -0.5000 -0.2222  0.6931
   81MOL    C4130601   2.757   5.785   5.888  0.7587  0.1256  0.2776
   81MOL    C4230602   2.841   5.672   5.891  0.4682  0.3109 -0.6282
   81MOL    C4330603   2.809   5.561   5.812 -0.0802  0.1049  0.8601
   81MOL    C4430604   2.707   5.565   5.716 -0.5399 -0.3951  0.6753
   81MOL    C4530605   2.674   5.445   5.627  0.4129  0.1582  0.7936
   81MOL    C4630606   2.620   5.681   5.711 -0.5243 -0.1138 -0.0385
   81MOL    C4730607   2.648   5.790   5.799 -0.7238 -0.5666  0.3595
   81MOL    C4830608   2.915   5.975   5.952  0.0469  0.3051 -0.0472
   81MOL    H4930609   2.701   5.978   5.955 -0.5346 -0.8930 -1.0722
   81MOL    H5030610   2.928   5.673   5.955  0.7990 -0.6956 -1.0531
   81MOL    H5130611   2.878   5.479   5.802  0.6896  0.5907  2.0769
   81MOL    H5230612   2.650   5.368   5.699  1.3931 -1.3979 -0.5009
   81MOL    H5330613   2.590   5.468   5.561 -0.8458 -1.7109  1.7261
   81MOL    H5430614   2.761   5.406   5.574 -0.5428 -3.1566  1.5307
   81MOL    H5530615   2.542   5.690   5.637 -0.4950  0.9866  0.0547
   81MOL    H5630616   2.580   5.873   5.795 -1.4721 -1.2401 -1.7265
   81MOL    H5730617   2.922   5.966   5.843 -0.2485 -2.1054  0.1150
   81MOL    H5830618   2.987   5.907   5.997 -1.0798 -0.7311  0.2154
   81MOL    C5930619   2.924   6.130   5.988 -0.1150  0.1174 -0.1113
   81MOL    C6030620   2.832   6.218   5.901  0.1527  0.2269 -0.2811
   81MOL    C6130621   2.737   6.304   5.966  0.3049  0.1957  0.3037
   81MOL    C6230622   2.650   6.386   5.894  0.2002 -0.5287 -0.5861
   81MOL    C6330623   2.663   6.396   5.754  0.1468  0.3749 -0.3516
   81MOL    C6430624   2.564   6.468   5.670  0.8420  0.5866 -0.0401
   81MOL    C6530625   2.749   6.306   5.688  0.9105  0.2374  0.3025
   81MOL    C6630626   2.838   6.224   5.760 -0.3998 -0.6696 -1.0291
   81MOL    C6730627   3.068   6.172   5.982 -1.0250 -0.3416 -0.0497
   81MOL    H6830628   2.882   6.141   6.088 -1.6129 -0.5464 -0.6422
   81MOL    H6930629   2.729   6.315   6.073 -1.6355  0.5169  0.1424
   81MOL    H7030630   2.573   6.449   5.936 -0.3709  0.6385 -3.2881
   81MOL    H7130631   2.488   6.504   5.741  2.2926 -0.8545  2.3179
   81MOL    H7230632   2.612   6.557   5.631 -0.4943  1.9877  1.4087
   81MOL    H7330633   2.523   6.407   5.589  1.5185  2.6262 -1.9689
   81MOL    H7430634   2.766   6.305   5.581  0.9276 -0.2237  0.3066
   81MOL    H7530635   2.912   6.155   5.722  2.1972  1.4452  0.0089
   81MOL    H7630636   3.069   6.273   5.940  2.2075 -0.4372 -0.3634
   81MOL    H7730637   3.133   6.096   5.938  2.3751  2.1157  0.5186
   81MOL    C7830638   3.134   6.190   6.125 -0.2143 -0.7854  0.0694
   81MOL    C7930639   3.055   6.290   6.206 -0.5310 -0.6347 -1.3390
   81MOL    C8030640   3.065   6.429   6.186 -0.6964 -0.0740 -0.6259
   81MOL    C8130641   3.006   6.519   6.277 -0.6047  1.1664  0.2041
   81MOL    C8230642   2.912   6.475   6.372  0.3922 -0.6426  0.5837
   81MOL    C8330643   2.859   6.567   6.478 -0.1043  0.3470  0.6901
   81MOL    C8430644   2.887   6.336   6.380  0.2021 -0.0084  0.5722
   81MOL    C8530645   2.964   6.246   6.301  0.1357  0.1231 -0.1814
   81MOL    C8630646   3.287   6.210   6.117 -0.4707  0.1925 -0.5747
   81MOL    H8730647   3.105   6.092   6.164  0.8240 -1.8977 -1.9139
   81MOL    H8830648   3.129   6.471   6.110 -2.6292  2.3207 -0.9902
   81MOL    H8930649   3.030   6.622   6.257  1.4888  0.6637  0.0661
   81MOL    H9030650   2.918   6.554   6.568 -1.5059 -1.9423  1.3023
   81MOL    H9130651   2.850   6.670   6.442  1.7593  1.0256  2.0538
   81MOL    H9230652   2.760   6.528   6.499  0.8812 -2.6887 -0.0736
   81MOL    H9330653   2.810   6.293   6.444  0.0492 -0.2709  0.2124
   81MOL    H9430654   2.934   6.143   6.317  1.7033 -0.1519  1.1215
   81MOL    H9530655   3.317   6.272   6.202 -0.7883 -0.3971 -0.0328
   81MOL    H9630656   3.315   6.270   6.031  1.1666  1.1702  0.5945
   81MOL    C9730657   3.367   6.070   6.110  0.9832 -0.3729  1.1004
   81MOL    C9830658   3.350   5.986   6.238  0.8916 -0.3508 -0.0925
   81MOL    C9930659   3.401   6.036   6.361 -0.7039 -0.2518  0.7284
   81MOL   C10030660   3.370   5.966   6.481  0.3961  0.0294  0.4745
   81MOL   C10130661   3.300   5.849   6.480  0.1122 -0.3221  0.1817
   81MOL   C10230662   3.273   5.774   6.612  0.0378  0.1073 -0.3943
   81MOL   C10330663   3.241   5.807   6.364 -0.3128 -0.2904  0.0578
   81MOL   C10430664   3.264   5.877   6.241 -0.2606 -0.2953  0.4051
   81MOL   C10530665   3.514   6.085   6.076 -0.7658 -0.2942 -0.1252
   81MOL   H10630666   3.316   6.014   6.031  1.7248 -0.3745  0.6168
   81MOL   H10730667   3.459   6.127   6.368 -0.4431 -0.6110  3.6312
   81MOL   H10830668   3.405   6.008   6.575  0.9373  1.5801 -0.3989
   81MOL   H10930669   3.298   5.668   6.604 -1.3433 -0.5505  3.2758
   81MOL   H11030670   3.326   5.823   6.693  0.0895  2.5484 -1.8648
   81MOL   H11130671   3.170   5.750   6.637  0.2057 -0.9085 -0.6456
   81MOL   H11230672   3.180   5.718   6.377 -0.6392  0.2155  2.1578
   81MOL   H11330673   3.205   5.846   6.155 -0.6974 -0.4373  0.7537
   81MOL   H11430674   3.565   6.140   6.155  0.3343 -0.1538 -0.9318
   81MOL   H11530675   3.520   6.137   5.981 -0.6317  1.0612  0.6041
   81MOL   C11630676   3.608   5.962   6.056 -0.1496  0.3318 -0.3312
   81MOL   C11730677   3.740   6.029   6.041  0.9119  0.2176  0.4486
   81MOL   C11830678   3.788   6.058   5.915 -0.2164  0.4775  0.0831
   81MOL   C11930679   3.901   6.138   5.901  0.1934  0.7067  0.0049
   81MOL   C12030680   3.985   6.163   6.014  0.1220 -0.6515 -0.2464
   81MOL   C12130681   4.119   6.233   5.999  0.0717 -0.2672 -0.1072
   81MOL   C12230682   3.937   6.135   6.139 -0.1200  0.9433  0.0749
   81MOL   C12330683   3.819   6.061   6.157 -0.1040 -0.6536 -0.2108
   81MOL   C12430684   3.577   5.857   5.947  0.2520  0.2005  0.1905
   81MOL   H12530685   3.600   5.921   6.157 -0.3397  0.2657 -0.3731
   81MOL   H12630686   3.727   6.039   5.828  0.6354 -0.1403 -0.3861
   81MOL   H12730687   3.941   6.157   5.802  1.4608  0.0758  0.3807
   81MOL   H12830688   4.123   6.270   5.896 -0.2724 -1.1712 -0.4496
   81MOL   H12930689   4.112   6.317   6.068 -2.1624  0.0676 -0.7021
   81MOL   H13030690   4.206   6.169   6.015  1.2423  0.7872 -1.9404
   81MOL   H13130691   3.990   6.162   6.229 -1.2452 -2.8158  1.9886
   81MOL   H13230692   3.791   6.042   6.259  4.0819 -1.5565  0.8878
   81MOL   H13330693   3.667   5.824   5.896 -0.2722 -1.6957  0.4557
   81MOL   H13430694   3.523   5.923   5.879  0.3097 -0.6679 -0.7147
   81MOL   C13530695   3.490   5.732   5.981 -0.3009  0.7364  0.1570
   81MOL   C13630696   3.571   5.632   6.062 -0.4794  0.0208  0.3960
   81MOL   C13730697   3.528   5.614   6.197 -0.2688  0.5181  0.1639
   81MOL   C13830698   3.595   5.518   6.278 -0.2501  0.6863 -0.3315
   81MOL   C13930699   3.695   5.437   6.221 -0.0158  0.4355 -0.4824
   81MOL   C14030700   3.755   5.322   6.306  0.1089  0.2200 -0.4953
   81MOL   C14130701   3.725   5.452   6.082  0.5429 -0.1621 -0.8584
   81MOL   C14230702   3.660   5.546   6.001 -0.5072 -1.0397 -0.2289
   81MOL   C14330703   3.417   5.681   5.856 -0.4177  0.5219  0.3098
   81MOL   H14430704   3.408   5.768   6.044 -0.1687  0.7145  0.3419
   81MOL   H14530705   3.445   5.674   6.231 -1.4753 -0.4149 -1.0704
   81MOL   H14630706   3.562   5.508   6.380 -0.0139  0.6478 -0.2578
   81MOL   H14730707   3.826   5.355   6.382 -0.0777  0.8021 -0.5647
   81MOL   H14830708   3.664   5.281   6.349 -0.0423  0.6903 -0.3661
   81MOL   H14930709   3.800   5.252   6.235  0.8726  1.3509 -1.1522
   81MOL   H15030710   3.800   5.392   6.032 -0.3554  0.0328 -2.4840
   81MOL   H15130711   3.693   5.556   5.898 -0.4199  0.0321 -0.1052
   81MOL   H15230712   3.489   5.665   5.776 -0.5874  0.5394  0.1541
   81MOL   H15330713   3.344   5.750   5.813  1.2145  1.1101 -1.5903
   81MOL   C15430714   3.350   5.547   5.885 -0.1697  0.0652  0.0902
   81MOL   C15530715   3.293   5.498   5.755  0.4161  0.6656 -0.1944
   81MOL   C15630716   3.354   5.388   5.691  0.4573 -0.1650  0.3146
   81MOL   C15730717   3.311   5.350   5.560  0.2850  0.2479 -0.4221
   81MOL   C15830718   3.199   5.412   5.506  0.8811 -0.8087 -1.0480
   81MOL   C15930719   3.134   5.350   5.383  0.2056  0.3054  0.9471
   81MOL   C16030720   3.134   5.529   5.567 -0.3424  0.2442 -0.5661
   81MOL   C16130721   3.187   5.574   5.695 -0.0373  0.9719 -0.1924
   81MOL   C16230722   3.245   5.552   6.004  0.6590  0.5035  0.6134
   81MOL   H16330723   3.418   5.467   5.914 -1.3152 -1.0676 -0.2799
   81MOL   H16430724   3.438   5.333   5.733  0.5107  0.0677  0.5150
   81MOL   H16530725   3.343   5.259   5.512  0.2433 -0.2471  0.4656
   81MOL   H16630726   3.148   5.242   5.392  3.0414  0.3038 -2.5104
   81MOL   H16730727   3.031   5.384   5.372  0.4903  1.2603  1.2130
   81MOL   H16830728   3.176   5.376   5.286  0.6090 -1.5377  0.6094
   81MOL   H16930729   3.048   5.576   5.523 -0.0496  1.4919  0.1815
   81MOL   H17030730   3.151   5.663   5.745 -1.5396 -1.0350  2.4179
   81MOL   H17130731   3.157   5.615   5.991 -1.2495 -1.9630  1.1862
   81MOL   H17230732   3.288   5.601   6.092  2.3431  1.1199 -0.5274
   81MOL   C17330733   3.210   5.406   6.047 -0.5124  1.0605 -0.1851
   81MOL   C17430734   3.061   5.387   6.080  0.1713  0.5233  0.3961
   81MOL   C17530735   2.984   5.293   6.003 -0.3052 -0.1886  0.2676
   81MOL   C17630736   2.846   5.293   6.039 -0.7102  0.7014 -0.4201
   81MOL   C17730737   2.789   5.388   6.129 -0.5346 -0.6762 -0.4063
   81MOL   C17830738   2.641   5.381   6.177 -0.4629  0.6824 -0.8809
   81MOL   C17930739   2.864   5.487   6.190 -0.3310  0.0284 -0.3078
   81MOL   C18030740   3.000   5.478   6.168 -0.6950  0.1948 -0.2006
   81MOL   C18130741   3.309   5.348   6.153 -0.4044 -0.3445 -0.5663
   81MOL   H18230742   3.226   5.345   5.959 -3.2691  1.6777 -1.1604
   81MOL   H18330743   3.017   5.226   5.924  0.2297  1.8612 -1.2886
   81MOL   H18430744   2.784   5.214   5.999 -0.0685 -0.1665  0.2758
   81MOL   H18530745   2.592   5.471   6.140 -2.7905 -0.9362 -1.8371
   81MOL   H18630746   2.595   5.293   6.133  1.1085 -0.4134 -0.3958
   81MOL   H18730747   2.627   5.375   6.285 -3.0836  1.6934 -1.1383
   81MOL   H18830748   2.818   5.561   6.254 -1.3362 -1.6628  0.9486
   81MOL   H18930749   3.063   5.542   6.228  0.9931 -1.4805 -0.1457
   81MOL   H19030750   3.337   5.425   6.225  0.3707 -0.9796 -0.1796
   81MOL   H19130751   3.402   5.331   6.100  0.3051 -1.5872  1.0079
   81MOL   C19230752   3.264   5.220   6.224  0.1729  0.6831 -0.0595
   81MOL   C19330753   3.199   5.257   6.357  0.5652 -0.1496  0.5247
   81MOL   C19430754   3.060   5.230   6.374 -0.8373 -0.0634 -0.5015
   81MOL   C19530755   2.994   5.289   6.481  0.3717 -0.5078 -0.2040
   81MOL   C19630756   3.068   5.359   6.581  0.4315 -0.3025  0.5658
   81MOL   C19730757   2.983   5.425   6.692 -0.1411  0.2273 -0.3050
   81MOL   C19830758   3.212   5.382   6.574 -0.8548 -0.2377 -0.0133
   81MOL   C19930759   3.271   5.334   6.453 -0.8080 -0.5554 -0.6519
   81MOL   C20030760   3.373   5.112   6.237  0.0179  0.6354 -0.8029
   81MOL   H20130761   3.192   5.164   6.164  3.0220 -0.3567 -2.6720
   81MOL   H20230762   3.005   5.167   6.306  0.5720 -1.2868 -0.5247
   81MOL   H20330763   2.887   5.278   6.492  0.4436  0.2464  1.3646
   81MOL   H20430764   3.054   5.444   6.773 -0.5377 -0.3557  0.1858
   81MOL   H20530765   2.935   5.515   6.654  0.6731 -0.1514 -2.2983
   81MOL   H20630766   2.909   5.353   6.725  1.1153 -2.5872 -3.3792
   81MOL   H20730767   3.275   5.426   6.650 -0.5915 -0.6339  0.0002
   81MOL   H20830768   3.374   5.352   6.429 -0.7529 -2.0957 -1.6072
   81MOL   H20930769   3.331   5.041   6.308  1.7962 -0.0022 -0.3575
   81MOL   H21030770   3.457   5.160   6.287  1.1403  0.4583 -2.4684
   81MOL   C21130771   3.425   5.059   6.102 -0.3079  0.0865  0.4838
   81MOL   C21230772   3.324   4.980   6.017 -0.0129 -0.1189 -0.4303
   81MOL   C21330773   3.262   5.041   5.907 -0.4648 -0.5867  0.2813
   81MOL   C21430774   3.174   4.963   5.827  0.5936  1.1539 -0.3746
   81MOL   C21530775   3.145   4.829   5.858 -0.1646 -0.9527  0.0543
   81MOL   C21630776   3.048   4.751   5.769 -0.2055  0.2908 -0.5289
   81MOL   C21730777   3.212   4.763   5.956  0.0036 -0.2147  0.1125
   81MOL   C21830778   3.294   4.845   6.038 -0.4577  0.0535 -0.0482
   81MOL   C21930779   3.554   4.975   6.123  0.5522 -0.0985 -0.3425
   81MOL   H22030780   3.453   5.136   6.030 -0.4976 -2.2769 -2.2006
   81MOL   H22130781   3.267   5.146   5.883 -1.7985 -0.5099  0.3351
   81MOL   H22230782   3.130   5.022   5.748 -2.0664 -1.2081 -0.7277
   81MOL   H22330783   3.035   4.802   5.674 -1.7390  0.9101  0.0021
   81MOL   H22430784   3.078   4.647   5.757 -0.6235  0.3350 -1.9966
   81MOL   H22530785   2.950   4.770   5.813  1.1433  0.4916  2.5302
   81MOL   H22630786   3.201   4.658   5.976 -0.9421 -0.3127 -0.8794
   81MOL   H22730787   3.350   4.804   6.121 -0.2648  1.4808  0.5320
   81MOL   H22830788   3.529   4.872   6.149  1.6690  0.0180  1.2625
   81MOL   H22930789   3.609   5.028   6.201  3.0980 -0.1287 -2.0756
   81MOL   C23030790   3.646   4.981   5.998 -0.1446 -0.1532  0.5318
   81MOL   C23130791   3.745   4.866   6.005  0.1343  0.4046 -0.2231
   81MOL   C23230792   3.719   4.749   5.934  0.2558  0.6072  0.8175
   81MOL   C23330793   3.766   4.626   5.975  0.2175  0.7690 -0.0450
   81MOL   C23430794   3.868   4.615   6.071 -0.5613 -0.2310  0.2395
   81MOL   C23530795   3.924   4.480   6.115 -0.5253 -0.4820 -0.4344
   81MOL   C23630796   3.917   4.736   6.125 -0.1025  0.0588 -0.0241
   81MOL   C23730797   3.849   4.858   6.097 -0.0160 -0.1249 -1.0038
   81MOL   C23830798   3.714   5.111   5.948 -0.1178 -0.2590 -0.2852
   81MOL   H23930799   3.573   4.957   5.920 -0.3593  0.8167  0.4277
   81MOL   H24030800   3.631   4.743   5.872  0.1859  0.8492  0.8900
   81MOL   H24130801   3.735   4.544   5.911 -0.1966  0.4799  0.5217
   81MOL   H24230802   3.951   4.480   6.220 -1.3086  2.9403 -0.1728
   81MOL   H24330803   3.860   4.394   6.095  0.2141 -1.1564  0.0579
   81MOL   H24430804   4.013   4.464   6.055  0.5638 -0.1577  1.0628
   81MOL   H24530805   4.007   4.732   6.185 -0.1696  0.1235  0.0825
   81MOL   H24630806   3.886   4.943   6.152 -0.5118 -0.8567  0.4924
   81MOL   H24730807   3.780   5.145   6.027 -0.1514 -1.3444  0.2151
   81MOL   H24830808   3.651   5.198   5.933  1.0425  0.9315  1.5876
   81MOL   C24930809   3.804   5.094   5.819 -0.6268  0.5899 -0.5751
   81MOL   C25030810   3.877   5.225   5.783  0.4615 -0.1554  0.1403
   81MOL   C25130811   3.815   5.349   5.738  0.0427 -0.4156  0.6477
   81MOL   C25230812   3.896   5.461   5.713 -0.1181 -0.2054 -0.1336
   81MOL   C25330813   4.035   5.453   5.728  0.6779 -0.0756 -0.0275
   81MOL   C25430814   4.129   5.575   5.710  0.1221 -0.1550  0.2844
   81MOL   C25530815   4.094   5.337   5.759 -0.2057 -0.6144 -0.6410
   81MOL   C25630816   4.020   5.224   5.793 -0.5797 -0.1064 -0.6498
   81MOL   C25730817   3.734   5.037   5.691 -0.3728 -0.3402 -0.5952
   81MOL   H25830818   3.885   5.024   5.838 -0.1895  1.4013  0.5806
   81MOL   H25930819   3.708   5.360   5.729  0.1548  0.2833  0.1287
   81MOL   H26030820   3.863   5.562   5.691  1.3953  0.0108 -1.4874
   81MOL   H26130821   4.231   5.560   5.676 -0.9556 -0.6943 -2.8747
   81MOL   H26230822   4.095   5.659   5.649 -1.0236 -0.6344  0.2504
   81MOL   H26330823   4.121   5.616   5.811 -1.0306 -0.8842  0.5023
   81MOL   H26430824   4.201   5.341   5.769 -0.5125  0.8363  2.8268
   81MOL   H26530825   4.080   5.141   5.827 -0.6455  0.8025  1.7463
   81MOL   H26630826   3.679   5.117   5.643 -0.8315 -0.6153 -0.5222
   81MOL   H26730827   3.657   4.963   5.715 -2.1137  1.8134  0.6444
   81MOL   C26830828   3.840   4.984   5.590  0.1714 -0.3138  0.6605
   81MOL   C26930829   3.805   5.012   5.442  0.1776  0.7074 -0.5364
   81MOL   C27030830   3.760   4.908   5.357  0.4068  0.3202 -0.0233
   81MOL   C27130831   3.718   4.940   5.229 -0.2731 -0.2058  0.5132
   81MOL   C27230832   3.718   5.065   5.173  0.0891 -0.0591 -0.5476
   81MOL   C27330833   3.673   5.096   5.031 -0.2468 -0.1153  0.0217
   81MOL   C27430834   3.758   5.169   5.262  0.0902  0.0508  0.4643
   81MOL   C27530835   3.796   5.146   5.400 -0.7117  0.4001 -0.1596
   81MOL   C27630836   3.873   4.840   5.621  0.6637 -0.7828  0.1822
   81MOL   H27730837   3.928   5.047   5.606 -0.2246 -0.0372  1.7861
   81MOL   H27830838   3.751   4.804   5.384 -0.6864 -0.2519 -2.4241
   81MOL   H27930839   3.685   4.861   5.162 -0.7097 -1.3311  2.0257
   81MOL   H28030840   3.610   5.019   4.987 -2.2930  1.1750  0.6446
   81MOL   H28130841   3.613   5.187   5.029 -0.0544  0.1214  2.7156
   81MOL   H28230842   3.760   5.114   4.968 -1.1101  0.2027 -1.0797
   81MOL   H28330843   3.748   5.273   5.233  0.5740 -0.0395 -0.0525
   81MOL   H28430844   3.816   5.229   5.466 -0.6777 -0.2334  0.6285
   81MOL   H28530845   3.786   4.775   5.618  0.7825 -0.9403  0.0657
   81MOL   H28630846   3.886   4.850   5.729  0.4918  1.6392 -0.0034
   81MOL   C28730847   3.994   4.771   5.554  0.2962  0.2638 -0.1120
   81MOL   C28830848   3.994   4.620   5.569 -0.4223  0.2934  0.0759
   81MOL   C28930849   4.028   4.537   5.462  0.6927  0.0093 -0.0231
   81MOL   C29030850   4.020   4.398   5.465 -0.6697 -0.2466 -0.3121
   81MOL   C29130851   3.979   4.333   5.583 -0.2185  0.0654 -0.3182
   81MOL   C29230852   3.977   4.182   5.583  0.0327 -0.6983  0.3731
   81MOL   C29330853   3.947   4.413   5.697  0.6867 -0.8838  0.6356
   81MOL   C29430854   3.965   4.556   5.690  0.6140  0.4358 -0.0221
   81MOL   C29530855   4.129   4.832   5.597  0.3314 -0.1587 -0.0160
   81MOL   H29630856   3.977   4.777   5.447  1.2056 -0.6039 -0.3103
   81MOL   H29730857   4.051   4.564   5.360 -1.1327 -0.5514 -0.5907
   81MOL   H29830858   4.053   4.344   5.377 -0.6138 -2.7230  1.1977
   81MOL   H29930859   4.078   4.147   5.559 -0.0161 -1.2047  0.8904
   81MOL   H30030860   3.959   4.136   5.680  1.6029 -2.6181 -0.2112
   81MOL   H30130861   3.903   4.145   5.513  0.9849 -2.8400  0.4697
   81MOL   H30230862   3.905   4.377   5.790 -2.0385  3.2783  1.1457
   81MOL   H30330863   3.942   4.614   5.778  0.3468  0.1614  0.0880
   81MOL   H30430864   4.198   4.748   5.603  0.9947  0.4257  0.6518
   81MOL   H30530865   4.115   4.875   5.697  2.0631 -1.4000  0.7952
   81MOL   C30630866   4.187   4.925   5.488  0.4926 -0.2883 -0.3095
   81MOL   C30730867   4.212   4.854   5.357  0.6180  0.6804  0.0689
   81MOL   C30830868   4.124   4.883   5.249 -0.5547  0.4408  0.3650
   81MOL   C30930869   4.144   4.834   5.120 -0.7394  0.4842  0.0009
   81MOL   C31030870   4.246   4.734   5.105  0.3487  0.2910 -0.0316
   81MOL   C31130871   4.267   4.661   4.976 -0.0843 -0.0851 -0.3040
   81MOL   C31230872   4.332   4.697   5.211 -0.3239  0.2911  0.2461
   81MOL   C31330873   4.315   4.761   5.335 -1.0322  0.0167  0.3385
   81MOL   C31430874   4.312   5.021   5.526  0.1445  0.1263 -0.2800
   81MOL   H31530875   4.100   4.986   5.463 -0.5334 -1.3598  0.6137
   81MOL   H31630876   4.047   4.956   5.268 -1.5852 -0.2455 -1.0861
   81MOL   H31730877   4.072   4.853   5.042 -0.2958  0.3196 -0.4556
   81MOL   H31830878   4.374   4.643   4.966 -0.4192 -1.1401 -2.1521
   81MOL   H31930879   4.224   4.562   4.986 -2.6405  1.2185  2.4107
   81MOL   H32030880   4.220   4.718   4.896  0.7881  1.9544  0.5938
   81MOL   H32130881   4.407   4.620   5.198 -0.3194  0.4859 -0.9159
   81MOL   H32230882   4.379   4.732   5.417 -1.4576 -0.2882  0.5668
   81MOL   H32330883   4.402   4.962   5.542  0.4582  0.8391  0.5914
   81MOL   H32430884   4.280   5.076   5.614  0.5941  0.3249 -0.2393
   81MOL   C32530885   4.346   5.134   5.423  0.1934  0.8302 -0.0922
   81MOL   C32630886   4.477   5.197   5.451 -0.1669  0.7077 -0.4757
   81MOL   C32730887   4.591   5.179   5.365 -0.6230 -0.2448  0.0943
   81MOL   C32830888   4.722   5.226   5.409 -0.2051 -0.3482  0.1713
   81MOL   C32930889   4.725   5.314   5.521 -0.1327  0.1549  0.0209
   81MOL   C33030890   4.844   5.408   5.546 -0.4313 -0.1927 -0.6118
   81MOL   C33130891   4.615   5.321   5.607 -0.0611 -0.2964  0.9407
   81MOL   C33230892   4.493   5.269   5.570  0.6472 -0.7868  0.2699
   81MOL   C33330893   4.231   5.231   5.396  0.0348 -0.2129 -0.0386
   81MOL   H33430894   4.354   5.087   5.325 -2.2929  1.4968 -0.6304
   81MOL   H33530895   4.585   5.118   5.276 -1.9807 -0.1803  0.1331
   81MOL   H33630896   4.807   5.210   5.344  0.5453 -1.6595  1.4433
   81MOL   H33730897   4.825   5.501   5.491 -3.3294  0.4615  1.3712
   81MOL   H33830898   4.868   5.435   5.649 -1.5551 -0.8865 -0.1596
   81MOL   H33930899   4.938   5.372   5.505 -0.6554 -1.4320 -0.0516
   81MOL   H34030900   4.614   5.384   5.695 -0.7858  1.1344 -0.0638
   81MOL   H34130901   4.410   5.286   5.637 -0.9529 -1.2435 -1.5567
   81MOL   H34230902   4.217   5.301   5.478  0.2756 -0.7201  0.4353
   81MOL   H34330903   4.130   5.191   5.394  0.6102 -1.6773  0.2810
   81MOL   C34430904   4.226   5.323   5.271 -0.0886 -0.3634 -0.0251
   81MOL   C34530905   4.132   5.442   5.300  1.2006 -0.1432 -0.2344
   81MOL   C34630906   4.181   5.560   5.348  0.5598  0.5691 -0.4127
   81MOL   C34730907   4.100   5.674   5.364  0.3651 -0.5811 -0.0795
   81MOL   C34830908   3.963   5.664   5.346  0.5225  0.2698 -0.0199
   81MOL   C34930909   3.870   5.779   5.373 -0.2241 -0.4812  0.4651
   81MOL   C35030910   3.906   5.545   5.293  0.1183 -0.4821 -0.2340
   81MOL   C35130911   3.992   5.431   5.279 -0.2967  0.2215  0.4030
   81MOL   C35230912   4.188   5.236   5.138  0.0579 -0.2051 -0.6870
   81MOL   H35330913   4.323   5.368   5.247  0.2384 -1.0200  0.0492
   81MOL   H35430914   4.283   5.576   5.378  0.8006 -1.2977 -0.2013
   81MOL   H35530915   4.137   5.770   5.397  1.2476 -1.0405  0.2934
   81MOL   H35630916   3.903   5.860   5.439  1.0184 -1.3418  0.9084
   81MOL   H35730917   3.844   5.824   5.276 -0.0576  0.6581  0.9348
   81MOL   H35830918   3.780   5.744   5.424 -0.3871 -0.8751 -0.0870
   81MOL   H35930919   3.798   5.538   5.286  0.0375 -1.1654  1.4014
   81MOL   H36030920   3.959   5.331   5.259 -1.2784  0.1079  2.4067
   81MOL   H36130921   4.093   5.182   5.143  0.5267 -0.8714  1.3959
   81MOL   H36230922   4.257   5.152   5.142  2.7132  1.9859  1.4720
   81MOL   C36330923   4.184   5.295   5.001 -0.1969  0.1742  0.0537
   81MOL   C36430924   4.145   5.179   4.908  0.4078 -0.6430 -0.4459
   81MOL   C36530925   4.014   5.162   4.856  0.1678  0.3916 -0.1062
   81MOL   C36630926   3.979   5.054   4.773 -0.2199  0.1240  0.2331
   81MOL   C36730927   4.079   4.967   4.728 -0.0471 -0.4171 -0.6382
   81MOL   C36830928   4.055   4.857   4.627 -0.3035  0.1552  0.0522
   81MOL   C36930929   4.213   4.986   4.783 -0.1855  0.4882 -0.1482
   81MOL   C37030930   4.240   5.085   4.875  0.5869  0.0351 -0.5759
   81MOL   C37130931   4.321   5.364   4.966  0.3480  0.7393  0.5947
   81MOL   H37230932   4.102   5.366   5.001 -0.0172  0.3893  1.3242
   81MOL   H37330933   3.933   5.229   4.880  0.8862  1.5188 -0.7993
   81MOL   H37430934   3.875   5.045   4.745 -0.3232  1.0427  0.2919
   81MOL   H37530935   4.097   4.761   4.658 -1.2189 -0.5782 -0.9284
   81MOL   H37630936   3.948   4.837   4.623 -0.0990 -0.8350 -0.7075
   81MOL   H37730937   4.085   4.887   4.526 -0.5231 -1.8638 -0.6322
   81MOL   H37830938   4.294   4.916   4.765 -0.9540 -0.7213  0.9419
   81MOL   H37930939   4.340   5.100   4.914  0.2851 -0.0958  0.2680
   81MOL   H38030940   4.308   5.408   4.868  0.1708 -0.2883  0.1561
   81MOL   H38130941   4.399   5.289   4.956  0.7372  1.3202 -0.7765
   81MOL   H38230942   4.347   5.438   5.042  3.4164 -0.1557  0.5095
   82MOL     C130943   0.458   5.244   7.503  1.0622 -0.0780  0.3028
   82MOL     C230944   0.591   5.169   7.505 -0.7601 -0.0953 -0.9622
   82MOL     C330945   0.685   5.182   7.609  0.4212  0.3527 -0.1581
   82MOL     C430946   0.798   5.107   7.616  0.6550  0.3085  0.6383
   82MOL     C530947   0.823   5.012   7.513 -0.3249  0.0334  0.5259
   82MOL     C630948   0.947   4.927   7.522  0.3122 -0.1651  0.0735
   82MOL     C730949   0.738   5.001   7.400  0.1050  0.1690 -0.3869
   82MOL     C830950   0.618   5.079   7.399  0.8137 -0.0525 -0.0380
   82MOL     C930951   0.334   5.157   7.553 -0.6726  0.0169 -0.7516
   82MOL    H1030952   0.467   5.335   7.562  1.9713  0.4040 -0.5455
   82MOL    H1130953   0.681   5.254   7.689 -0.5012  1.7104 -1.3976
   82MOL    H1230954   0.867   5.128   7.696 -1.6409 -0.1651  2.8009
   82MOL    H1330955   1.028   4.970   7.463  1.4086  1.9078  2.9841
   82MOL    H1430956   0.988   4.916   7.622  0.4559  1.2989  0.1857
   82MOL    H1530957   0.931   4.829   7.478  0.4606 -0.3637  0.4591
   82MOL    H1630958   0.765   4.946   7.311  1.2551 -0.5538  0.3841
   82MOL    H1730959   0.546   5.076   7.319  1.1351 -2.5805 -0.2625
   82MOL    H1830960   0.346   5.136   7.659 -1.1118  1.2136 -0.4605
   82MOL    H1930961   0.333   5.067   7.490  1.6727 -0.0450 -0.7520
   82MOL    H2030962   0.433   5.282   7.404 -1.1058 -0.3490  0.7216
   82MOL    C2130963   0.198   5.226   7.533  0.3763 -0.1048  0.6898
   82MOL    C2230964   0.080   5.170   7.621  0.2194 -0.4239  0.0338
   82MOL    C2330965   0.057   5.028   7.617  0.0713 -0.9096  0.7106
   82MOL    C2430966   8.026   4.971   7.683  0.0653 -0.8171 -0.5254
   82MOL    C2530967   7.937   5.050   7.766  0.3238  1.0538 -0.3693
   82MOL    C2630968   7.810   4.990   7.827  0.2506 -0.5464  0.3279
   82MOL    C2730969   7.977   5.184   7.777 -0.6800 -0.0321  0.5929
   82MOL    C2830970   8.072   5.248   7.697 -0.0397 -0.2957  0.5216
   82MOL    C2930971   0.160   5.252   7.379  0.3303  0.1716  0.3231
   82MOL    H3030972   0.191   5.327   7.571 -1.3755 -0.0531  0.2877
   82MOL    H3130973   0.113   4.966   7.549 -1.8489 -0.1688 -1.6380
   82MOL    H3230974   8.015   4.864   7.668 -0.5048 -0.7032 -0.9277
   82MOL    H3330975   7.829   4.951   7.926 -3.3170  0.9850  1.7127
   82MOL    H3430976   7.737   5.071   7.827 -0.9751 -1.6165 -1.7119
   82MOL    H3530977   7.779   4.907   7.764 -1.5274  0.3194  0.0230
   82MOL    H3630978   7.905   5.251   7.822  0.4824  2.3818 -1.0487
   82MOL    H3730979   0.007   5.354   7.712 -1.1278  0.1782 -1.6791
   82MOL    H3830980   0.178   5.158   7.326 -1.6537 -0.4145  0.6657
   82MOL    H3930981   0.233   5.322   7.337  1.8528 -0.1976  2.2937
   82MOL    C4030982   0.017   5.292   7.339 -0.2220 -0.2664  0.3973
   82MOL    C4130983   8.068   5.263   7.188  0.0713  0.1965 -0.4815
   82MOL    C4230984   0.039   5.342   7.084  0.0047 -0.1658  0.9092
   82MOL    C4330985   0.020   5.307   6.951  0.5358 -0.6421 -0.2682
   82MOL    C4430986   8.020   5.196   6.920 -0.1721  0.4896  0.0083
   82MOL    C4530987   7.999   5.148   6.772  0.2696 -0.6929 -0.0268
   82MOL    C4630988   7.958   5.123   7.029 -1.0555 -0.0346  0.7002
   82MOL    C4730989   7.997   5.148   7.159  0.8728 -0.0417  0.5584
   82MOL    C4830990   8.070   5.439   7.375  0.0677  0.3602  0.1586
   82MOL    H4930991   8.023   5.238   7.399  0.0620 -0.8051  0.2710
   82MOL    H5030992   0.103   5.424   7.113 -0.8877  1.5602 -1.8903
   82MOL    H5130993   0.076   5.352   6.870  0.8226 -1.0687 -0.3073
   82MOL    H5230994   8.026   5.043   6.768 -1.3290 -1.1507  0.8503
   82MOL    H5330995   7.896   5.159   6.738 -0.1917 -2.4880  0.7523
   82MOL    H5430996   8.069   5.203   6.708 -1.9215  0.2876 -1.6809
   82MOL    H5530997   7.889   5.042   7.010 -1.6887  0.7410 -0.3449
   82MOL    H5630998   7.964   5.084   7.240  0.3451  1.4125  1.5123
   82MOL    H5730999   0.047   5.511   7.316 -1.7070  0.9464 -0.8743
   82MOL    H5831000   0.011   5.465   7.479 -0.0755 -0.6399  0.4416
   82MOL    C5931001   7.920   5.491   7.364 -0.0486 -0.1569  0.2128
   82MOL    C6031002   7.927   5.638   7.341 -0.0363  0.6527 -0.4381
   82MOL    C6131003   7.874   5.727   7.443  0.1921 -0.5530 -0.4332
   82MOL    C6231004   7.860   5.865   7.410 -0.2029  0.7283 -0.0705
   82MOL    C6331005   7.895   5.909   7.283 -0.6202 -0.1221  0.3778
   82MOL    C6431006   7.869   6.058   7.255 -0.0062  0.5342 -0.2645
   82MOL    C6531007   7.956   5.829   7.187  0.3738  0.6052  0.2193
   82MOL    C6631008   7.977   5.693   7.217  0.5022  1.1570  0.1983
   82MOL    C6731009   7.830   5.442   7.468 -0.8138 -0.3468 -0.3433
   82MOL    H6831010   7.888   5.456   7.265  0.5339  3.9296 -1.4981
   82MOL    H6931011   7.848   5.692   7.542  1.4370  2.1298  0.8983
   82MOL    H7031012   7.829   5.930   7.490 -1.2656  0.0910  0.0374
   82MOL    H7131013   7.968   6.102   7.265 -0.3559  1.8500 -2.4901
   82MOL    H7231014   7.826   6.067   7.156  0.5911 -0.1750 -0.5912
   82MOL    H7331015   7.795   6.099   7.324 -2.3077 -0.5328 -2.0237
   82MOL    H7431016   7.994   5.872   7.095  1.9633 -3.3859 -1.1499
   82MOL    H7531017   8.014   5.624   7.142 -0.0260  0.9317  0.1490
   82MOL    H7631018   7.857   5.486   7.564 -0.9024 -2.2099  0.5594
   82MOL    H7731019   7.843   5.337   7.493  1.1379 -0.1560 -0.4603
   82MOL    C7831020   7.676   5.471   7.444 -0.0595  0.7583  0.0796
   82MOL    C7931021   7.606   5.441   7.576 -0.4962 -0.9425  1.1890
   82MOL    C8031022   7.609   5.313   7.621  0.0962  0.8395 -0.2928
   82MOL    C8131023   7.552   5.277   7.742  0.6541 -0.5361 -0.6881
   82MOL    C8231024   7.489   5.370   7.823  0.2804 -0.1910  0.1591
   82MOL    C8331025   7.433   5.317   7.957 -0.2439 -0.4651  0.2611
   82MOL    C8431026   7.478   5.503   7.773  0.1694  0.5435 -0.1685
   82MOL    C8531027   7.536   5.530   7.649 -0.1420  0.2275 -0.4654
   82MOL    C8631028   7.628   5.384   7.329  0.0028  0.0505  0.0731
   82MOL    H8731029   7.661   5.576   7.417 -2.4009  0.2570 -0.6484
   82MOL    H8831030   7.661   5.240   7.561 -1.9163 -1.5283  0.7474
   82MOL    H8931031   7.556   5.176   7.780 -0.4927 -0.7887 -1.2053
   82MOL    H9031032   7.467   5.373   8.044  1.8974 -0.7847 -0.3423
   82MOL    H9131033   7.327   5.341   7.963 -0.2027  0.0438 -0.9346
   82MOL    H9231034   7.462   5.220   7.998  0.2687 -0.0209  0.9789
   82MOL    H9331035   7.427   5.574   7.837 -0.1509  0.3245 -0.1785
   82MOL    H9431036   7.535   5.632   7.613  2.9892 -0.1184 -1.6467
   82MOL    H9531037   7.526   5.355   7.351  0.2050 -0.4589  0.3439
   82MOL    H9631038   7.674   5.286   7.343 -0.7956 -0.5166 -1.2150
   82MOL    C9731039   7.621   5.447   7.187  0.1430 -0.1297 -0.0530
   82MOL    C9831040   7.541   5.580   7.177 -0.1592  0.2196 -0.3250
   82MOL    C9931041   7.407   5.587   7.215 -0.4933  0.3169 -0.1792
   82MOL   C10031042   7.328   5.701   7.195  0.0079 -0.3503  0.7607
   82MOL   C10131043   7.396   5.824   7.162  0.4163 -0.2021  0.1696
   82MOL   C10231044   7.329   5.956   7.141 -0.1285 -0.6319 -0.3226
   82MOL   C10331045   7.535   5.822   7.132  0.2740 -0.0167  0.7071
   82MOL   C10431046   7.606   5.702   7.141  0.1204 -0.5182  0.0466
   82MOL   C10531047   7.574   5.345   7.077  0.1007  0.8238 -0.0868
   82MOL   H10631048   7.723   5.473   7.159  0.6075 -0.5534  1.2159
   82MOL   H10731049   7.352   5.499   7.246 -1.0530  0.2911 -1.2269
   82MOL   H10831050   7.221   5.712   7.210  0.2504  0.2622  2.1107
   82MOL   H10931051   7.376   5.995   7.051 -0.4498 -0.9220 -0.6168
   82MOL   H11031052   7.222   5.933   7.133  0.0132 -0.6444 -2.5531
   82MOL   H11131053   7.330   6.026   7.225  2.0460 -0.6726 -0.2999
   82MOL   H11231054   7.580   5.919   7.116 -1.0168  0.5776  0.5614
   82MOL   H11331055   7.711   5.710   7.115 -0.0642  0.0643 -0.5382
   82MOL   H11431056   7.469   5.319   7.091 -0.0002  1.2322 -0.0736
   82MOL   H11531057   7.634   5.254   7.078 -0.7826  0.2319  2.1929
   82MOL   C11631058   7.587   5.410   6.937 -0.0809  0.4335 -0.3285
   82MOL   C11731059   7.474   5.351   6.845  0.0509 -0.4307  0.0393
   82MOL   C11831060   7.488   5.224   6.792  0.4420 -0.6442 -1.1496
   82MOL   C11931061   7.378   5.181   6.720  0.9802  0.4062  0.0281
   82MOL   C12031062   7.251   5.245   6.707  0.1157 -0.1934 -0.2887
   82MOL   C12131063   7.131   5.179   6.639  0.5835  0.1667  0.4144
   82MOL   C12231064   7.244   5.369   6.751 -0.4646 -0.0410 -0.3539
   82MOL   C12331065   7.358   5.427   6.815 -0.1078  0.2664 -0.6700
   82MOL   C12431066   7.720   5.419   6.873  0.7121  0.1333  0.0254
   82MOL   H12531067   7.548   5.511   6.951  0.4143  0.3436  1.9338
   82MOL   H12631068   7.580   5.169   6.804 -0.0081 -0.7970  1.9496
   82MOL   H12731069   7.403   5.090   6.668  1.2523  0.9696 -0.8294
   82MOL   H12831070   7.032   5.220   6.659 -0.7716 -2.5579 -0.3871
   82MOL   H12931071   7.153   5.191   6.533 -0.8365 -0.0900  0.0806
   82MOL   H13031072   7.126   5.073   6.662 -0.9276 -0.0489 -0.8297
   82MOL   H13131073   7.152   5.425   6.741 -0.8493 -0.6679 -0.3768
   82MOL   H13231074   7.342   5.513   6.878  0.9657 -0.4351  0.5907
   82MOL   H13331075   7.758   5.322   6.840 -0.5211 -1.1222  2.1912
   82MOL   H13431076   7.793   5.457   6.944 -1.2052  1.0870  1.5002
   82MOL   C13531077   7.739   5.511   6.749  0.3570  0.1814 -1.2070
   82MOL   C13631078   7.837   5.461   6.643  0.5477  0.5103  0.3896
   82MOL   C13731079   7.785   5.391   6.532  0.3307  0.2937  0.4807
   82MOL   C13831080   7.865   5.334   6.433 -0.3960  0.1160  0.3313
   82MOL   C13931081   8.004   5.353   6.448 -0.5692  0.2733  0.5423
   82MOL   C14031082   0.021   5.322   6.335 -0.2317 -0.5550 -0.5438
   82MOL   C14131083   8.059   5.420   6.561  0.0294  0.5144 -0.0294
   82MOL   C14231084   7.976   5.476   6.663 -0.2965 -0.1491  0.6082
   82MOL   C14331085   7.773   5.650   6.795 -0.0134  0.1541  0.1620
   82MOL   H14431086   7.638   5.510   6.709  0.1132 -2.2123 -0.6223
   82MOL   H14531087   7.678   5.381   6.529  0.2021  1.9912 -1.6996
   82MOL   H14631088   7.822   5.276   6.352 -0.7649  0.4155  0.3125
   82MOL   H14731089   0.044   5.418   6.289 -0.0888 -0.9674 -1.3433
   82MOL   H14831090   0.106   5.273   6.382  1.4070  0.0932 -2.7414
   82MOL   H14931091   8.066   5.254   6.257  1.3560 -0.5923 -1.2439
   82MOL   H15031092   0.086   5.438   6.552 -0.0507  1.1232  0.2173
   82MOL   H15131093   8.012   5.549   6.733 -0.2435 -0.9948  1.4649
   82MOL   H15231094   7.862   5.644   6.858  0.5785 -0.8797 -0.7489
   82MOL   H15331095   7.702   5.686   6.869  1.0696  1.7283  0.4747
   82MOL   C15431096   7.791   5.760   6.689  0.5995  0.1656 -0.1579
   82MOL   C15531097   7.821   5.895   6.762  0.3012 -0.0350  0.1702
   82MOL   C15631098   7.723   5.954   6.848 -0.7454 -0.2538 -0.4977
   82MOL   C15731099   7.745   6.087   6.887 -0.0120  0.0829 -0.3721
   82MOL   C15831100   7.860   6.160   6.858 -0.4868 -0.5957 -0.6000
   82MOL   C15931101   7.882   6.301   6.888  0.7571  0.0407 -0.3221
   82MOL   C16031102   7.966   6.090   6.791 -0.4978 -0.4269  0.8201
   82MOL   C16131103   7.945   5.958   6.747  0.3136  0.6743  0.0533
   82MOL   C16231104   7.669   5.769   6.591 -0.2789  0.0316 -0.4826
   82MOL   H16331105   7.883   5.730   6.638  1.8763  0.0340  2.1865
   82MOL   H16431106   7.630   5.909   6.882 -0.6575  0.5584  0.8287
   82MOL   H16531107   7.673   6.144   6.944 -0.4114  0.5223 -1.3068
   82MOL   H16631108   7.805   6.361   6.840 -1.0239 -0.6354  1.6015
   82MOL   H16731109   7.880   6.318   6.996  0.5067 -0.2798 -0.2779
   82MOL   H16831110   7.986   6.320   6.860  0.6675  3.8184  1.5408
   82MOL   H16931111   8.062   6.132   6.766 -0.8829  0.6198  1.0577
   82MOL   H17031112   8.011   5.906   6.680 -0.9391 -0.4067 -0.3416
   82MOL   H17131113   7.583   5.763   6.657 -0.3744 -0.0130 -0.6107
   82MOL   H17231114   7.663   5.677   6.534 -1.0567  0.2550 -0.7715
   82MOL   C17331115   7.657   5.887   6.494  0.0735  0.3534  0.3178
   82MOL   C17431116   7.510   5.923   6.450 -0.3228  0.5017  0.7950
   82MOL   C17531117   7.469   6.061   6.478 -0.4719  0.2024  0.3323
   82MOL   C17631118   7.340   6.100   6.468 -0.5894 -0.0578 -0.0650
   82MOL   C17731119   7.248   6.003   6.412  0.0472 -0.3310  0.3830
   82MOL   C17831120   7.102   6.036   6.378 -0.1477  0.8065  0.0967
   82MOL   C17931121   7.293   5.871   6.367 -0.0304 -0.5138 -0.0841
   82MOL   C18031122   7.420   5.829   6.400 -0.9399  0.0893  0.2077
   82MOL   C18131123   7.759   5.888   6.375 -0.7482 -0.6570 -0.7192
   82MOL   H18231124   7.686   5.974   6.554  0.2150  0.6395 -0.1565
   82MOL   H18331125   7.541   6.135   6.510 -1.1276  0.8189  0.3815
   82MOL   H18431126   7.293   6.194   6.491 -1.1044 -0.1385 -0.7707
   82MOL   H18531127   7.040   5.953   6.411  0.7304  0.9063  2.0616
   82MOL   H18631128   7.064   6.123   6.431  0.7007  0.7856  0.7635
   82MOL   H18731129   7.084   6.048   6.271 -0.6590 -0.2698  0.0555
   82MOL   H18831130   7.221   5.802   6.326  0.0667 -0.0741 -0.9985
   82MOL   H18931131   7.451   5.728   6.377 -3.7681 -0.7838  0.0965
   82MOL   H19031132   7.715   5.820   6.301 -2.1099  0.1908 -0.7135
   82MOL   H19131133   7.851   5.832   6.392 -2.4162 -3.4043 -0.3587
   82MOL   C19231134   7.787   6.020   6.293  0.4394  0.0577 -1.1132
   82MOL   C19331135   7.877   5.985   6.181 -1.0203  0.1157  0.1604
   82MOL   C19431136   7.818   5.963   6.052 -0.2232  1.0410 -0.7872
   82MOL   C19531137   7.906   5.928   5.948 -0.0505  0.3668 -0.0114
   82MOL   C19631138   8.047   5.935   5.962  0.1248  0.0668  0.3114
   82MOL   C19731139   0.057   5.908   5.841 -0.1230 -0.5486 -0.4753
   82MOL   C19831140   0.025   5.954   6.089 -0.5830  0.5194 -0.1222
   82MOL   C19931141   8.016   5.974   6.199 -0.4028 -0.2081 -0.1594
   82MOL   C20031142   7.853   6.124   6.393 -0.0610 -0.0965  0.4808
   82MOL   H20131143   7.694   6.058   6.252  0.2837 -0.1273 -0.9313
   82MOL   H20231144   7.711   5.971   6.040 -0.3981 -0.5959 -0.4842
   82MOL   H20331145   7.857   5.894   5.857  1.5122 -0.1298 -0.6876
   82MOL   H20431146   0.063   5.991   5.770 -1.6416  0.8537  0.9825
   82MOL   H20531147   0.154   5.865   5.866  0.1166 -1.6141 -3.1045
   82MOL   H20631148   0.002   5.834   5.783 -0.7984  0.5068 -1.2031
   82MOL   H20731149   0.131   5.967   6.105 -0.6518  0.1598  0.6360
   82MOL   H20831150   8.067   6.003   6.290  1.8984 -0.3713 -1.3769
   82MOL   H20931151   7.943   6.074   6.430 -0.2023 -0.1249  0.7882
   82MOL   H21031152   7.794   6.139   6.483 -0.9232 -0.7878  0.0368
   82MOL   C21131153   7.883   6.260   6.328 -0.6081  0.7772  0.3520
   82MOL   C21231154   8.007   6.328   6.396 -0.1538  1.1355 -0.9641
   82MOL   C21331155   0.033   6.383   6.319 -0.3531 -0.2750 -0.1439
   82MOL   C21431156   0.136   6.450   6.386  0.0599 -0.1846 -0.5749
   82MOL   C21531157   0.141   6.458   6.523 -0.2896 -1.1683  0.1882
   82MOL   C21631158   0.249   6.543   6.584 -0.1868 -0.0102 -0.0404
   82MOL   C21731159   0.052   6.379   6.598 -0.2809 -0.6489 -0.4609
   82MOL   C21831160   8.025   6.319   6.536  0.1666 -0.5747 -0.0623
   82MOL   C21931161   7.756   6.343   6.346 -0.5323 -0.6264  0.3559
   82MOL   H22031162   7.898   6.258   6.220 -0.1140 -0.2497  0.4353
   82MOL   H22131163   0.030   6.379   6.211  0.9291 -1.5722 -0.1470
   82MOL   H22231164   0.216   6.501   6.335  0.0598 -1.2654 -1.6749
   82MOL   H22331165   0.233   6.649   6.568  2.8385  0.3304 -1.1028
   82MOL   H22431166   0.243   6.525   6.692 -0.1821  1.1835  0.1564
   82MOL   H22531167   0.343   6.507   6.544 -0.5116 -2.4072  1.2111
   82MOL   H22631168   0.054   6.380   6.706  2.2378  1.9476 -0.4917
   82MOL   H22731169   7.952   6.268   6.598 -0.9925 -0.4071 -1.2922
   82MOL   H22831170   7.671   6.275   6.337 -0.1624 -0.9485 -0.8062
   82MOL   H22931171   7.758   6.411   6.261  3.2110 -0.1626  0.7685
   82MOL   C23031172   7.733   6.428   6.474  0.6084 -0.1186  0.2226
   82MOL   C23131173   7.589   6.420   6.528  0.4548  0.2741 -0.0415
   82MOL   C23231174   7.486   6.484   6.463  0.1009  0.2531 -0.0934
   82MOL   C23331175   7.352   6.477   6.505 -0.1662 -0.5697 -0.5230
   82MOL   C23431176   7.320   6.412   6.625  0.3693 -0.2505 -0.1436
   82MOL   C23531177   7.179   6.411   6.671 -0.2690 -0.4122 -0.2786
   82MOL   C23631178   7.426   6.347   6.692 -0.4658  0.2089 -0.2170
   82MOL   C23731179   7.558   6.349   6.650  0.9182 -0.5750 -0.8898
   82MOL   C23831180   7.782   6.575   6.461 -0.5056  0.2166 -0.0849
   82MOL   H23931181   7.786   6.375   6.553  0.5776 -1.3027 -0.5354
   82MOL   H24031182   7.508   6.539   6.373  1.0045  1.0337  0.6019
   82MOL   H24131183   7.269   6.509   6.443 -0.7843  1.5403  1.3267
   82MOL   H24231184   7.155   6.330   6.739  1.0337 -1.2066 -0.7410
   82MOL   H24331185   7.165   6.509   6.717  1.8394 -0.3290  0.2554
   82MOL   H24431186   7.117   6.396   6.583 -1.0202 -0.4629  0.2578
   82MOL   H24531187   7.409   6.302   6.789 -1.3763  0.4264 -0.2714
   82MOL   H24631188   7.635   6.293   6.701 -0.0268  0.3859  1.7107
   82MOL   H24731189   7.718   6.629   6.392 -0.9789  1.3108  1.1870
   82MOL   H24831190   7.881   6.582   6.416 -0.3341 -0.2535  0.2143
   82MOL   C24931191   7.790   6.663   6.591  0.7886 -0.5531  0.3671
   82MOL   C25031192   7.777   6.810   6.544  0.3672 -0.5863  0.1786
   82MOL   C25131193   7.650   6.872   6.541 -0.6549  0.6469 -0.6422
   82MOL   C25231194   7.640   7.003   6.496 -0.2876 -0.3922  0.4899
   82MOL   C25331195   7.760   7.072   6.446  0.1763 -0.8553 -0.2806
   82MOL   C25431196   7.759   7.210   6.381 -0.1501  0.0007  0.1003
   82MOL   C25531197   7.883   7.008   6.443  0.5914  0.1358  0.8716
   82MOL   C25631198   7.890   6.876   6.493 -0.3024  0.5600  0.3894
   82MOL   C25731199   7.910   6.632   6.686 -0.0508  0.0758  0.4610
   82MOL   H25831200   7.699   6.641   6.647  1.6220 -1.5917  1.3445
   82MOL   H25931201   7.566   6.812   6.572 -0.2089  0.0954 -0.4930
   82MOL   H26031202   7.546   7.056   6.500 -0.4553 -0.7923  2.3827
   82MOL   H26131203   7.859   7.253   6.375 -0.0881 -0.3696 -1.5527
   82MOL   H26231204   7.736   7.204   6.275  0.8983 -1.1838 -0.0683
   82MOL   H26331205   7.689   7.283   6.422  0.2358  0.6359 -0.3657
   82MOL   H26431206   7.973   7.050   6.399 -0.0132  1.4158  0.8174
   82MOL   H26531207   7.989   6.835   6.484 -1.0270 -1.0558 -0.3147
   82MOL   H26631208   8.005   6.617   6.635  0.4404  1.2332  0.9932
   82MOL   H26731209   7.889   6.541   6.740  0.6946 -1.0185 -1.0501
   82MOL   C26831210   7.930   6.746   6.797  0.2772 -0.2102  0.3739
   82MOL   C26931211   8.066   6.732   6.865 -0.1329  0.0434  0.2711
   82MOL   C27031212   0.093   6.822   6.835  0.0226 -0.3215 -0.1267
   82MOL   C27131213   0.221   6.792   6.889  0.8610  0.4624 -0.0236
   82MOL   C27231214   0.233   6.692   6.985 -0.9265 -0.4806 -0.5290
   82MOL   C27331215   0.366   6.654   7.051  0.3202  0.0073  0.2949
   82MOL   C27431216   0.130   6.609   7.018 -0.0080 -0.5232  0.1170
   82MOL   C27531217   0.000   6.624   6.961 -0.2356 -0.2364 -0.0229
   82MOL   C27631218   7.804   6.772   6.884 -0.8666  0.2883 -0.4784
   82MOL   H27731219   7.934   6.839   6.740  0.8933  0.6350  1.7564
   82MOL   H27831220   0.074   6.911   6.777  1.8785 -1.6790 -2.8986
   82MOL   H27931221   0.306   6.850   6.854  1.2443 -0.5012 -0.7035
   82MOL   H28031222   0.386   6.719   7.137  1.9522  2.2475 -1.7088
   82MOL   H28131223   0.365   6.550   7.085  0.4746  0.3084  1.2470
   82MOL   H28231224   0.444   6.678   6.979 -0.6207  1.3845 -0.2876
   82MOL   H28331225   0.140   6.523   7.082  1.8011 -1.2615 -1.1162
   82MOL   H28431226   8.010   6.547   6.990  0.3684 -0.3525  1.1884
   82MOL   H28531227   7.798   6.692   6.958 -1.4948 -0.3083 -1.1700
   82MOL   H28631228   7.711   6.766   6.826 -0.2171 -1.4808 -1.3841
   82MOL   C28731229   7.779   6.906   6.943 -0.4267 -1.1132  0.5698
   82MOL   C28831230   7.693   6.881   7.070 -0.1045 -0.5500 -0.3496
   82MOL   C28931231   7.741   6.904   7.202 -0.2008 -0.0807 -0.1909
   82MOL   C29031232   7.662   6.883   7.315 -0.4272 -0.0432 -0.0237
   82MOL   C29131233   7.527   6.864   7.300 -0.3646  0.2278 -0.1144
   82MOL   C29231234   7.433   6.859   7.423  0.0923 -0.7926  0.3314
   82MOL   C29331235   7.475   6.841   7.174 -0.0871  0.1438 -0.4166
   82MOL   C29431236   7.559   6.851   7.060 -0.3400  0.3687  0.4329
   82MOL   C29531237   7.714   7.010   6.845  0.1190  0.1559 -0.1035
   82MOL   H29631238   7.879   6.942   6.971 -0.5725 -1.0406  0.9938
   82MOL   H29731239   7.842   6.939   7.217 -0.2150  0.9817 -2.3605
   82MOL   H29831240   7.704   6.892   7.415  1.6832 -2.7826 -0.6090
   82MOL   H29931241   7.339   6.913   7.411 -1.7876 -3.1598  3.5333
   82MOL   H30031242   7.396   6.763   7.460 -0.9369 -0.1814  0.9003
   82MOL   H30131243   7.484   6.904   7.508  0.7212 -0.7888 -0.0460
   82MOL   H30231244   7.371   6.815   7.163 -0.7774  1.9668  1.3777
   82MOL   H30331245   7.510   6.840   6.964  0.0710 -2.2426  0.4820
   82MOL   H30431246   7.633   6.955   6.796  1.4552 -2.2732  0.2991
   82MOL   H30531247   7.772   7.043   6.759  1.6618 -0.0659  0.8366
   82MOL   C30631248   7.667   7.141   6.917 -0.9748  0.3324  0.3405
   82MOL   C30731249   7.548   7.200   6.842 -0.0391  0.1467  0.2663
   82MOL   C30831250   7.424   7.188   6.901  0.1201 -0.4229 -0.2701
   82MOL   C30931251   7.309   7.237   6.835  0.1761  0.2732  0.2242
   82MOL   C31031252   7.318   7.291   6.703 -0.2318  0.4018  0.7294
   82MOL   C31131253   7.190   7.331   6.630  0.2261 -0.6194  0.3117
   82MOL   C31231254   7.447   7.295   6.646  0.1053  0.1291  0.2031
   82MOL   C31331255   7.563   7.242   6.707 -0.0573 -0.2141 -0.9352
   82MOL   C31431256   7.769   7.255   6.944 -0.2633  0.2740 -0.3635
   82MOL   H31531257   7.632   7.106   7.014 -0.2098 -2.9323 -0.4983
   82MOL   H31631258   7.406   7.151   7.001  1.6401  1.0280  0.5558
   82MOL   H31731259   7.209   7.226   6.873  0.7881  0.6187  1.9911
   82MOL   H31831260   7.209   7.422   6.573 -1.7078  0.0838  0.7452
   82MOL   H31931261   7.157   7.249   6.566 -1.6741 -0.7379  1.3984
   82MOL   H32031262   7.097   7.344   6.686 -0.3168  0.7470 -0.8606
   82MOL   H32131263   7.452   7.348   6.551 -2.7456  0.0379 -0.0472
   82MOL   H32231264   7.656   7.258   6.654 -0.2920  2.1650 -0.7135
   82MOL   H32331265   7.784   7.322   6.860 -0.1879  0.0941 -0.4946
   82MOL   H32431266   7.863   7.201   6.959 -0.0232  0.7657 -0.0606
   82MOL   C32531267   7.741   7.339   7.069 -0.5262 -0.1669  0.3782
   82MOL   C32631268   7.812   7.472   7.060  0.8007 -0.7272  0.0998
   82MOL   C32731269   7.954   7.476   7.027  0.2009 -0.6361 -0.0417
   82MOL   C32831270   8.017   7.604   7.026 -0.3511  0.2977  0.2917
   82MOL   C32931271   7.937   7.718   7.033  0.7296  0.5636 -0.0684
   82MOL   C33031272   7.997   7.857   6.996  0.0909  0.4656  1.3864
   82MOL   C33131273   7.800   7.717   7.050 -0.2132 -0.1218 -0.3846
   82MOL   C33231274   7.742   7.594   7.067 -1.0103  0.3321  0.1100
   82MOL   C33331275   7.793   7.262   7.192  0.7021  0.7088  0.6741
   82MOL   H33431276   7.633   7.344   7.086 -0.7732 -3.6352  0.1575
   82MOL   H33531277   8.011   7.386   7.012  1.5026 -0.2152  2.1094
   82MOL   H33631278   0.043   7.617   7.004 -0.5824 -0.0841 -1.1387
   82MOL   H33731279   0.014   7.847   6.946 -0.7598 -0.7616 -0.0651
   82MOL   H33831280   7.935   7.893   6.914  1.9990  1.7261  0.4306
   82MOL   H33931281   8.024   7.929   7.073  3.1068 -0.1206  0.9527
   82MOL   H34031282   7.737   7.804   7.040  0.7852  0.6932  0.3170
   82MOL   H34131283   7.635   7.597   7.077 -1.1900 -0.6424 -1.5145
   82MOL   H34231284   7.899   7.239   7.177  0.0606 -1.7029 -0.4800
   82MOL   H34331285   7.746   7.163   7.189 -0.1997  1.1676 -0.6336
   82MOL   C34431286   7.775   7.329   7.327  0.1031 -0.6901 -0.3777
   82MOL   C34531287   7.875   7.275   7.430 -0.1925  0.2290 -0.1237
   82MOL   C34631288   7.971   7.366   7.483 -0.1084  0.0402  0.0580
   82MOL   C34731289   8.056   7.330   7.585  0.1496  0.0889  0.4788
   82MOL   C34831290   8.057   7.195   7.623  0.7642  0.2331  0.2187
   82MOL   C34931291   0.074   7.148   7.729 -0.4040  0.0968 -0.0747
   82MOL   C35031292   7.974   7.103   7.564  0.3799 -0.4651  0.2969
   82MOL   C35131293   7.876   7.140   7.468  0.9099 -0.8564 -0.0428
   82MOL   C35231294   7.633   7.315   7.378 -0.3871  0.0234  0.2886
   82MOL   H35331295   7.807   7.433   7.314 -0.5389 -0.4395 -0.0278
   82MOL   H35431296   7.974   7.471   7.456 -0.1697 -0.1693 -0.7517
   82MOL   H35531297   0.039   7.404   7.632 -1.2282  2.3862 -1.1906
   82MOL   H35631298   0.038   7.196   7.820  0.8101 -0.1714  0.5597
   82MOL   H35731299   0.057   7.043   7.753 -0.9053  0.6932  2.3132
   82MOL   H35831300   0.178   7.177   7.716  0.0512 -0.6668  1.6952
   82MOL   H35931301   7.983   6.999   7.589  1.2312 -0.8905 -1.6916
   82MOL   H36031302   7.809   7.064   7.432 -0.3577 -0.1880  0.8453
   82MOL   H36131303   7.606   7.211   7.394  1.3799 -0.9631 -2.6603
   82MOL   H36231304   7.567   7.356   7.301 -0.6258  1.4864  1.2610
   82MOL   C36331305   7.610   7.410   7.500  0.9777  0.6551 -0.3263
   82MOL   C36431306   7.500   7.353   7.589 -0.1014  0.1518 -0.0602
   82MOL   C36531307   7.534   7.274   7.700 -0.8921 -0.7840  0.5681
   82MOL   C36631308   7.431   7.232   7.785  0.1476 -0.7282 -0.1674
   82MOL   C36731309   7.295   7.254   7.755  0.0482 -0.1763 -0.4298
   82MOL   C36831310   7.181   7.188   7.833 -0.2893  0.6251 -0.0958
   82MOL   C36931311   7.263   7.332   7.643  0.6516  0.3263 -0.2951
   82MOL   C37031312   7.365   7.377   7.563 -0.2145 -0.2776 -1.1581
   82MOL   C37131313   7.573   7.559   7.465  0.1143 -0.3195  0.0124
   82MOL   H37231314   7.695   7.401   7.566 -0.2533 -0.6113  1.1179
   82MOL   H37331315   7.640   7.257   7.715 -0.5790  1.1249  0.7021
   82MOL   H37431316   7.457   7.180   7.875  1.1391  0.6374  0.3542
   82MOL   H37531317   7.133   7.272   7.883  0.5135  1.6809 -1.0640
   82MOL   H37631318   7.102   7.153   7.767  0.5744  0.9319 -1.2974
   82MOL   H37731319   7.218   7.107   7.896 -0.1618 -0.3921 -1.4678
   82MOL   H37831320   7.160   7.349   7.616  0.1213 -0.2556  1.3329
   82MOL   H37931321   7.354   7.447   7.481  0.9739 -0.8137 -1.7729
   82MOL   H38031322   7.659   7.612   7.426  0.7313 -0.3261  1.3301
   82MOL   H38131323   7.539   7.608   7.557 -2.2054 -0.5305 -0.6849
   82MOL   H38231324   7.502   7.570   7.383 -0.2809  1.6514  0.5953
   83MOL     C131325   2.881   6.834   7.086 -0.0795  0.1732 -0.5314
   83MOL     C231326   2.846   6.970   7.032 -0.1839  0.3609 -0.4865
   83MOL     C331327   2.922   7.027   6.931 -0.1998 -0.4434  0.1769
   83MOL     C431328   2.889   7.156   6.890  0.2073 -0.2064 -0.1520
   83MOL     C531329   2.778   7.224   6.941 -0.3280  0.3667 -0.2797
   83MOL     C631330   2.742   7.360   6.890 -0.6363  0.0168  0.7250
   83MOL     C731331   2.693   7.161   7.038 -0.5264 -0.5461 -0.2946
   83MOL     C831332   2.737   7.042   7.088 -0.3584 -0.6295  0.4283
   83MOL     C931333   2.783   6.720   7.041  0.6790 -0.5652  0.0289
   83MOL    H1031334   2.979   6.812   7.045  0.2790  0.4900  0.1661
   83MOL    H1131335   3.001   6.967   6.889 -0.2302  1.4688 -2.7575
   83MOL    H1231336   2.944   7.204   6.810 -0.5350  1.0648  0.0759
   83MOL    H1331337   2.680   7.416   6.960 -1.5798  0.8517 -0.7471
   83MOL    H1431338   2.834   7.419   6.888 -1.2385  0.9325 -2.3988
   83MOL    H1531339   2.704   7.368   6.789  0.3850 -0.0082  0.3280
   83MOL    H1631340   2.610   7.217   7.078 -0.0915 -1.9846  2.7285
   83MOL    H1731341   2.698   7.009   7.183 -0.4552  1.1626  1.0284
   83MOL    H1831342   2.741   6.752   6.946  1.5200  0.3431 -0.0452
   83MOL    H1931343   2.705   6.706   7.115  1.4806 -0.3855  0.9243
   83MOL    H2031344   2.888   6.842   7.194  0.7174 -0.9136 -0.5021
   83MOL    C2131345   2.865   6.586   7.020 -0.2529  0.1306 -0.4575
   83MOL    C2231346   2.790   6.484   6.942 -0.8108  0.7480  0.5752
   83MOL    C2331347   2.841   6.432   6.823  0.2659  0.3326 -0.8215
   83MOL    C2431348   2.777   6.336   6.750 -0.2016 -0.1782  0.4556
   83MOL    C2531349   2.660   6.271   6.803  0.1014 -0.3527 -0.0894
   83MOL    C2631350   2.615   6.136   6.734  0.2054 -0.0013 -0.4785
   83MOL    C2731351   2.602   6.317   6.924 -0.0711 -0.1686 -0.1550
   83MOL    C2831352   2.667   6.424   6.991  0.2962  0.3720  0.3320
   83MOL    C2931353   2.918   6.533   7.165 -0.3060  0.0350  0.0582
   83MOL    H3031354   2.948   6.614   6.954 -0.6651  2.8360  0.0915
   83MOL    H3131355   2.934   6.466   6.779 -0.3889 -0.8179 -3.1888
   83MOL    H3231356   2.818   6.290   6.662 -3.2712 -0.8830 -0.6800
   83MOL    H3331357   2.542   6.091   6.801  0.6164 -1.3005 -0.8797
   83MOL    H3431358   2.569   6.158   6.637  0.7804 -1.1830 -1.0253
   83MOL    H3531359   2.700   6.068   6.731  1.3501  1.3828  0.1189
   83MOL    H3631360   2.517   6.264   6.965  0.0413  1.0721  1.7276
   83MOL    H3731361   2.638   6.461   7.088 -2.1319 -0.0317 -0.2101
   83MOL    H3831362   2.830   6.506   7.222 -0.6478 -0.9485 -0.9263
   83MOL    H3931363   2.971   6.607   7.225  1.5234 -2.0182  1.0553
   83MOL    C4031364   2.998   6.396   7.159 -0.2604 -0.3869  0.0935
   83MOL    C4131365   2.943   6.290   7.252  0.4502 -0.2290  0.3370
   83MOL    C4231366   2.871   6.183   7.201 -0.3880  0.2885 -0.2619
   83MOL    C4331367   2.812   6.083   7.286  0.0022  0.5379  0.0763
   83MOL    C4431368   2.833   6.090   7.429  0.4001 -0.0617 -0.1761
   83MOL    C4531369   2.774   5.985   7.516 -0.4095  0.0700  0.4644
   83MOL    C4631370   2.908   6.198   7.481  0.5333 -0.2744 -0.3567
   83MOL    C4731371   2.957   6.294   7.392 -0.2408 -0.7350 -0.4610
   83MOL    C4831372   3.144   6.422   7.169  1.0836  0.2148 -0.5334
   83MOL    H4931373   2.986   6.366   7.055 -3.5081 -2.5330  0.9944
   83MOL    H5031374   2.845   6.160   7.099  0.1897 -0.3751 -0.2658
   83MOL    H5131375   2.760   6.000   7.242  1.0796  1.6509 -3.4945
   83MOL    H5231376   2.844   5.915   7.563 -0.0148 -0.1456 -0.4278
   83MOL    H5331377   2.731   6.043   7.597 -1.9424  1.6467 -1.4237
   83MOL    H5431378   2.693   5.942   7.458  1.0093 -2.8916  0.5937
   83MOL    H5531379   2.930   6.202   7.587 -1.1647  0.2504  0.0041
   83MOL    H5631380   3.023   6.373   7.424  0.6892 -1.7223  0.0870
   83MOL    H5731381   3.199   6.328   7.166 -0.1202 -0.6340  2.5160
   83MOL    H5831382   3.171   6.460   7.267  3.2989  3.2206 -2.2031
   83MOL    C5931383   3.205   6.514   7.062  0.1556  0.0335  0.4365
   83MOL    C6031384   3.197   6.457   6.915  0.1104 -0.5376 -0.5219
   83MOL    C6131385   3.217   6.321   6.890  0.1322 -0.7834 -0.2021
   83MOL    C6231386   3.220   6.272   6.754 -0.1069  0.1320 -0.2258
   83MOL    C6331387   3.209   6.366   6.649 -0.2269  0.4844 -0.5468
   83MOL    C6431388   3.235   6.323   6.508 -0.1911 -0.6096  0.6166
   83MOL    C6531389   3.175   6.498   6.674  0.5551 -0.3343  0.0112
   83MOL    C6631390   3.168   6.544   6.806 -0.2215 -0.3752  0.3874
   83MOL    C6731391   3.357   6.542   7.098 -0.0892 -0.0053  0.4231
   83MOL    H6831392   3.155   6.610   7.058  1.5030  0.8456  2.2445
   83MOL    H6931393   3.242   6.256   6.973 -1.1744 -0.2681  0.6247
   83MOL    H7031394   3.239   6.167   6.737 -0.8643  0.1511 -1.2872
   83MOL    H7131395   3.182   6.393   6.443  0.1404 -0.1231  0.8742
   83MOL    H7231396   3.340   6.310   6.484 -0.2567 -0.3335  0.1767
   83MOL    H7331397   3.185   6.229   6.486 -0.5956 -0.5796  1.3758
   83MOL    H7431398   3.177   6.569   6.592  2.8486 -1.1172 -0.6590
   83MOL    H7531399   3.145   6.646   6.832 -2.5290 -0.0998 -2.4186
   83MOL    H7631400   3.396   6.597   7.013 -0.1446  0.9524  1.0091
   83MOL    H7731401   3.404   6.443   7.093  1.2333  0.5662  1.3138
   83MOL    C7831402   3.393   6.629   7.218 -1.1848 -0.0834  0.5295
   83MOL    C7931403   3.308   6.763   7.238 -0.2010  0.5022 -0.6092
   83MOL    C8031404   3.247   6.785   7.365 -0.3112  0.1381  0.2479
   83MOL    C8131405   3.165   6.894   7.374 -0.0821  0.5559  0.0027
   83MOL    C8231406   3.147   6.984   7.263 -0.5241 -0.0586 -0.6507
   83MOL    C8331407   3.053   7.106   7.268 -0.3828 -0.6604  0.3521
   83MOL    C8431408   3.208   6.957   7.138 -0.8588 -0.4448 -0.7901
   83MOL    C8531409   3.292   6.847   7.129 -0.7281 -0.5191 -0.4305
   83MOL    C8631410   3.547   6.648   7.225 -0.1356 -0.1840  0.1929
   83MOL    H8731411   3.368   6.573   7.308 -0.4980 -0.3579  0.5510
   83MOL    H8831412   3.256   6.707   7.439 -0.3144 -0.1011 -0.0009
   83MOL    H8931413   3.111   6.925   7.462 -2.4561 -0.9183 -0.9095
   83MOL    H9031414   3.067   7.168   7.356 -1.5907 -1.2492  0.9765
   83MOL    H9131415   3.084   7.171   7.186  0.4085 -0.5305  0.7433
   83MOL    H9231416   2.949   7.077   7.257 -0.2978 -0.7230 -0.3064
   83MOL    H9331417   3.184   7.030   7.062 -0.9144  2.3380  1.8145
   83MOL    H9431418   3.339   6.823   7.035  0.2130 -1.8506  0.3503
   83MOL    H9531419   3.573   6.723   7.299 -0.3952  1.3036 -1.2016
   83MOL    H9631420   3.585   6.697   7.136  1.3947  0.9400  1.4511
   83MOL    C9731421   3.619   6.511   7.258 -0.5609  0.8134  0.0866
   83MOL    C9831422   3.645   6.490   7.405  0.2127 -0.1022 -0.3447
   83MOL    C9931423   3.733   6.386   7.448  0.4153 -0.4344 -0.1494
   83MOL   C10031424   3.774   6.372   7.584  0.2708 -0.8045  0.4497
   83MOL   C10131425   3.715   6.459   7.675  0.1453 -0.1191 -0.4380
   83MOL   C10231426   3.743   6.454   7.822  0.4621 -0.1544 -0.1124
   83MOL   C10331427   3.613   6.547   7.642 -0.0620 -0.7461 -0.1365
   83MOL   C10431428   3.586   6.570   7.506  0.4714  0.6667 -0.3090
   83MOL   C10531429   3.748   6.516   7.174 -0.7781 -0.2057 -0.1558
   83MOL   H10631430   3.558   6.432   7.213  0.7206  0.2790 -0.7560
   83MOL   H10731431   3.780   6.316   7.381  0.9710 -0.5032  0.3073
   83MOL   H10831432   3.851   6.299   7.602  0.0520 -1.2423 -0.3146
   83MOL   H10931433   3.817   6.376   7.838 -0.7004 -1.5725 -1.4288
   83MOL   H11031434   3.805   6.538   7.853 -0.4594  0.6937 -0.5211
   83MOL   H11131435   3.662   6.453   7.894  1.3288  2.5383  0.9405
   83MOL   H11231436   3.565   6.600   7.722  0.2636 -1.4030  0.4953
   83MOL   H11331437   3.511   6.644   7.484 -0.2042  0.3572  0.9386
   83MOL   H11431438   3.804   6.428   7.205 -0.5321  0.0617  0.1724
   83MOL   H11531439   3.806   6.605   7.198 -1.1823  0.4075 -1.4030
   83MOL   C11631440   3.734   6.502   7.018  0.8428 -0.4330  0.6724
   83MOL   C11731441   3.704   6.359   6.971 -0.0858 -0.5420  0.7939
   83MOL   C11831442   3.591   6.327   6.890 -0.6086 -0.0257 -0.2376
   83MOL   C11931443   3.575   6.195   6.841 -0.2362  0.1193 -0.1795
   83MOL   C12031444   3.667   6.097   6.868 -0.4532  0.1658  0.5020
   83MOL   C12131445   3.656   5.962   6.812 -0.9781  0.4373 -0.4022
   83MOL   C12231446   3.783   6.125   6.945 -0.7432  0.2363  0.7953
   83MOL   C12331447   3.799   6.254   6.996  0.1581  0.6796 -1.0420
   83MOL   C12431448   3.855   6.539   6.935  0.3532  0.3916 -0.7920
   83MOL   H12531449   3.644   6.550   6.979  1.7819  0.9918  0.2519
   83MOL   H12631450   3.524   6.404   6.852 -0.9612 -1.1740 -2.0169
   83MOL   H12731451   3.490   6.171   6.779 -0.1928 -0.1224 -0.1426
   83MOL   H12831452   3.647   5.954   6.704 -1.5818  1.4380 -0.4326
   83MOL   H12931453   3.746   5.906   6.840 -2.2752 -1.3806  0.1621
   83MOL   H13031454   3.576   5.917   6.870  1.8048 -0.4734  2.9669
   83MOL   H13131455   3.851   6.044   6.969 -1.2916 -0.7698 -0.9375
   83MOL   H13231456   3.889   6.278   7.050 -1.1705 -0.5732  1.8283
   83MOL   H13331457   3.850   6.488   6.838  0.9020  1.9069 -1.6377
   83MOL   H13431458   3.948   6.501   6.976 -0.7177 -1.0676  0.3340
   83MOL   C13531459   3.889   6.693   6.904  0.3412  0.1323 -0.6510
   83MOL   C13631460   3.759   6.775   6.881  0.9763  0.3380 -0.3843
   83MOL   C13731461   3.714   6.868   6.978  0.1886 -0.0848 -0.0543
   83MOL   C13831462   3.588   6.926   6.959 -0.6369  0.4420 -0.5519
   83MOL   C13931463   3.512   6.904   6.842  0.1210 -0.7422 -0.1268
   83MOL   C14031464   3.380   6.981   6.820  0.1461 -0.2632 -0.3794
   83MOL   C14131465   3.551   6.813   6.748 -0.1622 -0.0728  0.5235
   83MOL   C14231466   3.678   6.749   6.767  0.2470 -0.1090 -0.5053
   83MOL   C14331467   4.009   6.713   6.811  0.0417  0.4343  0.0180
   83MOL   H14431468   3.923   6.722   7.003  4.1000  1.2191 -2.2052
   83MOL   H14531469   3.773   6.882   7.068  1.3268  0.4838 -0.8741
   83MOL   H14631470   3.563   7.003   7.031  2.3788  1.5606 -0.6541
   83MOL   H14731471   3.404   7.056   6.744  0.2255  1.4434  1.3044
   83MOL   H14831472   3.307   6.908   6.786 -0.7939  2.0941 -3.7457
   83MOL   H14931473   3.355   7.036   6.911 -2.8317 -2.8615  0.4520
   83MOL   H15031474   3.495   6.800   6.657  0.8565 -1.0421  0.0212
   83MOL   H15131475   3.711   6.692   6.682 -0.5263 -0.7886 -0.3491
   83MOL   H15231476   3.988   6.661   6.717 -0.4016 -3.7038  2.2794
   83MOL   H15331477   4.097   6.669   6.857 -0.4980  0.0446  0.6766
   83MOL   C15431478   4.039   6.863   6.776  0.3005  0.1809 -0.0517
   83MOL   C15531479   4.130   6.878   6.656 -0.4927  0.1126  0.7490
   83MOL   C15631480   4.081   6.923   6.535  0.3220  0.2249 -0.1454
   83MOL   C15731481   4.169   6.949   6.425 -0.6469  0.2441  0.3059
   83MOL   C15831482   4.305   6.915   6.432  0.0915  0.4817 -0.2584
   83MOL   C15931483   4.397   6.953   6.321  0.6755 -0.1542  0.6689
   83MOL   C16031484   4.352   6.870   6.558  0.4575  0.0245 -0.0794
   83MOL   C16131485   4.266   6.838   6.661 -0.1222 -0.1659 -0.4808
   83MOL   C16231486   4.094   6.946   6.903  0.0886 -0.0695  0.4117
   83MOL   H16331487   3.945   6.913   6.753 -0.9968 -1.2094  2.1842
   83MOL   H16431488   3.980   6.958   6.519  0.1978 -0.4510 -0.8425
   83MOL   H16531489   4.133   7.005   6.341  0.2587 -2.4649 -1.9638
   83MOL   H16631490   4.500   6.972   6.353 -0.0977  3.1341  1.3471
   83MOL   H16731491   4.409   6.882   6.239 -1.5160  0.9706 -0.6631
   83MOL   H16831492   4.362   7.051   6.291  1.4915  0.3200  1.2372
   83MOL   H16931493   4.457   6.848   6.569  0.7753  0.0368 -2.7735
   83MOL   H17031494   4.310   6.795   6.750 -0.1128 -0.1550 -0.4797
   83MOL   H17131495   4.182   6.892   6.939  0.4618  0.1574 -0.1573
   83MOL   H17231496   4.022   6.931   6.983 -0.8079  0.6877 -0.2449
   83MOL   C17331497   4.125   7.095   6.891 -0.7131 -0.6988  0.2457
   83MOL   C17431498   4.233   7.115   6.997  0.1992  0.0186 -0.0354
   83MOL   C17531499   4.204   7.129   7.140 -0.2593  0.1654  0.1042
   83MOL   C17631500   4.309   7.162   7.225 -0.1196 -0.0037 -0.2080
   83MOL   C17731501   4.440   7.162   7.180  0.6154 -0.7218  0.3394
   83MOL   C17831502   4.554   7.191   7.278 -0.5394 -0.0668  1.4028
   83MOL   C17931503   4.473   7.148   7.044 -0.3179 -0.4711  0.3077
   83MOL   C18031504   4.368   7.121   6.953 -0.3088  0.1610 -0.5530
   83MOL   C18131505   4.008   7.190   6.909 -0.4630  0.5182 -0.1153
   83MOL   H18231506   4.169   7.123   6.796 -0.0820 -1.3007  0.3580
   83MOL   H18331507   4.104   7.122   7.181 -0.2737  1.0361  0.2383
   83MOL   H18431508   4.290   7.179   7.330 -0.9495  0.2629 -0.3966
   83MOL   H18531509   4.625   7.108   7.279  0.1780  0.5127  0.1308
   83MOL   H18631510   4.615   7.273   7.241 -0.3114 -1.4755 -1.4714
   83MOL   H18731511   4.520   7.211   7.380  1.8819  1.7337  1.8881
   83MOL   H18831512   4.573   7.169   7.011 -0.4276  0.7606  0.7606
   83MOL   H18931513   4.389   7.122   6.847  1.6275  1.1769 -0.1893
   83MOL   H19031514   4.055   7.283   6.940  2.7162 -1.1539  0.2660
   83MOL   H19131515   3.941   7.165   6.992  1.4185  1.4777  1.7227
   83MOL   C19231516   3.927   7.208   6.778  0.6807 -0.8422 -0.1152
   83MOL   C19331517   3.990   7.294   6.674  0.1274 -0.2528  0.0138
   83MOL   C19431518   4.034   7.418   6.717 -0.3098 -0.4074  0.2777
   83MOL   C19531519   4.099   7.507   6.624  0.2145  0.5077  0.0194
   83MOL   C19631520   4.096   7.475   6.487 -0.0466  0.1639 -0.2285
   83MOL   C19731521   4.135   7.571   6.374  0.3957 -0.1461 -0.3538
   83MOL   C19831522   4.046   7.350   6.445  0.2697 -0.0711 -0.4409
   83MOL   C19931523   4.003   7.256   6.540 -0.4450 -0.1645  0.2776
   83MOL   C20031524   3.782   7.252   6.809 -0.3225  0.0762  0.3439
   83MOL   H20131525   3.918   7.110   6.732 -3.9184  0.4065 -2.0713
   83MOL   H20231526   4.013   7.455   6.817 -2.9842 -0.5303 -0.1997
   83MOL   H20331527   4.149   7.595   6.661 -0.4679  0.5619  0.8158
   83MOL   H20431528   4.243   7.581   6.361  0.2082  1.1078 -1.0287
   83MOL   H20531529   4.088   7.540   6.281 -0.9380  1.1350 -0.1248
   83MOL   H20631530   4.099   7.674   6.384 -0.7886 -0.6363  0.5145
   83MOL   H20731531   4.043   7.325   6.341 -0.5098  1.6185 -0.8469
   83MOL   H20831532   3.983   7.158   6.499 -1.4653 -0.4419  1.3934
   83MOL   H20931533   3.789   7.344   6.868  0.5285  0.7097 -0.7207
   83MOL   H21031534   3.751   7.176   6.881 -0.2075  0.8276  1.1959
   83MOL   C21131535   3.690   7.276   6.690 -0.0021  0.6911  0.2162
   83MOL   C21231536   3.559   7.336   6.750 -0.1763  0.2816  0.0748
   83MOL   C21331537   3.489   7.429   6.677  0.2696 -0.8796 -0.1945
   83MOL   C21431538   3.360   7.477   6.719 -0.4424  0.4664  0.7980
   83MOL   C21531539   3.308   7.438   6.846  0.5337  0.1347  0.3126
   83MOL   C21631540   3.181   7.503   6.896  0.3769  0.1374  0.1936
   83MOL   C21731541   3.380   7.352   6.928 -0.3052  0.0194 -0.1302
   83MOL   C21831542   3.501   7.302   6.875 -0.3114 -0.4908  0.2612
   83MOL   C21931543   3.664   7.149   6.603  0.1858 -0.4754  0.0581
   83MOL   H22031544   3.733   7.353   6.626  2.8587  1.1633  2.6062
   83MOL   H22131545   3.529   7.461   6.581 -2.5628  0.1961 -1.0532
   83MOL   H22231546   3.307   7.535   6.644  1.2627  3.8478  2.0893
   83MOL   H22331547   3.135   7.586   6.842 -0.5961 -1.1098 -0.9380
   83MOL   H22431548   3.103   7.428   6.911  0.7472 -0.6555 -1.7413
   83MOL   H22531549   3.196   7.542   6.997  0.0811 -0.9607  0.6689
   83MOL   H22631550   3.350   7.331   7.029 -3.6772  0.1743 -1.0554
   83MOL   H22731551   3.541   7.220   6.933  1.8083 -0.1176 -0.6258
   83MOL   H22831552   3.617   7.087   6.679 -0.7192  0.0448 -0.0674
   83MOL   H22931553   3.756   7.105   6.565 -1.1693 -1.1600 -2.5655
   83MOL   C23031554   3.570   7.166   6.482 -0.6425  0.4218  0.6877
   83MOL   C23131555   3.523   7.029   6.443 -0.1311 -0.2052  0.3926
   83MOL   C23231556   3.392   6.995   6.451  0.4566  0.7116  0.1453
   83MOL   C23331557   3.343   6.868   6.417  0.4900 -0.1672 -0.4939
   83MOL   C23431558   3.431   6.770   6.369 -0.0551  0.3972  0.0668
   83MOL   C23531559   3.365   6.639   6.329  0.3536  0.0701 -0.0010
   83MOL   C23631560   3.566   6.804   6.349 -0.2009 -0.0714 -0.1459
   83MOL   C23731561   3.611   6.933   6.381 -0.2822 -0.1795 -0.0967
   83MOL   C23831562   3.638   7.240   6.363 -0.4406  0.1683  0.5436
   83MOL   H23931563   3.489   7.229   6.520 -0.7437  1.4442 -1.1869
   83MOL   H24031564   3.329   7.068   6.500 -0.9233  0.0889 -0.6537
   83MOL   H24131565   3.238   6.845   6.415  0.2749  0.8079 -0.5670
   83MOL   H24231566   3.271   6.655   6.276  0.0868 -1.4962 -0.0425
   83MOL   H24331567   3.434   6.581   6.268  0.6025 -0.1676  0.4999
   83MOL   H24431568   3.356   6.575   6.417 -2.0661 -1.5453 -1.3786
   83MOL   H24531569   3.642   6.738   6.310  1.6793  0.2876  2.7730
   83MOL   H24631570   3.717   6.948   6.366 -0.2622 -2.0692 -2.0941
   83MOL   H24731571   3.723   7.179   6.332 -1.5822 -1.1967  0.0421
   83MOL   H24831572   3.698   7.323   6.401 -1.1877  0.5003  1.0052
   83MOL   C24931573   3.537   7.293   6.263 -0.5739  0.6507 -0.2496
   83MOL   C25031574   3.618   7.298   6.134  0.9174 -0.4052 -0.1437
   83MOL   C25131575   3.717   7.400   6.106  0.5275  0.1384 -0.2925
   83MOL   C25231576   3.792   7.399   5.990 -1.3693  0.1553 -0.2732
   83MOL   C25331577   3.778   7.299   5.893 -0.4170  0.0165  0.0371
   83MOL   C25431578   3.867   7.290   5.768  0.3843 -0.0532  0.0306
   83MOL   C25531579   3.676   7.197   5.922  0.2416 -0.5022  0.1439
   83MOL   C25631580   3.605   7.190   6.043  0.1794 -0.1720 -0.4785
   83MOL   C25731581   3.466   7.428   6.288  0.6212  0.2521  0.0672
   83MOL   H25831582   3.457   7.219   6.253 -0.1387  0.0969  0.2651
   83MOL   H25931583   3.740   7.471   6.184 -0.6321 -3.2173  3.2435
   83MOL   H26031584   3.867   7.474   5.973 -1.4784  0.7824  1.8608
   83MOL   H26131585   3.842   7.202   5.709 -0.4268  1.1244 -1.4159
   83MOL   H26231586   3.856   7.375   5.701 -0.2444 -0.6822 -0.6788
   83MOL   H26331587   3.972   7.287   5.794  1.1821 -1.4204 -3.1262
   83MOL   H26431588   3.670   7.119   5.847  1.4953 -1.1144  0.6509
   83MOL   H26531589   3.532   7.111   6.050 -1.7291  1.4104 -1.8950
   83MOL   H26631590   3.534   7.513   6.293  0.7936  0.2956 -2.2238
   83MOL   H26731591   3.432   7.411   6.390  2.3300 -1.1706  0.4339
   83MOL   C26831592   3.340   7.458   6.194 -0.0118 -0.3829  0.1343
   83MOL   C26931593   3.391   7.529   6.069 -0.6044 -0.3255  0.0002
   83MOL   C27031594   3.414   7.448   5.954 -0.2810 -1.0624  0.5127
   83MOL   C27131595   3.463   7.509   5.832  0.5117 -0.0868 -0.9801
   83MOL   C27231596   3.519   7.635   5.842 -0.3338  0.6554  0.1668
   83MOL   C27331597   3.613   7.687   5.730  0.0416  0.2608  0.0568
   83MOL   C27431598   3.501   7.714   5.954  0.0816  0.4573 -0.7263
   83MOL   C27531599   3.437   7.663   6.066  0.1393 -0.2478  0.1545
   83MOL   C27631600   3.241   7.562   6.262  0.1737  0.4569  0.2221
   83MOL   H27731601   3.292   7.366   6.162 -0.8198  0.4555 -1.0841
   83MOL   H27831602   3.383   7.345   5.960  1.3556 -1.5505  0.6086
   83MOL   H27931603   3.478   7.454   5.740  1.3013 -1.1672 -0.2200
   83MOL   H28031604   3.678   7.751   5.791 -0.4827  1.7406 -0.9149
   83MOL   H28131605   3.676   7.610   5.686  0.2438  0.7813 -0.5722
   83MOL   H28231606   3.560   7.746   5.655  0.8500  1.5069  0.4376
   83MOL   H28331607   3.531   7.817   5.953 -0.9624  0.7803  0.4117
   83MOL   H28431608   3.426   7.731   6.148 -0.3089 -0.3951  0.2183
   83MOL   H28531609   3.196   7.635   6.195 -1.0839  0.9831  1.6125
   83MOL   H28631610   3.302   7.624   6.328 -0.7587  1.3170  0.2914
   83MOL   C28731611   3.132   7.502   6.358  0.1355  0.4681 -0.3052
   83MOL   C28831612   3.070   7.375   6.316 -0.2240  0.6040  0.4335
   83MOL   C28931613   3.122   7.251   6.348  0.2999  0.5690  0.0005
   83MOL   C29031614   3.066   7.128   6.305  0.2652  0.8267 -0.0980
   83MOL   C29131615   2.955   7.136   6.223  0.2047 -0.3989 -0.2491
   83MOL   C29231616   2.897   7.005   6.176  0.1122 -0.0776  0.6459
   83MOL   C29331617   2.900   7.259   6.180 -0.1532  0.4498  0.4093
   83MOL   C29431618   2.955   7.379   6.228 -0.3931  0.2971 -0.2690
   83MOL   C29531619   3.033   7.611   6.425 -0.7353 -0.3491  0.3445
   83MOL   H29631620   3.186   7.472   6.448  1.1258 -2.2791 -1.7913
   83MOL   H29731621   3.204   7.237   6.417 -1.0834  0.8218  1.7280
   83MOL   H29831622   3.105   7.029   6.320  0.6795  1.0997  0.6078
   83MOL   H29931623   2.883   7.023   6.070  2.7404  0.6766  0.3951
   83MOL   H30031624   2.954   6.912   6.182  0.5780 -0.0841 -3.1495
   83MOL   H30131625   2.805   6.990   6.233 -0.2365 -1.3070 -0.2153
   83MOL   H30231626   2.805   7.256   6.128 -0.5254 -1.4990  1.1261
   83MOL   H30331627   2.904   7.471   6.204 -1.3909 -0.2821 -0.4070
   83MOL   H30431628   2.965   7.641   6.344 -0.6532 -1.0976 -0.0069
   83MOL   H30531629   3.079   7.709   6.434 -0.4195 -0.4749  0.1350
   83MOL   C30631630   2.958   7.579   6.559  0.1057  0.1075  0.5415
   83MOL   C30731631   2.847   7.469   6.532  0.4463  0.2170  1.2068
   83MOL   C30831632   2.719   7.504   6.476  0.5355 -0.4872 -0.6568
   83MOL   C30931633   2.621   7.404   6.453 -0.5705 -0.0131  0.3853
   83MOL   C31031634   2.652   7.266   6.471 -0.3792  0.8180  0.3076
   83MOL   C31131635   2.560   7.158   6.422  0.1787 -0.9017  0.3051
   83MOL   C31231636   2.778   7.233   6.523 -0.2124  0.3440 -0.5396
   83MOL   C31331637   2.873   7.330   6.553  0.0212  0.7332  0.2095
   83MOL   C31431638   2.880   7.699   6.625  0.3145 -0.3099  0.1846
   83MOL   H31531639   3.026   7.537   6.633 -0.1241 -2.3357 -0.5858
   83MOL   H31631640   2.705   7.602   6.433  0.0226 -0.5986 -0.7489
   83MOL   H31731641   2.528   7.433   6.408 -0.3877  1.5048  0.9505
   83MOL   H31831642   2.540   7.074   6.488  0.5802 -0.5920  0.8319
   83MOL   H31931643   2.473   7.221   6.404  2.1757  2.1383  0.7752
   83MOL   H32031644   2.613   7.130   6.331  0.8321  1.0219  0.0596
   83MOL   H32131645   2.799   7.128   6.533  1.4379  0.8267  1.3865
   83MOL   H32231646   2.964   7.299   6.603 -1.8282 -2.4550  1.7227
   83MOL   H32331647   2.823   7.644   6.700 -1.5884  2.2255  0.6672
   83MOL   H32431648   2.806   7.741   6.556 -0.0519 -2.8128 -1.0352
   83MOL   C32531649   2.969   7.811   6.680  0.0798  0.4951  0.1819
   83MOL   C32631650   2.925   7.854   6.816 -1.1418 -0.0519  0.1042
   83MOL   C32731651   3.025   7.875   6.909 -0.4082 -0.2824 -0.1533
   83MOL   C32831652   2.997   7.925   7.041  0.2027 -0.2343 -0.1266
   83MOL   C32931653   2.865   7.954   7.077  0.6871 -0.6828  0.0380
   83MOL   C33031654   2.823   8.032   7.199  0.1430 -0.8274 -0.2401
   83MOL   C33131655   2.760   7.928   6.986 -0.2079  0.1589  0.1512
   83MOL   C33231656   2.793   7.890   6.852  0.2336 -0.0395 -0.4621
   83MOL   C33331657   2.982   7.939   6.594 -0.0294  0.2273  0.0290
   83MOL   H33431658   3.067   7.765   6.696  0.8317  1.4118 -1.6484
   83MOL   H33531659   3.128   7.859   6.883 -0.5562 -0.1059 -0.8559
   83MOL   H33631660   3.072   7.948   7.115 -0.3370  1.2355 -0.0390
   83MOL   H33731661   2.894   0.013   7.254 -1.5015 -1.1931  2.3758
   83MOL   H33831662   2.735   0.011   7.174 -0.9181 -1.9665  0.6979
   83MOL   H33931663   2.791   7.959   7.274 -1.8201 -0.4527 -0.6833
   83MOL   H34031664   2.659   7.945   7.021 -0.3234 -1.5930  0.7300
   83MOL   H34131665   2.709   7.869   6.788  0.6700 -3.1681 -0.1071
   83MOL   H34231666   2.894   8.000   6.613  0.1638  0.5200 -0.0141
   83MOL   H34331667   2.966   7.912   6.490 -0.6823 -2.4814  0.7877
   83MOL   C34431668   3.094   8.042   6.618 -0.0167 -0.0592  0.4723
   83MOL   C34531669   3.055   0.097   6.564  0.3005 -0.4600 -0.7233
   83MOL   C34631670   3.007   0.197   6.653  0.4806 -0.0391 -0.5645
   83MOL   C34731671   2.978   0.328   6.611  0.9146 -0.9374 -0.2475
   83MOL   C34831672   2.999   0.359   6.478  0.2656  1.0352  0.0937
   83MOL   C34931673   2.978   0.500   6.430  0.4361  0.0668  0.4005
   83MOL   C35031674   3.032   0.257   6.387  0.6682 -0.1572 -0.1626
   83MOL   C35131675   3.058   0.125   6.431 -0.2295 -0.2090  0.4705
   83MOL   C35231676   3.227   7.994   6.557 -0.0625  0.1729  0.0409
   83MOL   H35331677   3.106   8.063   6.724 -0.5041  0.4886  0.4233
   83MOL   H35431678   2.986   0.181   6.757  0.9107  1.8891 -0.1597
   83MOL   H35531679   2.956   0.410   6.679  3.6220  0.2081 -0.6514
   83MOL   H35631680   3.076   0.541   6.406  0.6634 -1.2027 -0.9443
   83MOL   H35731681   2.918   0.508   6.339  0.6066  1.0360  0.3696
   83MOL   H35831682   2.936   0.560   6.511 -1.4157 -0.7355  0.0600
   83MOL   H35931683   3.039   0.281   6.282  1.6290 -0.1426 -0.0936
   83MOL   H36031684   3.109   0.067   6.356 -2.7628  1.5391 -2.6771
   83MOL   H36131685   3.288   8.072   6.510  0.0196  0.2540  0.2801
   83MOL   H36231686   3.205   7.924   6.476  0.9163  0.7536 -0.7523
   83MOL   C36331687   3.319   7.912   6.656  0.0372  0.8216 -0.4116
   83MOL   C36431688   3.392   7.998   6.761  0.4550 -0.2341  0.0037
   83MOL   C36531689   3.444   0.045   6.728 -0.3240 -0.5464 -0.4129
   83MOL   C36631690   3.503   0.130   6.832  0.1311  0.5352  0.5775
   83MOL   C36731691   3.508   0.077   6.965 -0.0670 -0.1708  0.8579
   83MOL   C36831692   3.575   0.163   7.069 -0.8292  0.7305  0.5506
   83MOL   C36931693   3.461   8.028   6.997 -0.9398  0.0049  0.2641
   83MOL   C37031694   3.400   7.947   6.895 -0.7289  0.0342 -0.0006
   83MOL   C37131695   3.421   7.830   6.577  0.6090  0.3480  0.8402
   83MOL   H37231696   3.263   7.840   6.717  0.5130  1.9645  1.4025
   83MOL   H37331697   3.441   0.087   6.629 -0.2241  2.8141  0.9479
   83MOL   H37431698   3.544   0.229   6.817 -0.4079  0.8721  1.2948
   83MOL   H37531699   3.566   0.123   7.170  3.5408 -0.2909  0.6695
   83MOL   H37631700   3.682   0.161   7.045 -0.8271  1.3388  0.5087
   83MOL   H37731701   3.527   0.260   7.078  0.8820  1.4727  1.9915
   83MOL   H37831702   3.459   8.001   7.102  0.3935 -0.7143  0.1211
   83MOL   H37931703   3.357   7.849   6.914  0.6193 -0.3701  1.0292
   83MOL   H38031704   3.486   7.896   6.520 -0.1951 -0.3250 -0.9111
   83MOL   H38131705   3.369   7.772   6.500 -1.8844  1.7624  1.3845
   83MOL   H38231706   3.482   7.758   6.631  1.3695 -1.2017 -1.9786
   84MOL     C131707   4.972   0.722   1.360  0.0963  0.5764 -0.4115
   84MOL     C231708   5.047   0.851   1.409  0.0207 -0.7603  0.5443
   84MOL     C331709   5.186   0.860   1.402 -0.6465  0.9276 -0.1474
   84MOL     C431710   5.247   0.986   1.419  0.3306 -0.0692  0.3935
   84MOL     C531711   5.175   1.102   1.455  0.0839 -0.0699  0.3587
   84MOL     C631712   5.242   1.234   1.465  0.6699  0.5315  0.1512
   84MOL     C731713   5.035   1.094   1.481  0.4708  0.5530 -0.2758
   84MOL     C831714   4.969   0.970   1.441  0.5000  0.1639  0.0901
   84MOL     C931715   4.902   0.736   1.221  0.3252  0.1208  0.4373
   84MOL    H1031716   5.043   0.639   1.351 -0.3906 -0.1053  1.8323
   84MOL    H1131717   5.237   0.768   1.378 -1.3185  0.3408  0.6470
   84MOL    H1231718   5.354   0.990   1.406 -0.0457  4.1542 -2.3175
   84MOL    H1331719   5.186   1.313   1.414  0.9686 -0.2781 -1.4574
   84MOL    H1431720   5.236   1.264   1.570 -0.1997  1.8394 -0.2562
   84MOL    H1531721   5.344   1.224   1.429 -0.1258 -0.1228 -1.9790
   84MOL    H1631722   4.984   1.186   1.507 -0.1018 -0.1897  1.2662
   84MOL    H1731723   4.862   0.973   1.451  0.3624 -2.2203 -0.5182
   84MOL    H1831724   4.978   0.712   1.146  0.2746 -1.7516  0.9390
   84MOL    H1931725   4.869   0.836   1.196  0.2186  0.2538  1.1135
   84MOL    H2031726   4.898   0.694   1.435  0.2202  1.5896  0.0803
   84MOL    C2131727   4.768   0.652   1.187  0.6800  0.2422 -0.0350
   84MOL    C2231728   4.781   0.509   1.236  0.0198  1.2086 -0.7742
   84MOL    C2331729   4.682   0.450   1.310 -0.3850  0.6322 -0.6852
   84MOL    C2431730   4.695   0.322   1.366 -0.5422 -0.3897  0.1255
   84MOL    C2531731   4.811   0.252   1.348 -0.5054 -0.1977  0.1607
   84MOL    C2631732   4.825   0.106   1.404  0.3257  0.4015 -0.6319
   84MOL    C2731733   4.916   0.301   1.263  0.1321 -0.1556 -0.0203
   84MOL    C2831734   4.905   0.432   1.212  1.3603  0.2526 -0.2164
   84MOL    C2931735   4.714   0.649   1.048 -0.7356  0.0892  0.5708
   84MOL    H3031736   4.690   0.691   1.253  0.7012  0.2520 -0.0156
   84MOL    H3131737   4.582   0.490   1.313 -1.1550 -1.2336 -0.3094
   84MOL    H3231738   4.608   0.279   1.412 -0.8319 -0.5551 -0.5671
   84MOL    H3331739   4.762   0.037   1.348 -0.3505 -0.1494  0.7955
   84MOL    H3431740   4.930   0.083   1.425 -0.4778 -0.2899  2.9447
   84MOL    H3531741   4.795   0.090   1.508  0.5436  1.4655 -0.3977
   84MOL    H3631742   5.008   0.247   1.247  0.5416  0.1443  1.2860
   84MOL    H3731743   4.972   0.476   1.139  1.1973 -0.9920 -1.1425
   84MOL    H3831744   4.614   0.608   1.060 -0.9184  0.6653  1.0424
   84MOL    H3931745   4.773   0.573   0.997  0.2131  0.2409  1.4324
   84MOL    C4031746   4.696   0.786   0.978  0.7465  0.0746  0.4868
   84MOL    C4131747   4.623   0.889   1.071  0.3371  0.4442  0.4889
   84MOL    C4231748   4.685   1.005   1.102 -0.2070 -0.2810 -0.0936
   84MOL    C4331749   4.626   1.095   1.192  0.0223  0.4997  0.0698
   84MOL    C4431750   4.502   1.070   1.249 -0.4609  0.6868 -0.4637
   84MOL    C4531751   4.445   1.162   1.359  0.8472  0.5292  0.6906
   84MOL    C4631752   4.438   0.947   1.220 -0.3135 -0.0339 -0.2682
   84MOL    C4731753   4.496   0.865   1.125  0.3304 -0.3440 -0.1286
   84MOL    C4831754   4.627   0.781   0.838 -0.0058  0.6527 -0.0585
   84MOL    H4931755   4.798   0.819   0.959  0.5356 -0.1020 -1.0666
   84MOL    H5031756   4.772   1.039   1.047 -1.7194  1.5542 -1.4305
   84MOL    H5131757   4.678   1.185   1.223 -0.5358  0.6958  0.4457
   84MOL    H5231758   4.478   1.119   1.453 -1.2053 -1.3867  0.5796
   84MOL    H5331759   4.476   1.265   1.339 -0.2439  0.7962  0.3383
   84MOL    H5431760   4.336   1.169   1.355  0.8986  1.0166  0.0313
   84MOL    H5531761   4.349   0.924   1.277 -0.8127  0.0393 -1.0252
   84MOL    H5631762   4.457   0.766   1.108 -0.0307 -0.2418  0.1027
   84MOL    H5731763   4.611   0.885   0.813  1.8105  0.6657 -1.2344
   84MOL    H5831764   4.523   0.748   0.843  0.3486 -0.4488  0.3648
   84MOL    C5931765   4.715   0.700   0.738  0.0759  0.3207  0.4611
   84MOL    C6031766   4.861   0.756   0.726 -0.2836  0.2320 -0.8098
   84MOL    C6131767   4.879   0.889   0.690  0.6693 -0.1111  0.1172
   84MOL    C6231768   5.006   0.944   0.674 -0.2044  0.0048  0.1507
   84MOL    C6331769   5.117   0.859   0.704 -0.7300 -0.1142 -0.1876
   84MOL    C6431770   5.258   0.916   0.714  0.0262  0.7398  0.0036
   84MOL    C6531771   5.097   0.725   0.733  0.3111  0.4880 -0.0955
   84MOL    C6631772   4.967   0.672   0.752 -0.5451  0.1905  0.6783
   84MOL    C6731773   4.659   0.680   0.597 -0.5543 -0.8683  0.3134
   84MOL    H6831774   4.721   0.602   0.786  1.0382 -0.3283 -0.9795
   84MOL    H6931775   4.791   0.950   0.676  0.8578  0.3710  0.9911
   84MOL    H7031776   5.026   1.048   0.655 -2.6260  0.5252  0.2545
   84MOL    H7131777   5.316   0.827   0.742 -1.3015 -0.5257 -1.1953
   84MOL    H7231778   5.289   0.968   0.624  1.2333  0.8776  0.4837
   84MOL    H7331779   5.251   0.998   0.786 -0.3160 -1.6820  2.8640
   84MOL    H7431780   5.171   0.647   0.752  1.0237  1.4401  1.1561
   84MOL    H7531781   4.954   0.571   0.788  0.1364 -0.3675 -0.6279
   84MOL    H7631782   4.731   0.642   0.524 -1.8516 -1.2638 -0.7727
   84MOL    H7731783   4.638   0.781   0.563  1.9109 -0.7086 -0.8999
   84MOL    C7831784   4.534   0.587   0.587 -0.7629  0.0727  0.6878
   84MOL    C7931785   4.569   0.439   0.617 -0.1866  0.0534 -0.1251
   84MOL    C8031786   4.666   0.373   0.537 -0.1864 -0.5638 -0.1485
   84MOL    C8131787   4.692   0.234   0.566  0.4142 -0.2678  0.1540
   84MOL    C8231788   4.628   0.166   0.668 -0.0494 -0.2212  0.8611
   84MOL    C8331789   4.650   0.020   0.681  0.0137  0.2696 -0.5841
   84MOL    C8431790   4.530   0.236   0.744  0.1397  0.1820  0.1530
   84MOL    C8531791   4.496   0.371   0.712 -0.3589 -0.5045 -1.2080
   84MOL    C8631792   4.461   0.591   0.449  0.3318  0.3305 -0.5855
   84MOL    H8731793   4.462   0.610   0.665 -1.8956 -0.0348 -0.3074
   84MOL    H8831794   4.710   0.430   0.456 -1.2325  0.9276  0.3259
   84MOL    H8931795   4.764   0.174   0.512 -2.1083 -0.8877 -2.6477
   84MOL    H9031796   4.653   8.051   0.583 -1.8649 -1.6916  0.2985
   84MOL    H9131797   4.747   8.074   0.724  0.1625 -1.0083 -1.6462
   84MOL    H9231798   4.582   8.050   0.750  0.5790  2.9881  2.0528
   84MOL    H9331799   4.475   0.184   0.821 -1.0292  0.1442 -0.6822
   84MOL    H9431800   4.405   0.410   0.755 -0.6060  0.9518 -3.0027
   84MOL    H9531801   4.405   0.502   0.422  0.3872 -0.8208  2.9048
   84MOL    H9631802   4.540   0.610   0.377 -1.2914  2.6806 -1.8592
   84MOL    C9731803   4.366   0.712   0.442 -0.4085 -0.1569 -0.0522
   84MOL    C9831804   4.221   0.688   0.491  0.0362  0.3989  0.1624
   84MOL    C9931805   4.144   0.583   0.431  0.0008 -0.6289 -0.0831
   84MOL   C10031806   4.014   0.559   0.480  0.2217  0.4734 -0.3920
   84MOL   C10131807   3.960   0.626   0.591  0.0688 -0.8625  0.2941
   84MOL   C10231808   3.819   0.594   0.640 -0.7056  0.4342  0.4253
   84MOL   C10331809   4.039   0.730   0.652  0.0965  0.4231  0.7784
   84MOL   C10431810   4.171   0.756   0.605  1.0206  0.1116 -0.0943
   84MOL   C10531811   4.361   0.768   0.295  0.3296  0.2305  0.3064
   84MOL   H10631812   4.397   0.780   0.521 -0.7709 -1.8679  1.6110
   84MOL   H10731813   4.187   0.528   0.349  4.0335 -1.5621  2.5292
   84MOL   H10831814   3.973   0.480   0.417  1.6181 -0.3058 -0.3371
   84MOL   H10931815   3.779   0.693   0.666  1.7438  1.5035  0.2595
   84MOL   H11031816   3.751   0.552   0.566 -0.2373  0.3844  0.0229
   84MOL   H11131817   3.812   0.527   0.725 -0.3017 -3.0092 -2.1780
   84MOL   H11231818   4.000   0.780   0.740  0.9832  2.4772  0.0352
   84MOL   H11331819   4.241   0.826   0.648  2.3961 -1.3394  0.0568
   84MOL   H11431820   4.279   0.839   0.298 -0.1135 -0.3146  1.1451
   84MOL   H11531821   4.323   0.691   0.228 -2.0149  0.1640  1.6796
   84MOL   C11631822   4.483   0.845   0.244 -0.1765 -0.2315  0.0183
   84MOL   C11731823   4.510   0.973   0.325  0.2604  0.9528  0.5142
   84MOL   C11831824   4.412   1.064   0.365  0.3340  0.5538  0.7521
   84MOL   C11931825   4.435   1.175   0.450  0.0976 -0.1833 -0.0182
   84MOL   C12031826   4.569   1.190   0.492  0.8649 -0.0484  0.1215
   84MOL   C12131827   4.605   1.293   0.599 -0.2451 -0.0774  1.2548
   84MOL   C12231828   4.672   1.102   0.448  0.1086  0.0104  0.1573
   84MOL   C12331829   4.642   0.994   0.362 -0.3870 -0.0913 -0.0697
   84MOL   C12431830   4.483   0.883   0.094  1.2735 -0.1124  0.1393
   84MOL   H12531831   4.573   0.786   0.262  0.5332  1.1638  1.1868
   84MOL   H12631832   4.314   1.044   0.324  0.9554 -2.2056  0.5390
   84MOL   H12731833   4.353   1.242   0.473  1.0120  1.0155 -0.2202
   84MOL   H12831834   4.544   1.268   0.686 -1.2490  0.3147  0.6791
   84MOL   H12931835   4.709   1.267   0.619 -0.6350 -1.0863  2.0441
   84MOL   H13031836   4.603   1.397   0.568 -1.2303 -0.9169 -1.7267
   84MOL   H13131837   4.773   1.129   0.471  0.2395 -1.1493  1.0056
   84MOL   H13231838   4.721   0.941   0.312  0.3417 -0.4256  1.4067
   84MOL   H13331839   4.578   0.933   0.077  1.1627  0.2022  0.4361
   84MOL   H13431840   4.406   0.959   0.080  0.3077 -0.8222  1.4734
   84MOL   C13531841   4.471   0.763   8.076  0.6334 -0.2791  0.1108
   84MOL   C13631842   4.563   0.640   0.037 -0.0173  0.6376  0.4078
   84MOL   C13731843   4.703   0.662   0.025  1.0143 -0.2054 -0.0432
   84MOL   C13831844   4.787   0.556   0.051 -0.3254  0.3980 -0.3598
   84MOL   C13931845   4.739   0.431   0.090 -0.2605 -0.4145  0.3388
   84MOL   C14031846   4.834   0.318   0.110  0.0338  0.6449  0.2918
   84MOL   C14131847   4.601   0.407   0.104  0.4613  0.3251 -0.0085
   84MOL   C14231848   4.508   0.513   0.072  0.1865  0.2955  0.7377
   84MOL   C14331849   4.495   0.784   7.923  0.0503  0.1805  0.4861
   84MOL   H14431850   4.370   0.724   0.011  0.6067 -0.2074  0.1180
   84MOL   H14531851   4.744   0.754   8.067  1.5175 -0.5543 -0.3493
   84MOL   H14631852   4.894   0.574   0.045 -0.0253 -0.0371  2.7789
   84MOL   H14731853   4.927   0.324   0.054 -0.5422 -0.0875 -0.7623
   84MOL   H14831854   4.864   0.317   0.215  2.4972 -0.1563 -0.3913
   84MOL   H14931855   4.797   0.220   0.081 -2.2306  1.5167  0.1620
   84MOL   H15031856   4.574   0.308   0.136  1.0532  0.3753  0.6574
   84MOL   H15131857   4.403   0.486   0.073  0.2862 -0.1195  0.3388
   84MOL   H15231858   4.537   0.691   7.886  0.1714  0.5438 -0.3063
   84MOL   H15331859   4.575   0.854   7.901  0.9945 -0.9372  0.3285
   84MOL   C15431860   4.375   0.795   7.824 -0.0926 -0.6583 -0.0006
   84MOL   C15531861   4.272   0.676   7.844  0.5759 -0.0854  1.1241
   84MOL   C15631862   4.309   0.546   7.804 -0.0217 -0.6683 -0.0257
   84MOL   C15731863   4.210   0.447   7.807 -0.3985 -0.2748  0.1556
   84MOL   C15831864   4.082   0.473   7.853  0.1544 -0.0502  0.1059
   84MOL   C15931865   3.979   0.365   7.846 -0.2715  0.2806 -0.1428
   84MOL   C16031866   4.044   0.601   7.889  0.0624 -0.3824 -0.4995
   84MOL   C16131867   4.143   0.707   7.894 -0.2541 -0.0503 -0.3428
   84MOL   C16231868   4.426   0.796   7.684 -0.4328 -0.1711  0.1042
   84MOL   H16331869   4.330   0.889   7.854  2.2874 -0.3643  2.9347
   84MOL   H16431870   4.410   0.525   7.771  0.2488  0.7549 -0.1322
   84MOL   H16531871   4.236   0.349   7.768 -0.1820 -0.2972  0.3507
   84MOL   H16631872   3.937   0.331   7.940 -0.0536  0.9674  0.2040
   84MOL   H16731873   3.903   0.387   7.771 -0.6059  0.3691  0.2205
   84MOL   H16831874   4.013   0.268   7.808  1.4085  0.9142 -0.2892
   84MOL   H16931875   3.943   0.624   7.919  0.6835 -1.0812  2.1827
   84MOL   H17031876   4.130   0.809   7.928  1.5908 -0.5679  2.0526
   84MOL   H17131877   4.479   0.704   7.660  0.2745  1.0530 -3.3303
   84MOL   H17231878   4.502   0.874   7.675  0.4608 -1.2101 -1.3983
   84MOL   C17331879   4.310   0.803   7.581 -1.1152 -0.3527  0.2642
   84MOL   C17431880   4.362   0.770   7.441 -0.1828 -0.0889  0.4935
   84MOL   C17531881   4.343   0.642   7.387 -0.2837 -0.3450 -0.3358
   84MOL   C17631882   4.396   0.606   7.259  0.4500  0.6248 -0.1711
   84MOL   C17731883   4.464   0.695   7.177  0.1744 -0.9132  0.8091
   84MOL   C17831884   4.529   0.657   7.044  0.2533  0.2127 -0.0537
   84MOL   C17931885   4.465   0.830   7.221  0.5190 -0.2349 -0.4621
   84MOL   C18031886   4.420   0.868   7.354 -0.1297  0.4123  0.0348
   84MOL   C18131887   4.233   0.938   7.586 -0.0845 -0.0837 -0.6618
   84MOL   H18231888   4.240   0.722   7.600  0.6773 -1.1440  4.0846
   84MOL   H18331889   4.305   0.568   7.456  0.0734 -2.4124 -2.2900
   84MOL   H18431890   4.383   0.505   7.223  2.5933  0.5280 -0.7750
   84MOL   H18531891   4.471   0.579   6.994 -1.1127  1.7291 -0.8803
   84MOL   H18631892   4.522   0.747   6.984  1.2267  1.4289  1.6076
   84MOL   H18731893   4.631   0.622   7.063 -0.3323 -1.9888 -0.7907
   84MOL   H18831894   4.519   0.899   7.158  2.8232 -1.2980  0.2933
   84MOL   H18931895   4.424   0.971   7.386 -0.9366  0.5298 -0.2138
   84MOL   H19031896   4.303   1.015   7.553 -1.4932  0.8131 -1.5676
   84MOL   H19131897   4.202   0.974   7.684 -3.1367  1.9979 -2.3185
   84MOL   C19231898   4.111   0.953   7.493  0.4913 -0.6202 -0.1844
   84MOL   C19331899   4.097   1.096   7.437  0.1028  0.6617 -0.0685
   84MOL   C19431900   4.155   1.120   7.311  0.4004 -0.6233  0.7218
   84MOL   C19531901   4.144   1.244   7.251 -0.3482  0.1232  0.0291
   84MOL   C19631902   4.083   1.349   7.315 -0.2302 -0.5210  0.0887
   84MOL   C19731903   4.065   1.481   7.251  0.2856  0.2532 -0.2510
   84MOL   C19831904   4.033   1.335   7.450 -0.0017  0.1926 -0.3108
   84MOL   C19931905   4.035   1.207   7.511  0.1398  0.0424  0.2093
   84MOL   C20031906   3.985   0.897   7.559  0.1171 -0.5530 -0.3120
   84MOL   H20131907   4.127   0.888   7.407 -3.5715 -3.5787  1.1099
   84MOL   H20231908   4.211   1.044   7.258 -1.0009 -2.0154  1.2223
   84MOL   H20331909   4.175   1.253   7.148 -1.2510 -0.0685 -0.2590
   84MOL   H20431910   4.137   1.557   7.283  0.0998  0.8248 -1.1773
   84MOL   H20531911   4.052   1.473   7.143  0.9945 -0.8677 -0.2614
   84MOL   H20631912   3.969   1.519   7.286  0.6354  0.3427  0.6393
   84MOL   H20731913   3.984   1.416   7.503  1.1492  1.1854 -0.7435
   84MOL   H20831914   3.994   1.193   7.610 -0.1924 -1.0137 -0.0763
   84MOL   H20931915   3.988   0.938   7.660  1.1358 -3.4923  0.9128
   84MOL   H21031916   3.994   0.790   7.579 -2.1082 -0.3580  1.9583
   84MOL   C21131917   3.842   0.911   7.499 -0.3257 -0.0046 -1.5919
   84MOL   C21231918   3.731   0.889   7.606 -0.0602 -0.5934  0.0378
   84MOL   C21331919   3.681   0.761   7.637 -0.1571 -0.2817 -0.0632
   84MOL   C21431920   3.587   0.745   7.745 -0.1393 -0.5141 -0.5362
   84MOL   C21531921   3.532   0.862   7.806  0.5383  0.2908 -0.2264
   84MOL   C21631922   3.454   0.855   7.936 -0.5118 -0.3414  0.2900
   84MOL   C21731923   3.573   0.984   7.765 -0.4649 -0.4599  0.2760
   84MOL   C21831924   3.677   1.005   7.673  0.1782 -0.6087 -0.0616
   84MOL   C21931925   3.823   0.817   7.370 -0.5992  0.1832  0.2974
   84MOL   H22031926   3.832   1.014   7.464 -0.2976 -0.0805 -1.8273
   84MOL   H22131927   3.730   0.676   7.594 -0.4135 -0.2685 -0.3834
   84MOL   H22231928   3.543   0.652   7.779 -0.4435 -0.1196  0.1490
   84MOL   H22331929   3.396   0.762   7.934 -2.0176  0.5534  1.0379
   84MOL   H22431930   3.527   0.847   8.016 -1.0139 -0.2238  0.7591
   84MOL   H22531931   3.390   0.943   7.949  1.9549  1.2793  1.7275
   84MOL   H22631932   3.542   1.078   7.808 -0.9455 -0.0312 -0.9936
   84MOL   H22731933   3.710   1.104   7.646 -0.4789 -0.5454 -0.6344
   84MOL   H22831934   3.809   0.712   7.395  0.3337 -0.3160 -1.1600
   84MOL   H22931935   3.921   0.835   7.324 -0.3646  0.0421  0.7429
   84MOL   C23031936   3.714   0.862   7.264 -0.2011  0.3062  0.2883
   84MOL   C23131937   3.750   0.988   7.184  0.1303  0.2659  0.5311
   84MOL   C23231938   3.786   0.969   7.051 -0.2376 -0.2131  0.3144
   84MOL   C23331939   3.827   1.077   6.972  0.3574 -0.2597 -0.0462
   84MOL   C23431940   3.834   1.204   7.031  0.1778  0.2075 -0.2116
   84MOL   C23531941   3.873   1.316   6.939 -0.0444 -0.5390  0.2703
   84MOL   C23631942   3.804   1.220   7.167  0.4252 -0.5456 -0.2960
   84MOL   C23731943   3.758   1.118   7.244  0.1211  0.4802 -0.1963
   84MOL   C23831944   3.569   0.868   7.311  0.4559 -0.1361  0.3381
   84MOL   H23931945   3.713   0.775   7.198 -2.0180 -0.7204  1.6413
   84MOL   H24031946   3.790   0.871   7.007 -2.3036  0.0769 -0.5576
   84MOL   H24131947   3.872   1.064   6.875  1.4600  0.2909  0.3780
   84MOL   H24231948   3.788   1.383   6.949 -0.1378 -0.9306  2.2630
   84MOL   H24331949   3.972   1.355   6.964 -1.0079  1.0077  1.7799
   84MOL   H24431950   3.870   1.287   6.834  2.6147 -1.4138  0.3938
   84MOL   H24531951   3.816   1.316   7.215 -0.9023 -1.0160  0.9904
   84MOL   H24631952   3.731   1.155   7.342 -1.4776 -1.6989  0.2091
   84MOL   H24731953   3.538   0.968   7.340 -1.1532 -0.7871  0.9501
   84MOL   H24831954   3.556   0.811   7.404  1.0515 -1.0403 -0.1262
   84MOL   C24931955   3.469   0.814   7.203  0.2059  0.8117  0.2647
   84MOL   C25031956   3.322   0.865   7.221 -0.1940 -0.5376 -0.4734
   84MOL   C25131957   3.253   0.847   7.346 -0.2276  0.3667  0.4053
   84MOL   C25231958   3.118   0.888   7.363 -0.2100 -0.1667 -0.6708
   84MOL   C25331959   3.051   0.948   7.257 -0.2614 -0.5132 -0.1036
   84MOL   C25431960   2.911   0.997   7.291 -0.0871 -0.8245  0.4631
   84MOL   C25531961   3.118   0.974   7.133  0.1910 -0.3654 -0.0594
   84MOL   C25631962   3.255   0.939   7.118  1.0551 -0.1781  0.1486
   84MOL   C25731963   3.467   0.660   7.198 -0.2699  0.3437  0.5247
   84MOL   H25831964   3.490   0.865   7.109 -2.3244  0.7208 -0.3952
   84MOL   H25931965   3.303   0.808   7.433 -0.6097  2.6946  1.7172
   84MOL   H26031966   3.070   0.857   7.455  0.8406 -0.3691 -0.1807
   84MOL   H26131967   2.911   1.106   7.288  0.0506 -0.8500 -0.4713
   84MOL   H26231968   2.846   0.963   7.211  2.1926  0.5255 -2.0261
   84MOL   H26331969   2.871   0.979   7.391 -1.2039 -3.1601 -0.3756
   84MOL   H26431970   3.077   1.018   7.044 -1.0892  1.7028  1.5070
   84MOL   H26531971   3.306   0.949   7.023 -1.4200  0.6349 -1.1346
   84MOL   H26631972   3.407   0.631   7.284  1.6213 -1.4356  1.2931
   84MOL   H26731973   3.567   0.630   7.230 -0.2929 -1.7149 -1.2465
   84MOL   C26831974   3.456   0.589   7.060 -0.5146  0.6627  0.4791
   84MOL   C26931975   3.575   0.618   6.968  0.1302  0.0500  0.0508
   84MOL   C27031976   3.682   0.526   6.958  0.3220 -0.8434 -0.4200
   84MOL   C27131977   3.787   0.557   6.869  0.1481  0.3191  0.1263
   84MOL   C27231978   3.780   0.658   6.779 -0.2135  0.2533 -0.6748
   84MOL   C27331979   3.879   0.663   6.664 -0.0391 -0.1478  0.6219
   84MOL   C27431980   3.677   0.757   6.794 -0.4062 -0.1278 -0.9476
   84MOL   C27531981   3.580   0.735   6.893 -0.0700  0.1856 -0.4592
   84MOL   C27631982   3.315   0.607   6.990  0.5961  0.2874 -0.1514
   84MOL   H27731983   3.473   0.485   7.089  0.2835  0.3313 -1.1335
   84MOL   H27831984   3.686   0.439   7.023 -1.9431 -0.1535  0.7201
   84MOL   H27931985   3.872   0.490   6.870  0.7214  1.0363  2.5368
   84MOL   H28031986   3.970   0.605   6.679  2.1183  2.5798 -1.3575
   84MOL   H28131987   3.828   0.632   6.573  0.2619  0.7547  0.1370
   84MOL   H28231988   3.913   0.767   6.662 -0.0299 -0.1587 -0.2448
   84MOL   H28331989   3.678   0.850   6.740 -1.7782  1.5931  1.8910
   84MOL   H28431990   3.503   0.811   6.897 -0.8650 -0.6741  1.3551
   84MOL   H28531991   3.334   0.547   6.902  0.7294 -1.1311  0.8281
   84MOL   H28631992   3.306   0.713   6.965 -4.3742  0.3332  1.1778
   84MOL   C28731993   3.198   0.554   7.075  0.3431 -0.4864  0.0413
   84MOL   C28831994   3.215   0.416   7.142 -0.3946 -0.7428  0.2647
   84MOL   C28931995   3.205   0.399   7.281  1.3763  0.2082 -0.0069
   84MOL   C29031996   3.230   0.267   7.341  0.3793  0.7790  0.1704
   84MOL   C29131997   3.245   0.153   7.257 -0.4198  0.7130 -0.5088
   84MOL   C29231998   3.279   0.014   7.311 -0.0599  0.3582 -1.1740
   84MOL   C29331999   3.240   0.173   7.117 -0.2096 -0.3712 -0.5803
   84MOL   C29432000   3.224   0.302   7.064 -0.5408  0.1619 -0.0474
   84MOL   C29532001   3.068   0.560   6.993  0.0740  0.3610 -0.3648
   84MOL   H29632002   3.180   0.618   7.162 -3.6412 -0.7963 -0.4536
   84MOL   H29732003   3.173   0.473   7.354 -0.5313 -0.9536  0.3753
   84MOL   H29832004   3.234   0.248   7.448  1.8790  2.1956  0.3869
   84MOL   H29932005   3.385   0.017   7.287  0.5061 -2.9123  0.7903
   84MOL   H30032006   3.252   8.078   7.415  0.5240 -1.5797 -1.3019
   84MOL   H30132007   3.224   8.021   7.251  0.8627  1.0205 -2.8651
   84MOL   H30232008   3.255   0.087   7.054 -0.0556 -0.7242 -0.0639
   84MOL   H30332009   3.220   0.316   6.957  0.8228 -2.0352 -0.4236
   84MOL   H30432010   3.088   0.512   6.897 -1.8556  0.8669 -1.0395
   84MOL   H30532011   3.058   0.667   6.973  2.1873  0.5128 -0.6623
   84MOL   C30632012   2.942   0.512   7.067 -0.3710 -0.3092  0.2848
   84MOL   C30732013   2.841   0.458   6.969  0.4361  0.4740 -0.2025
   84MOL   C30832014   2.758   0.550   6.911  0.0648  0.2946  0.3144
   84MOL   C30932015   2.645   0.517   6.838 -0.0342 -0.6279 -1.1973
   84MOL   C31032016   2.609   0.379   6.829  1.2388  0.0943 -0.1365
   84MOL   C31132017   2.479   0.349   6.760 -0.3339  0.2569  0.5805
   84MOL   C31232018   2.699   0.284   6.887 -0.0282  0.0650  0.1682
   84MOL   C31332019   2.813   0.320   6.947 -0.1513 -0.1888 -0.5381
   84MOL   C31432020   2.894   0.598   7.191 -0.5259  0.2518  0.1791
   84MOL   H31532021   2.972   0.416   7.108  1.8480 -0.3001 -1.2551
   84MOL   H31632022   2.772   0.656   6.927  1.8947  0.3096 -1.2416
   84MOL   H31732023   2.578   0.584   6.787 -0.7462  1.2642  2.0862
   84MOL   H31832024   2.461   0.242   6.764  0.0164  0.1845  0.1607
   84MOL   H31932025   2.403   0.402   6.819 -0.8375  0.4122 -0.2046
   84MOL   H32032026   2.489   0.375   6.655  0.5139 -0.2045  0.5464
   84MOL   H32132027   2.682   0.178   6.875  1.3172 -0.1950  0.5348
   84MOL   H32232028   2.869   0.248   7.005  3.4759  3.6501  0.9837
   84MOL   H32332029   2.875   0.696   7.148  1.7539  0.4632 -0.3850
   84MOL   H32432030   2.984   0.623   7.246  1.4011 -0.9636 -2.3056
   84MOL   C32532031   2.786   0.534   7.282 -0.3732 -0.8463  0.7880
   84MOL   C32632032   2.728   0.637   7.378  0.4224 -0.2396  0.1271
   84MOL   C32732033   2.812   0.696   7.479  0.5320  0.2526 -0.2289
   84MOL   C32832034   2.754   0.782   7.573 -0.3153  0.0588  0.1469
   84MOL   C32932035   2.611   0.805   7.570 -0.1011 -0.4459  0.7938
   84MOL   C33032036   2.552   0.886   7.686  0.0878 -0.0817 -0.8102
   84MOL   C33132037   2.530   0.746   7.470  0.5441  0.2317 -0.4994
   84MOL   C33232038   2.589   0.661   7.374 -0.7128  0.3607 -0.2635
   84MOL   C33332039   2.842   0.415   7.363  0.1967  0.5667  0.7928
   84MOL   H33432040   2.700   0.508   7.221 -0.4117  0.6308  0.1948
   84MOL   H33532041   2.915   0.667   7.493  0.2270 -1.4061 -1.2312
   84MOL   H33632042   2.820   0.823   7.649  0.1557  1.7836 -1.1571
   84MOL   H33732043   2.448   0.857   7.704 -0.1896  0.7708 -0.9826
   84MOL   H33832044   2.605   0.870   7.779  1.8328  1.1227 -1.5841
   84MOL   H33932045   2.552   0.987   7.644 -0.5875  0.5477  0.6739
   84MOL   H34032046   2.423   0.756   7.480  0.5377 -0.0509 -0.2653
   84MOL   H34132047   2.523   0.604   7.311 -0.4284 -0.7705  0.4489
   84MOL   H34232048   2.918   0.447   7.434 -0.4805 -1.1927  2.3615
   84MOL   H34332049   2.895   0.344   7.299  1.5010  2.1910  0.0605
   84MOL   C34432050   2.747   0.326   7.443  0.1995 -0.4688 -0.1612
   84MOL   C34532051   2.820   0.247   7.538 -0.6594  0.7262 -0.5026
   84MOL   C34632052   2.936   0.163   7.514  0.2214 -0.1135  0.1348
   84MOL   C34732053   3.009   0.094   7.615 -0.3125 -0.3429  0.8997
   84MOL   C34832054   2.953   0.100   7.748  0.1897 -0.6065  0.1747
   84MOL   C34932055   3.008   0.028   7.867  0.2199  0.0935 -0.0591
   84MOL   C35032056   2.843   0.180   7.774 -0.2192 -0.0377  0.0784
   84MOL   C35132057   2.780   0.249   7.675 -0.0281 -0.6513 -0.2046
   84MOL   C35232058   2.640   0.241   7.367 -0.4687  0.0267 -0.7257
   84MOL   H35332059   2.699   0.401   7.506 -0.5551 -1.8581  0.9190
   84MOL   H35432060   2.974   0.163   7.412  0.4388 -0.6910  0.2111
   84MOL   H35532061   3.103   0.047   7.594 -0.3912 -0.3936  0.6519
   84MOL   H35632062   2.992   8.000   7.873 -2.2147  0.4638  1.0505
   84MOL   H35732063   3.116   0.025   7.854  0.3452  1.3318  0.6809
   84MOL   H35832064   2.987   0.077   7.962  1.3952 -0.4332  0.4789
   84MOL   H35932065   2.805   0.181   7.875  1.4696  0.5493  0.7398
   84MOL   H36032066   2.698   0.316   7.697  1.6374  1.6675 -0.8070
   84MOL   H36132067   2.680   0.196   7.277  2.1320 -1.9696  1.3315
   84MOL   H36232068   2.573   0.317   7.325  0.8623  0.8930 -1.3136
   84MOL   C36332069   2.564   0.134   7.456  0.4485 -0.4351 -0.2924
   84MOL   C36432070   2.519   0.007   7.382  0.0793 -0.0994 -0.1376
   84MOL   C36532071   2.443   0.024   7.263 -0.0393  0.2959 -0.5459
   84MOL   C36632072   2.406   7.986   7.188 -0.6984 -0.2398 -0.5565
   84MOL   C36732073   2.449   7.856   7.231  0.0179 -0.2247 -0.1707
   84MOL   C36832074   2.397   7.734   7.160 -0.3363  0.0015  0.4857
   84MOL   C36932075   2.530   7.848   7.348 -0.1410  0.3427  0.1739
   84MOL   C37032076   2.562   7.959   7.425  0.3334  0.6872  0.1904
   84MOL   C37132077   2.448   0.207   7.525 -0.0384  0.2297  0.9710
   84MOL   H37232078   2.631   0.095   7.531  0.5767  1.5528  0.6662
   84MOL   H37332079   2.411   0.123   7.235 -4.3235 -0.5038  1.0997
   84MOL   H37432080   2.355   7.996   7.093  1.5026  0.0599 -1.7534
   84MOL   H37532081   2.427   7.643   7.211  2.0557  0.3019 -0.3087
   84MOL   H37632082   2.289   7.737   7.149 -0.4259 -2.3776  0.3700
   84MOL   H37732083   2.437   7.727   7.058  2.4179 -2.2390  1.6515
   84MOL   H37832084   2.562   7.753   7.389 -1.4713  0.6094  1.8730
   84MOL   H37932085   2.608   7.941   7.522  0.2230 -0.0379  0.1116
   84MOL   H38032086   2.462   0.298   7.584 -1.5572 -0.9775  3.2919
   84MOL   H38132087   2.394   0.127   7.577  1.2992 -0.8247  0.7911
   84MOL   H38232088   2.385   0.238   7.443  0.9328 -1.2240 -0.3684
   85MOL     C132089   6.618   0.867   6.223  0.4459  0.1713  0.0831
   85MOL     C232090   6.620   0.762   6.334 -0.5076  1.0596 -0.0939
   85MOL     C332091   6.672   0.635   6.319  0.4263 -0.1996  0.0866
   85MOL     C432092   6.667   0.539   6.425 -0.4650  0.6247 -0.0654
   85MOL     C532093   6.606   0.570   6.549  0.6633  0.2154  0.1698
   85MOL     C632094   6.583   0.464   6.658 -0.4506  1.0333 -0.2678
   85MOL     C732095   6.553   0.700   6.559  0.2091 -0.4258 -0.7017
   85MOL     C832096   6.560   0.795   6.458 -0.1946  0.3981 -0.0868
   85MOL     C932097   6.727   0.977   6.230  0.3309 -0.1457  0.6656
   85MOL    H1032098   6.620   0.806   6.132  0.3488 -1.7509  1.3489
   85MOL    H1132099   6.702   0.616   6.218 -0.4891  2.8079 -0.8049
   85MOL    H1232100   6.691   0.436   6.406 -0.8932  0.4210  0.4679
   85MOL    H1332101   6.674   0.429   6.706 -2.2047 -2.1195  0.9023
   85MOL    H1432102   6.521   0.507   6.737 -0.1300  0.2364  0.4296
   85MOL    H1532103   6.530   0.380   6.612 -1.9836  1.7281  0.2077
   85MOL    H1632104   6.506   0.724   6.653 -0.0684 -0.7090 -0.7691
   85MOL    H1732105   6.529   0.897   6.478 -1.1266  0.3013 -1.0122
   85MOL    H1832106   6.823   0.943   6.192  1.2583  0.9752  1.9587
   85MOL    H1932107   6.737   1.006   6.335  0.4334  0.3653  0.5146
   85MOL    H2032108   6.518   0.909   6.228  0.4597  0.4184 -1.3040
   85MOL    C2132109   6.691   1.100   6.142  0.7467  0.3226  0.8256
   85MOL    C2232110   6.665   1.076   5.992  0.4322  0.1907 -0.1698
   85MOL    C2332111   6.779   1.076   5.904 -0.3026  0.2865  0.1370
   85MOL    C2432112   6.758   1.060   5.769  0.2858 -0.5761 -0.0649
   85MOL    C2532113   6.624   1.048   5.722  0.1958 -0.5929  0.4845
   85MOL    C2632114   6.604   1.036   5.572 -0.4590  0.8081 -0.6756
   85MOL    C2732115   6.513   1.047   5.805 -0.1077  0.3825 -0.3577
   85MOL    C2832116   6.533   1.058   5.940  0.6124 -0.1072  0.6694
   85MOL    C2932117   6.791   1.212   6.173 -0.4642  0.2251  0.4158
   85MOL    H3032118   6.600   1.147   6.179  0.1714  1.1559 -1.5323
   85MOL    H3132119   6.882   1.084   5.935 -0.0626  0.1863 -0.6190
   85MOL    H3232120   6.844   1.050   5.704 -0.4983 -0.9413 -1.0524
   85MOL    H3332121   6.684   0.977   5.527 -1.8807 -1.6790 -0.0713
   85MOL    H3432122   6.519   0.975   5.542  1.1366 -1.1255 -1.3679
   85MOL    H3532123   6.592   1.132   5.523 -1.3006  0.8889 -0.3158
   85MOL    H3632124   6.414   1.027   5.767  0.0516 -2.4709  0.6362
   85MOL    H3732125   6.447   1.064   6.005 -0.0640 -0.0266 -0.2395
   85MOL    H3832126   6.880   1.163   6.133 -0.2493 -1.4879  2.8441
   85MOL    H3932127   6.809   1.221   6.280 -0.1611  0.8993  0.3118
   85MOL    C4032128   6.763   1.351   6.108 -0.2644  0.4568  0.1218
   85MOL    C4132129   6.887   1.436   6.130  0.6567  0.1748  0.6018
   85MOL    C4232130   6.952   1.492   6.025  0.1536 -0.0038  0.9699
   85MOL    C4332131   7.068   1.571   6.037 -0.0270  1.0175  0.2238
   85MOL    C4432132   7.112   1.610   6.173 -0.0104 -0.3562  0.2471
   85MOL    C4532133   7.212   1.716   6.188  0.1669  0.3993 -0.3215
   85MOL    C4632134   7.030   1.568   6.281  0.2377 -0.1441  0.4880
   85MOL    C4732135   6.930   1.473   6.257  0.8102 -0.6257 -0.7924
   85MOL    C4832136   6.635   1.423   6.153  0.2428  0.5918 -0.6458
   85MOL    H4932137   6.756   1.330   6.002  4.4510  2.2321 -0.6813
   85MOL    H5032138   6.922   1.477   5.923  3.8862  3.8440 -0.8457
   85MOL    H5132139   7.113   1.611   5.948 -0.2548 -0.1480 -0.4234
   85MOL    H5232140   7.234   1.728   6.295 -0.3795 -2.1567  0.1106
   85MOL    H5332141   7.306   1.696   6.136 -0.8562  2.7616 -3.1843
   85MOL    H5432142   7.168   1.801   6.136 -0.1526 -0.4793 -1.5015
   85MOL    H5532143   7.054   1.597   6.382  0.8574 -2.8968  1.1706
   85MOL    H5632144   6.889   1.442   6.352 -0.7813  1.8317 -0.6076
   85MOL    H5732145   6.645   1.472   6.250 -1.5998 -1.9479  0.8886
   85MOL    H5832146   6.555   1.350   6.169  1.1010  0.0454  1.2891
   85MOL    C5932147   6.586   1.533   6.061 -0.0234 -0.5694  0.7398
   85MOL    C6032148   6.473   1.612   6.125  0.6886 -0.1924 -0.4683
   85MOL    C6132149   6.338   1.557   6.130 -0.4375  0.0904  0.1301
   85MOL    C6232150   6.231   1.626   6.182 -0.2089  0.2425  0.7162
   85MOL    C6332151   6.247   1.753   6.242  0.6505 -0.1389 -0.4643
   85MOL    C6432152   6.127   1.820   6.298  0.3810 -0.7666  0.2494
   85MOL    C6532153   6.375   1.814   6.233 -0.2643 -0.1632  0.5509
   85MOL    C6632154   6.489   1.748   6.172  0.4490  0.1246 -1.0003
   85MOL    C6732155   6.530   1.477   5.929  0.3299  0.8579  0.3377
   85MOL    H6832156   6.668   1.594   6.025  0.9451 -1.9856  0.5086
   85MOL    H6932157   6.320   1.459   6.089  1.4446 -0.8030  1.3561
   85MOL    H7032158   6.130   1.589   6.168  0.3354 -0.3394 -1.9991
   85MOL    H7132159   6.160   1.864   6.392 -0.8457  0.6710  0.0264
   85MOL    H7232160   6.097   1.906   6.238  0.1812 -0.3981  0.8654
   85MOL    H7332161   6.042   1.752   6.303 -1.2697  1.0982 -1.5885
   85MOL    H7432162   6.393   1.907   6.285 -1.9338 -0.4506  1.6879
   85MOL    H7532163   6.585   1.789   6.197  0.8515 -0.4930 -1.5061
   85MOL    H7632164   6.469   1.390   5.956 -0.9902  1.4750 -0.6207
   85MOL    H7732165   6.608   1.430   5.869 -0.9672  1.0548 -1.5468
   85MOL    C7832166   6.466   1.575   5.820  0.7477  0.7551  0.3576
   85MOL    C7932167   6.336   1.524   5.773  0.0684  0.1219  1.0155
   85MOL    C8032168   6.214   1.576   5.817  0.0058 -0.7012  0.4451
   85MOL    C8132169   6.089   1.520   5.770  0.3784  0.2580  0.3248
   85MOL    C8232170   6.095   1.412   5.684 -0.4610  0.7196  0.1652
   85MOL    C8332171   5.958   1.357   5.637  0.3515  1.1050 -0.2901
   85MOL    C8432172   6.216   1.352   5.647  0.1933  0.0852  0.0749
   85MOL    C8532173   6.336   1.405   5.688 -0.0219  0.2863  0.0155
   85MOL    C8632174   6.555   1.617   5.695  0.3463  0.1324  0.3936
   85MOL    H8732175   6.445   1.672   5.867  0.4349  1.1668 -0.6268
   85MOL    H8832176   6.216   1.648   5.897  1.1456  1.5267 -1.5094
   85MOL    H8932177   5.999   1.561   5.812 -0.3715  1.2730 -2.1692
   85MOL    H9032178   5.927   1.268   5.692 -0.4556  0.9573 -0.9758
   85MOL    H9132179   5.880   1.432   5.649 -1.1524 -0.9821  4.2091
   85MOL    H9232180   5.961   1.325   5.533  1.2899 -3.0858  0.9213
   85MOL    H9332181   6.204   1.263   5.587  1.3088  0.1017 -0.1888
   85MOL    H9432182   6.427   1.358   5.652  0.3277 -0.2422  1.5737
   85MOL    H9532183   6.503   1.690   5.634  0.4731 -2.2195 -2.6677
   85MOL    H9632184   6.558   1.532   5.627 -1.2737  0.6416 -0.3352
   85MOL    C9732185   6.709   1.658   5.706  0.2178  0.0878  0.0511
   85MOL    C9832186   6.737   1.779   5.793 -0.5106  0.4589 -0.1085
   85MOL    C9932187   6.631   1.869   5.829  0.2717  0.6375 -0.2950
   85MOL   C10032188   6.666   1.977   5.915 -0.0626  0.1024  0.5759
   85MOL   C10132189   6.803   1.992   5.960 -0.3706 -0.6446 -0.3645
   85MOL   C10232190   6.836   2.103   6.058 -0.1803 -0.5548 -0.2604
   85MOL   C10332191   6.909   1.907   5.919  0.7664 -0.0007  0.5518
   85MOL   C10432192   6.871   1.805   5.830 -0.1843  0.4065  0.2016
   85MOL   C10532193   6.764   1.664   5.560 -0.4768 -0.6947 -0.1305
   85MOL   H10632194   6.770   1.584   5.756  0.2711  0.9762  1.3197
   85MOL   H10732195   6.525   1.862   5.811  0.2136  0.6832  0.0274
   85MOL   H10832196   6.587   2.047   5.939  0.0044  0.6081 -0.6403
   85MOL   H10932197   6.880   2.057   6.147  0.5863 -0.2034 -0.4602
   85MOL   H11032198   6.915   2.161   6.011 -1.1790  2.0755  1.1821
   85MOL   H11132199   6.749   2.162   6.086  0.4821 -0.0667  0.7778
   85MOL   H11232200   7.012   1.916   5.949  1.3564  0.6166 -1.5741
   85MOL   H11332201   6.944   1.736   5.790 -0.2823 -0.2395  1.1181
   85MOL   H11432202   6.853   1.726   5.555 -0.0038 -1.2644  0.9204
   85MOL   H11532203   6.703   1.719   5.489 -0.4748 -0.0495  0.3654
   85MOL   C11632204   6.803   1.530   5.499 -0.6338  0.1755 -0.4241
   85MOL   C11732205   6.930   1.480   5.572  0.6119  0.1060  0.0487
   85MOL   C11832206   6.918   1.370   5.664 -0.1607 -0.2921  0.3793
   85MOL   C11932207   7.029   1.337   5.742 -0.5962  0.0691 -0.7306
   85MOL   C12032208   7.156   1.404   5.719 -0.5123 -0.5258 -0.1214
   85MOL   C12132209   7.280   1.367   5.797  0.1759  0.5887  0.3096
   85MOL   C12232210   7.161   1.510   5.632  0.0604  0.8132 -0.1447
   85MOL   C12332211   7.052   1.552   5.557  0.6164  0.3392  0.4920
   85MOL   C12432212   6.825   1.542   5.348 -0.1900  0.2592 -0.9852
   85MOL   H12532213   6.725   1.456   5.517 -0.5968  0.0364 -0.8389
   85MOL   H12632214   6.825   1.318   5.682  1.7761 -3.8559  0.5129
   85MOL   H12732215   7.014   1.251   5.805  1.7559 -0.7901 -1.3015
   85MOL   H12832216   7.372   1.420   5.770  0.6302 -0.4338 -0.1702
   85MOL   H12932217   7.262   1.372   5.904 -1.3771 -0.9280  0.1419
   85MOL   H13032218   7.296   1.263   5.768  0.6139  0.7341  0.0176
   85MOL   H13132219   7.247   1.575   5.634 -0.3801  1.4176 -0.4572
   85MOL   H13232220   7.061   1.641   5.497 -2.7121  0.4014 -0.0119
   85MOL   H13332221   6.900   1.472   5.310 -0.0996  0.9900 -2.1730
   85MOL   H13432222   6.881   1.632   5.325  2.7303 -0.9085  1.2268
   85MOL   C13532223   6.690   1.530   5.277 -0.3340  0.0326  0.5356
   85MOL   C13632224   6.666   1.391   5.220  0.2899  0.5090  0.2164
   85MOL   C13732225   6.770   1.315   5.157 -0.1535 -0.5884 -0.6205
   85MOL   C13832226   6.741   1.182   5.123 -0.2942 -0.4837  0.1086
   85MOL   C13932227   6.603   1.132   5.120 -0.8154 -0.8547 -0.0312
   85MOL   C14032228   6.576   0.992   5.063  0.6314 -0.1786  0.2766
   85MOL   C14132229   6.502   1.210   5.173 -0.2423 -0.4323  0.2420
   85MOL   C14232230   6.537   1.337   5.232  0.2220  0.4224  0.4176
   85MOL   C14332231   6.679   1.631   5.159 -0.2549 -0.0506  0.6277
   85MOL   H14432232   6.606   1.554   5.343  0.0427  0.5843  0.8204
   85MOL   H14532233   6.872   1.350   5.158 -0.2789 -0.2229 -0.5303
   85MOL   H14632234   6.821   1.122   5.082  2.0824  1.7628  1.3313
   85MOL   H14732235   6.469   0.971   5.055  0.3792  0.2121  2.4219
   85MOL   H14832236   6.623   0.979   4.966 -1.6031 -0.1684 -0.8377
   85MOL   H14932237   6.611   0.910   5.126  0.2616 -1.9535 -1.7599
   85MOL   H15032238   6.400   1.176   5.168 -0.8311  1.1308  1.3600
   85MOL   H15132239   6.459   1.373   5.298  1.3844 -0.8447  2.5463
   85MOL   H15232240   6.650   1.589   5.062 -1.6714  0.7303  0.7159
   85MOL   H15332241   6.774   1.680   5.136 -1.7913  2.4712 -0.5618
   85MOL   C15432242   6.568   1.732   5.175  1.0296  0.2419 -0.0984
   85MOL   C15532243   6.425   1.676   5.181 -0.1565  0.5558  0.6119
   85MOL   C15632244   6.372   1.613   5.071 -0.1278 -0.1680 -0.3553
   85MOL   C15732245   6.240   1.560   5.063 -0.4561  0.5237  0.2973
   85MOL   C15832246   6.160   1.567   5.184 -0.2251 -0.3537 -0.1479
   85MOL   C15932247   6.020   1.510   5.183  0.3932 -0.7584 -0.0299
   85MOL   C16032248   6.213   1.635   5.294 -0.0441  0.2993  0.7366
   85MOL   C16132249   6.341   1.690   5.294 -0.4161 -0.1077 -0.0105
   85MOL   C16232250   6.581   1.842   5.056 -0.2732  0.5265 -0.3016
   85MOL   H16332251   6.585   1.787   5.268  0.7229 -2.2720  1.4933
   85MOL   H16432252   6.428   1.600   4.980  0.1719  0.4970 -0.2673
   85MOL   H16532253   6.207   1.512   4.973  0.4199 -1.0049  0.7690
   85MOL   H16632254   5.980   1.507   5.284 -0.8906  0.5330 -0.4820
   85MOL   H16732255   5.957   1.570   5.117  2.2360  1.6680  0.3307
   85MOL   H16832256   6.010   1.407   5.147  1.2951  0.2197 -3.2234
   85MOL   H16932257   6.155   1.652   5.384  1.1117  1.1718  1.3184
   85MOL   H17032258   6.381   1.738   5.382  0.8042 -0.0873 -0.5614
   85MOL   H17132259   6.479   1.868   5.028 -0.0932  2.2126  0.6065
   85MOL   H17232260   6.616   1.796   4.963  2.4214  1.6147  0.1306
   85MOL   C17332261   6.670   1.971   5.068 -1.1460  0.0479  0.2735
   85MOL   C17432262   6.788   1.964   5.159  0.3784 -0.5901  0.5955
   85MOL   C17532263   6.914   1.927   5.108  0.3466 -0.4764 -0.1404
   85MOL   C17632264   7.021   1.918   5.203 -0.2928 -0.0304 -0.6542
   85MOL   C17732265   7.004   1.940   5.339  0.2385 -0.0298 -0.1863
   85MOL   C17832266   7.129   1.944   5.430  0.6362 -1.1140  0.6392
   85MOL   C17932267   6.874   1.971   5.389 -0.2025  0.4049 -0.5315
   85MOL   C18032268   6.770   1.981   5.293 -0.2701 -0.0372 -0.0545
   85MOL   C18132269   6.593   2.103   5.068  0.3772  0.1765 -0.6230
   85MOL   H18232270   6.716   1.987   4.970  0.4712  0.7783  1.1307
   85MOL   H18332271   6.934   1.916   5.003 -0.0599 -1.5185 -0.1186
   85MOL   H18432272   7.120   1.916   5.159 -0.4008 -2.5668 -0.8383
   85MOL   H18532273   7.217   1.908   5.378  2.6991  1.0195  2.5364
   85MOL   H18632274   7.151   2.050   5.444  2.7045 -1.6932  1.8945
   85MOL   H18732275   7.131   1.907   5.532  0.0215 -1.0589  0.6759
   85MOL   H18832276   6.858   2.000   5.492  0.2904  1.6227 -0.7928
   85MOL   H18932277   6.679   2.020   5.335 -0.9167 -1.5795 -0.0286
   85MOL   H19032278   6.546   2.093   5.166 -0.4252  0.1347 -1.0066
   85MOL   H19132279   6.523   2.106   4.984 -1.2513 -1.4093  0.6454
   85MOL   C19232280   6.670   2.236   5.064 -0.1635  0.2585  0.1934
   85MOL   C19332281   6.581   2.356   5.095 -0.1142 -0.0861 -0.1463
   85MOL   C19432282   6.624   2.430   5.207  0.1241  0.4005 -0.2326
   85MOL   C19532283   6.557   2.546   5.245  0.5055  0.1214 -0.6365
   85MOL   C19632284   6.431   2.578   5.176 -0.0202  0.2253  0.5725
   85MOL   C19732285   6.348   2.693   5.230  0.0978  0.1079  0.1005
   85MOL   C19832286   6.380   2.490   5.078  0.3935 -0.5034 -0.4368
   85MOL   C19932287   6.456   2.380   5.034 -0.1428 -0.0040  0.0044
   85MOL   C20032288   6.756   2.260   4.934  0.5330  0.4807 -0.2935
   85MOL   H20132289   6.743   2.249   5.144 -0.1730 -2.4585  0.6890
   85MOL   H20232290   6.714   2.409   5.263 -0.9790 -1.0128  1.0223
   85MOL   H20332291   6.594   2.606   5.326  1.8536 -0.1778 -1.0136
   85MOL   H20432292   6.287   2.659   5.314  0.7192 -0.6629  0.2497
   85MOL   H20532293   6.419   2.761   5.277 -1.3387  0.9239  1.1132
   85MOL   H20632294   6.288   2.744   5.154  1.2643  3.0711  1.1094
   85MOL   H20732295   6.279   2.496   5.040  0.3889 -2.0367 -0.7053
   85MOL   H20832296   6.405   2.310   4.970 -1.7126 -0.5192  1.7448
   85MOL   H20932297   6.722   2.351   4.885  0.3529  0.5075 -0.1211
   85MOL   H21032298   6.736   2.182   4.860  0.4355 -2.1370  2.3609
   85MOL   C21132299   6.905   2.251   4.950  0.3235 -0.2286  0.1779
   85MOL   C21232300   6.953   2.364   5.048  0.2728 -0.7378  1.3421
   85MOL   C21332301   7.021   2.322   5.165 -0.3177  0.0089 -0.7440
   85MOL   C21432302   7.092   2.419   5.246 -0.2548  0.4227 -0.4176
   85MOL   C21532303   7.103   2.551   5.208 -0.5203 -0.3688  0.4984
   85MOL   C21632304   7.170   2.649   5.301  0.0180 -0.3137 -0.1000
   85MOL   C21732305   7.023   2.598   5.091 -0.8351  0.7390  0.1178
   85MOL   C21832306   6.944   2.504   5.016 -0.1986 -0.4363  0.2802
   85MOL   C21932307   6.979   2.269   4.815 -0.3216  0.0954  0.1742
   85MOL   H22032308   6.944   2.155   4.984  1.7519  0.0739 -0.5915
   85MOL   H22132309   7.030   2.218   5.193  1.5852  0.9441  2.4038
   85MOL   H22232310   7.144   2.394   5.337  3.0547  0.4451 -2.2171
   85MOL   H22332311   7.251   2.696   5.244 -0.1028  0.6157  0.4806
   85MOL   H22432312   7.101   2.728   5.330  2.1488  1.1302  1.2196
   85MOL   H22532313   7.216   2.617   5.395 -0.8941  1.8638  1.1334
   85MOL   H22632314   7.022   2.699   5.054  0.3629  0.9450  0.6263
   85MOL   H22732315   6.884   2.540   4.933  2.0419  2.1078 -0.3073
   85MOL   H22832316   6.941   2.364   4.780 -1.2559 -0.2553  0.2376
   85MOL   H22932317   6.936   2.201   4.742  0.5286  0.0811 -0.3196
   85MOL   C23032318   7.133   2.274   4.807 -0.2114 -0.1489  0.5162
   85MOL   C23132319   7.189   2.318   4.674 -0.0393 -0.1561 -0.0154
   85MOL   C23232320   7.156   2.231   4.571 -0.5062  0.5222  0.4588
   85MOL   C23332321   7.185   2.277   4.445  0.3102 -0.2712  0.3458
   85MOL   C23432322   7.262   2.392   4.418 -0.4193 -0.0477  0.7098
   85MOL   C23532323   7.300   2.435   4.279  0.2345  0.1274 -0.5088
   85MOL   C23632324   7.307   2.473   4.526  0.4363 -0.2968 -0.3819
   85MOL   C23732325   7.276   2.429   4.657  0.2373 -0.8008  0.7267
   85MOL   C23832326   7.205   2.138   4.856  0.0539 -0.1511  0.7645
   85MOL   H23932327   7.168   2.342   4.884  0.8783 -0.4020  0.2654
   85MOL   H24032328   7.092   2.147   4.593  0.1611  0.0681  0.6763
   85MOL   H24132329   7.134   2.223   4.367 -0.9770  2.3595 -0.6850
   85MOL   H24232330   7.401   2.416   4.243  0.5686  0.8116  0.0411
   85MOL   H24332331   7.241   2.382   4.204 -0.9047  0.8173 -0.1164
   85MOL   H24432332   7.280   2.540   4.259 -0.7730 -0.3776 -2.2740
   85MOL   H24532333   7.361   2.565   4.507  0.6447 -0.5446 -1.0176
   85MOL   H24632334   7.304   2.487   4.743  1.4291  0.7384 -0.6510
   85MOL   H24732335   7.195   2.063   4.777 -1.0939  0.9992 -0.2028
   85MOL   H24832336   7.146   2.093   4.936  0.2327 -0.4429  0.7317
   85MOL   C24932337   7.352   2.161   4.901 -0.4095 -0.0902 -0.1955
   85MOL   C25032338   7.452   2.063   4.835 -0.1239  0.1324 -0.5335
   85MOL   C25132339   7.483   2.091   4.697  0.7916 -0.5519  0.1003
   85MOL   C25232340   7.562   1.997   4.620  0.3548 -0.4787 -0.7495
   85MOL   C25332341   7.630   1.898   4.687  0.1185 -0.5457 -0.0233
   85MOL   C25432342   7.724   1.815   4.607  1.0745 -0.1952  0.5106
   85MOL   C25532343   7.603   1.867   4.825 -0.4153 -0.0327 -0.7677
   85MOL   C25632344   7.518   1.952   4.897 -0.1172  0.6561  0.3056
   85MOL   C25732345   7.365   2.168   5.054  0.0965 -0.5195 -0.1252
   85MOL   H25832346   7.386   2.255   4.858  0.2275 -1.2592 -2.2721
   85MOL   H25932347   7.424   2.168   4.648  1.3387  0.0655  0.4178
   85MOL   H26032348   7.578   2.022   4.516 -1.1109 -0.3892 -0.9531
   85MOL   H26132349   7.705   1.711   4.632  1.3668 -0.8161 -1.7735
   85MOL   H26232350   7.695   1.826   4.503 -1.2065  0.9071  1.2364
   85MOL   H26332351   7.827   1.851   4.603  0.6324  1.0565  0.0499
   85MOL   H26432352   7.651   1.785   4.876  0.2308  1.6348  1.3680
   85MOL   H26532353   7.505   1.937   5.004  0.7337  0.5681  0.3990
   85MOL   H26632354   7.348   2.067   5.091  0.4688 -0.2827  0.6970
   85MOL   H26732355   7.288   2.228   5.103  0.0835 -0.5461 -0.1131
   85MOL   C26832356   7.507   2.222   5.099  0.2278 -0.1873 -0.1191
   85MOL   C26932357   7.545   2.178   5.240 -0.2952 -0.2740  0.1323
   85MOL   C27032358   7.653   2.089   5.261 -0.8034  0.0428  0.9606
   85MOL   C27132359   7.684   2.044   5.389 -0.0110 -0.4020 -0.9215
   85MOL   C27232360   7.607   2.090   5.496  0.0681 -0.1040 -0.1442
   85MOL   C27332361   7.644   2.044   5.635 -0.0623  0.4161  0.2034
   85MOL   C27432362   7.495   2.175   5.475 -0.6679  0.0883 -0.1914
   85MOL   C27532363   7.468   2.223   5.348 -0.1079  0.3956 -0.1499
   85MOL   C27632364   7.519   2.371   5.066  0.4028  0.0945  1.0949
   85MOL   H27732365   7.580   2.176   5.033 -0.9450 -1.9897 -0.1841
   85MOL   H27832366   7.708   2.049   5.176 -0.3059  1.4233  0.6197
   85MOL   H27932367   7.770   1.981   5.407 -0.8576 -0.5666  2.8273
   85MOL   H28032368   7.730   1.978   5.635  0.0870  0.5814 -1.6332
   85MOL   H28132369   7.670   2.123   5.706  0.1209  1.4516 -1.0126
   85MOL   H28232370   7.560   1.992   5.682  0.9703  0.1753  1.8305
   85MOL   H28332371   7.445   2.219   5.560 -0.2196 -1.7454  1.0677
   85MOL   H28432372   7.407   2.308   5.325  0.0902  0.8207  0.8910
   85MOL   H28532373   7.428   2.417   5.104 -1.0054 -1.4172 -0.3583
   85MOL   H28632374   7.507   2.390   4.959 -0.4358  2.5157  1.5756
   85MOL   C28732375   7.637   2.454   5.123 -0.0362 -0.3496  0.0754
   85MOL   C28832376   7.596   2.604   5.131  0.0372 -0.3712 -0.4686
   85MOL   C28932377   7.583   2.684   5.249  0.6982 -0.8616 -0.4083
   85MOL   C29032378   7.553   2.824   5.241 -0.6484 -0.2427  0.7995
   85MOL   C29132379   7.529   2.888   5.119 -0.5341  0.7832 -0.6544
   85MOL   C29232380   7.506   3.043   5.111  0.3057 -0.2227 -0.6867
   85MOL   C29332381   7.529   2.807   5.004 -0.3293 -0.9467 -0.6718
   85MOL   C29432382   7.560   2.672   5.011  0.9994 -0.1107  0.1731
   85MOL   C29532383   7.770   2.443   5.042  0.0175  0.0963 -0.1779
   85MOL   H29632384   7.649   2.431   5.229  1.4494 -1.2357 -0.2641
   85MOL   H29732385   7.605   2.637   5.343  0.1272 -0.7847 -0.2360
   85MOL   H29832386   7.541   2.871   5.337  0.1304 -0.6266  1.0921
   85MOL   H29932387   7.489   3.083   5.011 -0.5238  0.0414 -0.4402
   85MOL   H30032388   7.416   3.066   5.168  0.9825  1.6919 -0.3565
   85MOL   H30132389   7.588   3.095   5.162 -0.7879 -0.0861  0.9676
   85MOL   H30232390   7.509   2.857   4.911 -1.3233  1.3062  0.7051
   85MOL   H30332391   7.560   2.619   4.916  2.3418  2.0633 -1.0899
   85MOL   H30432392   7.759   2.513   4.959 -0.6865  0.4625  0.2190
   85MOL   H30532393   7.776   2.342   5.002 -1.7850  1.8005 -5.0924
   85MOL   C30632394   7.904   2.474   5.117  0.1707 -0.6665 -0.4151
   85MOL   C30732395   8.019   2.511   5.025 -0.0158  0.1971  0.7378
   85MOL   C30832396   0.026   2.416   4.967  0.3083  0.4706  0.4621
   85MOL   C30932397   0.136   2.463   4.889  0.6895 -0.5600 -0.5954
   85MOL   C31032398   0.158   2.600   4.859 -0.0598 -0.2554 -0.3837
   85MOL   C31132399   0.266   2.637   4.766  0.1748  0.1756  0.2331
   85MOL   C31232400   0.074   2.692   4.923  0.1112 -0.7987  0.0614
   85MOL   C31332401   8.052   2.648   5.010  0.2137 -0.0653 -0.8818
   85MOL   C31432402   7.943   2.350   5.207 -0.6225 -0.7383 -0.1357
   85MOL   H31532403   7.885   2.554   5.188  0.4985  0.0201 -1.0987
   85MOL   H31632404   0.012   2.309   4.980 -2.8049  0.7543 -0.1042
   85MOL   H31732405   0.204   2.398   4.835  1.5840 -1.1849  1.2409
   85MOL   H31832406   0.234   2.616   4.663  3.4369  0.3453 -0.8673
   85MOL   H31932407   0.274   2.745   4.762 -1.2246  0.2532 -0.8162
   85MOL   H32032408   0.364   2.591   4.782  0.1664  0.1166  0.1197
   85MOL   H32132409   0.084   2.797   4.902 -1.5783 -0.8181 -0.9140
   85MOL   H32232410   7.995   2.721   5.066 -0.5933 -1.5810  0.3187
   85MOL   H32332411   7.939   2.265   5.138  0.5810 -1.5794  0.8119
   85MOL   H32432412   7.869   2.330   5.285 -0.6739  1.7026  0.4715
   85MOL   C32532413   8.078   2.345   5.279  0.3092 -0.2749  0.0734
   85MOL   C32632414   0.021   2.224   5.357 -0.0738  0.3386  0.5010
   85MOL   C32732415   8.021   2.189   5.466  0.2718  0.2452  0.1500
   85MOL   C32832416   8.033   2.063   5.535 -0.3470 -0.1475 -0.8000
   85MOL   C32932417   0.049   1.973   5.481  0.3427  0.2391 -0.1570
   85MOL   C33032418   0.072   1.837   5.545 -0.5717 -0.2219  0.8385
   85MOL   C33132419   0.141   2.015   5.381 -0.4464  0.2669 -0.5592
   85MOL   C33232420   0.126   2.141   5.320 -0.1013  0.3342 -0.4037
   85MOL   C33332421   0.023   2.459   5.382 -0.0188  0.1567  0.0270
   85MOL   H33432422   0.074   2.361   5.202  0.8308  0.9988  0.8395
   85MOL   H33532423   7.945   2.260   5.494  1.1473  1.1728  0.1897
   85MOL   H33632424   7.972   2.040   5.621 -0.1756 -2.6399 -1.3143
   85MOL   H33732425   0.082   1.766   5.463 -0.4672 -0.0051  0.6638
   85MOL   H33832426   0.167   1.849   5.596  0.3821 -1.9157 -0.4766
   85MOL   H33932427   8.071   1.810   5.613 -0.8185 -0.0300  0.6237
   85MOL   H34032428   0.223   1.950   5.352 -0.5843 -0.1396 -0.0385
   85MOL   H34132429   0.185   2.171   5.235  0.6013 -0.7456 -0.3080
   85MOL   H34232430   8.027   2.456   5.460  2.6663  0.5658  2.7567
   85MOL   H34332431   0.003   2.558   5.340 -1.8741 -0.3467 -0.3302
   85MOL   C34432432   0.161   2.472   5.449  0.0473 -0.6515  1.0325
   85MOL   C34532433   0.148   2.568   5.575 -0.5334 -0.0982 -0.5143
   85MOL   C34632434   0.155   2.708   5.555  0.6027  0.2974  0.3832
   85MOL   C34732435   0.164   2.796   5.665  0.1877  0.0219  0.6997
   85MOL   C34832436   0.137   2.746   5.791  0.3336 -0.1555  0.2426
   85MOL   C34932437   0.110   2.852   5.897 -0.3634 -0.1217  0.5129
   85MOL   C35032438   0.112   2.612   5.815  0.7795  0.0829 -0.3656
   85MOL   C35132439   0.119   2.521   5.706 -0.4706 -0.3332 -0.6354
   85MOL   C35232440   0.279   2.497   5.350 -0.1714  0.1769 -0.3456
   85MOL   H35332441   0.185   2.380   5.502  0.0485  0.4216  2.9559
   85MOL   H35432442   0.163   2.749   5.455 -1.4978  3.9746  1.6122
   85MOL   H35532443   0.178   2.902   5.650  0.5469 -0.1538 -0.3146
   85MOL   H35632444   0.123   2.945   5.842  2.7531 -0.3789  0.7385
   85MOL   H35732445   0.013   2.839   5.945  0.3525 -0.4400  1.8944
   85MOL   H35832446   0.183   2.855   5.977 -0.6130 -3.0688  0.9140
   85MOL   H35932447   0.086   2.595   5.918  3.5810 -0.6451  0.2628
   85MOL   H36032448   0.092   2.417   5.715 -0.2386 -0.3728 -0.4138
   85MOL   H36132449   0.241   2.575   5.284  0.0592  1.4064  0.9253
   85MOL   H36232450   0.300   2.409   5.290 -1.6890  0.1346 -0.8380
   85MOL   C36332451   0.412   2.541   5.410  0.3861  0.2235 -0.8342
   85MOL   C36432452   0.498   2.610   5.305 -0.1000 -0.1502  0.9152
   85MOL   C36532453   0.455   2.741   5.264 -0.3389 -0.4172 -0.0290
   85MOL   C36632454   0.514   2.801   5.149  0.4478  0.6398 -0.8182
   85MOL   C36732455   0.622   2.738   5.079  0.6345  0.3803 -0.2284
   85MOL   C36832456   0.674   2.808   4.949  0.2607 -0.4797 -0.0792
   85MOL   C36932457   0.667   2.607   5.118 -0.4195  0.5032 -0.3295
   85MOL   C37032458   0.601   2.543   5.224  0.3937  0.1794 -0.7584
   85MOL   C37132459   0.488   2.429   5.478 -0.2214 -0.3716 -0.9078
   85MOL   H37232460   0.410   2.612   5.493  2.9979  0.3170 -0.8191
   85MOL   H37332461   0.371   2.784   5.318 -0.2901 -0.2071 -0.1195
   85MOL   H37432462   0.472   2.892   5.108  0.8586  1.0808 -0.2626
   85MOL   H37532463   0.717   2.730   4.886 -0.6229 -1.5760  0.6594
   85MOL   H37632464   0.588   2.854   4.900 -0.7609 -0.5625  1.6145
   85MOL   H37732465   0.750   2.878   4.983  1.3076 -1.2840 -0.7213
   85MOL   H37832466   0.742   2.559   5.056 -1.4803 -0.8414 -0.6095
   85MOL   H37932467   0.636   2.441   5.238 -0.9209 -0.3822 -1.4444
   85MOL   H38032468   0.567   2.483   5.531 -0.1702 -1.8441  0.5535
   85MOL   H38132469   0.509   2.335   5.427 -2.6650 -1.0782 -0.6788
   85MOL   H38232470   0.423   2.388   5.556 -0.2997 -0.3252 -0.9488
   86MOL     C132471   2.932   2.825   5.001 -0.5584 -0.3112  0.2532
   86MOL     C232472   3.085   2.837   4.995  0.9010  0.1841  0.7359
   86MOL     C332473   3.175   2.765   5.074 -0.0703 -0.8157  0.0637
   86MOL     C432474   3.315   2.778   5.066 -0.1572 -0.2869  0.2136
   86MOL     C532475   3.368   2.864   4.966  0.2436 -0.1099  0.6113
   86MOL     C632476   3.525   2.873   4.938  1.0954  0.3164  0.3658
   86MOL     C732477   3.277   2.939   4.888 -0.2587 -0.5425 -0.3509
   86MOL     C832478   3.140   2.922   4.900  0.0104  0.1980  0.3619
   86MOL     C932479   2.862   2.729   4.908  0.9272 -0.1218  0.7770
   86MOL    H1032480   2.897   2.817   5.104  0.7092 -0.1154  0.7128
   86MOL    H1132481   3.119   2.705   5.145 -1.5583  1.7470  1.1712
   86MOL    H1232482   3.382   2.714   5.122 -1.8129 -0.4237  2.0638
   86MOL    H1332483   3.581   2.883   5.031 -0.0397 -0.2560  1.1176
   86MOL    H1432484   3.555   2.782   4.885  1.0353  0.3771  0.2280
   86MOL    H1532485   3.551   2.958   4.876 -0.2908  0.3608 -0.1734
   86MOL    H1632486   3.316   3.018   4.825 -0.6236  0.7802  1.0376
   86MOL    H1732487   3.082   2.987   4.836  1.1749 -1.3536 -2.3481
   86MOL    H1832488   2.832   2.641   4.964  1.0143 -0.1192  0.8280
   86MOL    H1932489   2.932   2.700   4.830  1.3541 -0.3729  1.2553
   86MOL    H2032490   2.893   2.922   4.971 -1.8211 -1.2521 -1.2304
   86MOL    C2132491   2.730   2.779   4.837 -0.7753 -0.2964 -0.4058
   86MOL    C2232492   2.640   2.877   4.918  0.0123  0.5944 -0.2653
   86MOL    C2332493   2.575   2.842   5.034  0.4700 -0.4302  0.0866
   86MOL    C2432494   2.487   2.931   5.103  0.6115 -0.7179 -0.2471
   86MOL    C2532495   2.464   3.058   5.048  0.5507 -0.1360  0.5797
   86MOL    C2632496   2.350   3.142   5.106 -0.1075  0.3892 -0.3594
   86MOL    C2732497   2.531   3.102   4.932 -0.1003 -0.0669 -0.4983
   86MOL    C2832498   2.620   3.008   4.874 -0.1780 -0.3583  0.4890
   86MOL    C2932499   2.648   2.657   4.781  0.0147  0.1186 -0.2989
   86MOL    H3032500   2.768   2.827   4.747  0.0377  0.7237  0.4533
   86MOL    H3132501   2.594   2.746   5.081  0.2508 -0.5286 -0.0257
   86MOL    H3232502   2.429   2.900   5.188 -0.8922  0.0000 -0.9858
   86MOL    H3332503   2.369   3.249   5.090  2.8622  0.1229  0.8876
   86MOL    H3432504   2.253   3.103   5.075  1.1405 -2.9943 -0.2097
   86MOL    H3532505   2.348   3.134   5.215  1.3452 -0.3522 -0.3745
   86MOL    H3632506   2.510   3.202   4.896 -2.4067 -1.3004 -2.8147
   86MOL    H3732507   2.676   3.044   4.789  1.3673 -2.4231  0.5859
   86MOL    H3832508   2.603   2.610   4.868 -1.9064  0.6352 -1.0046
   86MOL    H3932509   2.710   2.577   4.739  0.1558  1.1070 -2.0136
   86MOL    C4032510   2.544   2.696   4.681 -0.2398  0.8277 -0.9846
   86MOL    C4132511   2.438   2.586   4.673 -0.1629 -0.3216  0.2272
   86MOL    C4232512   2.464   2.448   4.667  0.0393 -0.4087  0.4039
   86MOL    C4332513   2.360   2.353   4.652 -0.9058 -0.2065  0.5818
   86MOL    C4432514   2.227   2.398   4.646 -0.2736  0.2852  0.0070
   86MOL    C4532515   2.108   2.306   4.637 -0.2675  0.0909  0.1323
   86MOL    C4632516   2.197   2.536   4.658  0.0318 -0.2138 -1.3041
   86MOL    C4732517   2.303   2.628   4.671 -1.0943  0.0101 -0.0806
   86MOL    C4832518   2.602   2.732   4.546 -0.4785 -0.0410 -0.0962
   86MOL    H4932519   2.492   2.771   4.739  0.3474  0.4641  0.0179
   86MOL    H5032520   2.563   2.406   4.671 -0.6048 -2.0683 -0.4284
   86MOL    H5132521   2.375   2.246   4.657 -3.6989 -0.6229  1.1351
   86MOL    H5232522   2.109   2.215   4.578 -1.6128 -0.8346  1.4941
   86MOL    H5332523   2.089   2.271   4.739  0.1554  0.3450  0.2991
   86MOL    H5432524   2.016   2.359   4.613 -1.1020 -0.8953  1.1272
   86MOL    H5532525   2.092   2.562   4.651  0.3024  1.0547 -0.7200
   86MOL    H5632526   2.284   2.734   4.668 -1.3490 -0.0581 -0.9926
   86MOL    H5732527   2.618   2.640   4.490 -0.0179 -0.1621  0.2264
   86MOL    H5832528   2.702   2.775   4.558 -0.2459 -0.9766  1.4721
   86MOL    C5932529   2.506   2.830   4.464  0.0873  0.4148 -0.4344
   86MOL    C6032530   2.541   2.825   4.314  0.7138  1.0341 -0.3236
   86MOL    C6132531   2.637   2.909   4.259  0.3795 -0.9281 -0.3527
   86MOL    C6232532   2.658   2.912   4.123  0.4164 -0.2241  0.1617
   86MOL    C6332533   2.567   2.838   4.041  0.0963  0.1420 -0.7442
   86MOL    C6432534   2.603   2.825   3.897 -0.5069  0.7322  0.0675
   86MOL    C6532535   2.465   2.757   4.092 -0.2274  0.3521 -0.4370
   86MOL    C6632536   2.453   2.753   4.231  0.0037 -0.4429 -0.6963
   86MOL    C6732537   2.513   2.977   4.520  1.0063  0.6237  0.7977
   86MOL    H6832538   2.403   2.796   4.478  0.6369 -0.4679  1.5642
   86MOL    H6932539   2.705   2.969   4.317 -0.3198 -0.6606  0.2043
   86MOL    H7032540   2.734   2.968   4.070  0.6060  0.4083  1.0971
   86MOL    H7132541   2.710   2.811   3.910 -0.6632  0.0416  0.6514
   86MOL    H7232542   2.555   2.732   3.865  1.4402 -0.2688 -0.0154
   86MOL    H7332543   2.583   2.909   3.830  0.3198  0.8230 -0.0644
   86MOL    H7432544   2.404   2.692   4.031  1.7480 -1.2750 -0.7635
   86MOL    H7532545   2.385   2.682   4.273 -0.5864 -0.7495 -2.1384
   86MOL    H7632546   2.615   3.014   4.525  0.7688  1.0871  2.9797
   86MOL    H7732547   2.486   2.967   4.625 -2.1920 -1.8856 -0.1679
   86MOL    C7832548   2.418   3.084   4.449  0.4726 -0.2130  0.2350
   86MOL    C7932549   2.463   3.222   4.497 -0.1555 -0.1469  1.0597
   86MOL    C8032550   2.459   3.261   4.633 -0.0195  0.3852  0.1905
   86MOL    C8132551   2.495   3.395   4.668 -0.3496  0.3232  0.3157
   86MOL    C8232552   2.538   3.485   4.570 -0.2047  0.3251  0.1427
   86MOL    C8332553   2.569   3.627   4.603 -0.1538 -0.1321 -0.2182
   86MOL    C8432554   2.542   3.447   4.435  0.4795 -0.5062  0.1640
   86MOL    C8532555   2.506   3.313   4.397 -0.1266 -0.5371  0.1208
   86MOL    C8632556   2.266   3.058   4.483 -0.1890  0.1477 -0.3639
   86MOL    H8732557   2.413   3.081   4.341 -2.4044 -0.2613  0.3200
   86MOL    H8832558   2.432   3.182   4.702  1.4556 -0.4498 -0.1768
   86MOL    H8932559   2.493   3.438   4.767 -0.3226  2.4797 -0.6131
   86MOL    H9032560   2.620   3.644   4.699  2.2559  2.2531 -1.8460
   86MOL    H9132561   2.648   3.666   4.539  0.2517  0.9258  0.9001
   86MOL    H9232562   2.481   3.692   4.601 -0.4666 -0.5471  0.0514
   86MOL    H9332563   2.573   3.514   4.357 -1.3822  0.6628  0.4015
   86MOL    H9432564   2.500   3.283   4.294  2.6645  0.0286 -0.2402
   86MOL    H9532565   2.247   3.072   4.590 -1.9115  0.8352 -0.7441
   86MOL    H9632566   2.240   2.953   4.478  3.0035 -0.6964 -0.5301
   86MOL    C9732567   2.167   3.143   4.402  0.1061  0.1810  0.2439
   86MOL    C9832568   2.033   3.170   4.479  0.1820 -0.3813  0.3562
   86MOL    C9932569   1.991   3.301   4.486 -0.1164  0.4822 -0.4863
   86MOL   C10032570   1.870   3.337   4.545  0.1425 -0.5317 -0.0759
   86MOL   C10132571   1.785   3.233   4.589 -0.1947 -0.3410 -1.2031
   86MOL   C10232572   1.644   3.280   4.633 -0.8810 -1.1819  0.6866
   86MOL   C10332573   1.828   3.097   4.577  0.0934 -0.8277  0.4230
   86MOL   C10432574   1.957   3.065   4.528 -0.0129 -0.0758 -0.4210
   86MOL   C10532575   2.139   3.073   4.265 -2.0047 -0.1395  0.1774
   86MOL   H10632576   2.225   3.234   4.391 -0.2045  0.3668  0.1116
   86MOL   H10732577   2.058   3.373   4.442  0.2750 -1.2387 -2.8694
   86MOL   H10832578   1.845   3.442   4.555 -0.9161 -1.0224  2.8050
   86MOL   H10932579   1.594   3.296   4.537 -2.2388  0.2638  1.6088
   86MOL   H11032580   1.585   3.219   4.701 -1.4023 -1.2567  0.1762
   86MOL   H11132581   1.662   3.376   4.680  2.4280 -0.0377 -2.6185
   86MOL   H11232582   1.758   3.021   4.608 -0.8021  0.3849  1.4382
   86MOL   H11332583   1.990   2.963   4.523 -0.5509 -0.3376  1.1368
   86MOL   H11432584   2.071   2.990   4.285 -0.2265 -1.2527  1.7243
   86MOL   H11532585   2.229   3.022   4.232 -1.9759  0.4268 -0.6343
   86MOL   C11632586   2.102   3.177   4.155 -0.2734  0.0619  0.3709
   86MOL   C11732587   2.074   3.092   4.028 -0.5902 -0.4095 -0.9693
   86MOL   C11832588   1.950   3.087   3.966  0.6515 -0.1054 -0.6721
   86MOL   C11932589   1.925   3.020   3.840  0.3653 -0.2397 -0.2010
   86MOL   C12032590   2.037   2.971   3.773  0.2574  0.2269  0.4867
   86MOL   C12132591   2.030   2.933   3.622  0.2907 -0.0063 -0.5137
   86MOL   C12232592   2.161   2.964   3.842 -0.6175 -0.2008  0.4361
   86MOL   C12332593   2.186   3.023   3.971 -1.1064  0.3662 -0.1675
   86MOL   C12432594   2.205   3.283   4.134 -0.0129 -0.2396 -0.5577
   86MOL   H12532595   2.006   3.218   4.186 -1.2575 -1.3026 -0.8560
   86MOL   H12632596   1.871   3.135   4.022  0.8038 -0.2417 -0.3359
   86MOL   H12732597   1.826   3.028   3.798 -0.0314  2.0209  1.0350
   86MOL   H12832598   1.957   3.001   3.579 -0.9669 -1.9151 -1.4388
   86MOL   H12932599   2.131   2.941   3.582  0.5905  1.2504  0.4491
   86MOL   H13032600   1.996   2.830   3.615  0.6800 -0.0063 -2.7166
   86MOL   H13132601   2.243   2.915   3.792  0.1484  1.1785  0.3032
   86MOL   H13232602   2.287   3.028   4.008 -1.2953  1.8317  0.1607
   86MOL   H13332603   2.299   3.229   4.125 -0.0609 -0.4479  0.1385
   86MOL   H13432604   2.223   3.344   4.223  0.7327 -1.5754  0.2320
   86MOL   C13532605   2.192   3.374   4.017 -0.9655  0.7092 -0.1055
   86MOL   C13632606   2.309   3.470   4.008  0.3564 -0.1478 -0.2621
   86MOL   C13732607   2.386   3.473   3.893 -0.3110  0.4118  0.4190
   86MOL   C13832608   2.500   3.556   3.878 -0.4189  0.3014 -0.0187
   86MOL   C13932609   2.535   3.636   3.992  0.1196  0.0041  0.2824
   86MOL   C14032610   2.665   3.705   3.997 -0.0330  0.1324  0.1840
   86MOL   C14132611   2.448   3.640   4.106 -0.3393  0.3109  0.0423
   86MOL   C14232612   2.336   3.564   4.106 -0.3109  0.3463  0.4379
   86MOL   C14332613   2.054   3.447   4.012  0.0206 -0.5743 -0.1665
   86MOL   H14432614   2.197   3.301   3.936 -0.6960  0.9532 -0.3076
   86MOL   H14532615   2.355   3.410   3.811 -2.7299  0.9809  0.8787
   86MOL   H14632616   2.551   3.567   3.784  0.4598 -2.0341  0.1623
   86MOL   H14732617   2.700   3.732   3.898  0.9115 -0.6230  0.3080
   86MOL   H14832618   2.667   3.793   4.061 -2.0136 -0.0499  0.5425
   86MOL   H14932619   2.746   3.636   4.021  1.3892  1.0971 -1.7650
   86MOL   H15032620   2.472   3.709   4.186  0.4056 -0.5033  0.5314
   86MOL   H15132621   2.269   3.568   4.191 -3.0978 -0.2079 -1.6641
   86MOL   H15232622   2.037   3.452   4.120  1.2398 -0.1965  0.0167
   86MOL   H15332623   1.986   3.375   3.968 -0.1952 -1.8728  2.2017
   86MOL   C15432624   2.028   3.584   3.953 -0.6027 -0.2680  0.3704
   86MOL   C15532625   1.886   3.631   3.995  0.7807  0.3516  0.0763
   86MOL   C15632626   1.864   3.663   4.131 -0.6114  0.8715 -0.1626
   86MOL   C15732627   1.745   3.718   4.180  0.1022 -0.0573  0.0293
   86MOL   C15832628   1.635   3.738   4.094  0.6415 -0.0866 -0.1126
   86MOL   C15932629   1.501   3.793   4.145 -0.0569  0.5651  0.5510
   86MOL   C16032630   1.653   3.705   3.961  0.0885 -0.1028  0.1676
   86MOL   C16132631   1.773   3.657   3.912  0.1344 -0.4016 -0.5020
   86MOL   C16232632   2.056   3.563   3.801 -0.7926 -1.1628 -0.5901
   86MOL   H16332633   2.098   3.654   3.999  2.4521 -2.0778 -1.3065
   86MOL   H16432634   1.950   3.630   4.187 -0.7491 -0.5851 -0.7731
   86MOL   H16532635   1.737   3.752   4.282 -2.1812  3.4179 -1.2147
   86MOL   H16632636   1.475   3.891   4.105  1.6907  0.7018 -0.3132
   86MOL   H16732637   1.418   3.729   4.115 -1.9544  3.2058 -0.0683
   86MOL   H16832638   1.505   3.799   4.254 -1.8075 -1.9371  0.7968
   86MOL   H16932639   1.567   3.724   3.899  1.0246 -0.5174 -1.2657
   86MOL   H17032640   1.765   3.653   3.804  1.0535  4.8740 -0.8935
   86MOL   H17132641   1.966   3.515   3.765 -1.4171  0.3650 -1.1228
   86MOL   H17232642   2.142   3.501   3.776 -0.4470 -1.2382  0.7418
   86MOL   C17332643   2.075   3.690   3.718 -0.1548  0.1615  0.0965
   86MOL   C17432644   2.053   3.677   3.569  0.3311 -0.0222 -0.7894
   86MOL   C17532645   1.928   3.691   3.525  0.3430  0.1032 -0.0477
   86MOL   C17632646   1.898   3.684   3.384 -0.0015 -0.5679 -0.0497
   86MOL   C17732647   2.001   3.667   3.290  0.5422  0.5992 -0.4854
   86MOL   C17832648   1.975   3.683   3.144 -0.0317  0.0425  0.0507
   86MOL   C17932649   2.130   3.647   3.339 -0.2772  0.0105  0.2338
   86MOL   C18032650   2.154   3.649   3.475  0.0800 -0.3656 -0.2963
   86MOL   C18132651   2.203   3.772   3.767  0.0727  0.0654  0.1545
   86MOL   H18232652   1.999   3.758   3.755 -0.3535  0.2920 -0.5420
   86MOL   H18332653   1.848   3.692   3.598  0.4245 -1.8533  0.0965
   86MOL   H18432654   1.794   3.682   3.357  0.1005 -0.5989 -0.4464
   86MOL   H18532655   2.059   3.634   3.096 -0.7337 -0.3481 -0.7918
   86MOL   H18632656   1.882   3.632   3.117  0.1960 -0.5590  0.4143
   86MOL   H18732657   1.962   3.790   3.129 -1.6957 -0.0823  0.4118
   86MOL   H18832658   2.222   3.634   3.285  0.8971  2.2244  1.6438
   86MOL   H18932659   2.250   3.619   3.513 -0.6630  1.7680  3.5270
   86MOL   H19032660   2.295   3.720   3.744  0.1188 -0.2357  0.9984
   86MOL   H19132661   2.215   3.779   3.876 -0.1834 -2.4008  0.3720
   86MOL   C19232662   2.202   3.917   3.713  0.4810  0.0981  0.6771
   86MOL   C19332663   2.312   3.937   3.609 -0.3899  0.2538 -0.0811
   86MOL   C19432664   2.451   3.934   3.651 -0.3244  0.1847  0.4887
   86MOL   C19532665   2.556   3.947   3.557  0.1901 -0.4595  0.2326
   86MOL   C19632666   2.522   3.958   3.420 -0.5137 -0.4168  0.0630
   86MOL   C19732667   2.630   3.991   3.319 -0.7663 -0.4220 -0.3075
   86MOL   C19832668   2.384   3.962   3.384 -0.4749  0.3531  0.4067
   86MOL   C19932669   2.279   3.956   3.480  0.1265 -0.4672  0.4167
   86MOL   C20032670   2.218   4.026   3.819  0.7586  0.3463  0.4248
   86MOL   H20132671   2.110   3.929   3.657  1.3835 -2.7891 -1.5205
   86MOL   H20232672   2.474   3.940   3.756  0.2575  5.0382  0.1569
   86MOL   H20332673   2.658   3.958   3.590  0.8938 -1.3478 -1.5643
   86MOL   H20432674   2.653   4.097   3.332  4.5174 -1.4564 -0.3515
   86MOL   H20532675   2.717   3.929   3.337  0.0232  1.2026  1.7626
   86MOL   H20632676   2.597   3.970   3.217  0.1256 -1.3658 -0.3994
   86MOL   H20732677   2.341   3.970   3.285 -2.6986  2.5136  1.4783
   86MOL   H20832678   2.179   3.967   3.441  0.8017 -0.5691 -1.3588
   86MOL   H20932679   2.237   4.118   3.764  3.2010  0.4537  1.4179
   86MOL   H21032680   2.310   4.010   3.876  3.1100 -0.8432 -3.5365
   86MOL   C21132681   2.092   4.041   3.913 -0.2184  0.2217  0.0322
   86MOL   C21232682   1.958   4.060   3.838 -0.1663  0.8996  0.3229
   86MOL   C21332683   1.843   3.995   3.897 -0.3638 -0.1387  0.1780
   86MOL   C21432684   1.714   4.020   3.845 -0.3087  0.4808  0.2431
   86MOL   C21532685   1.696   4.101   3.728  0.1674 -0.4010  0.0704
   86MOL   C21632686   1.563   4.109   3.659  0.1257 -0.1637 -0.2562
   86MOL   C21732687   1.814   4.162   3.670  0.1563  0.1357 -0.7523
   86MOL   C21832688   1.937   4.153   3.733  0.8401  0.5342  0.1158
   86MOL   C21932689   2.110   4.158   4.011  0.3067  0.9033 -0.3110
   86MOL   H22032690   2.094   3.950   3.974  2.1144 -0.1527 -0.5369
   86MOL   H22132691   1.852   3.940   3.989  2.1893  0.0695  0.0956
   86MOL   H22232692   1.629   3.980   3.898  0.4524 -1.3695  0.1153
   86MOL   H22332693   1.484   4.131   3.732  2.3350 -2.9270  3.1608
   86MOL   H22432694   1.559   4.191   3.588 -0.0496  1.5757  1.7205
   86MOL   H22532695   1.551   4.020   3.597 -2.1556 -0.5659  0.6615
   86MOL   H22632696   1.811   4.221   3.580  0.0854  0.4546 -0.5425
   86MOL   H22732697   2.020   4.215   3.703  2.0984 -1.1075  0.1154
   86MOL   H22832698   2.011   4.168   4.056 -0.1622  1.3499 -1.4270
   86MOL   H22932699   2.137   4.244   3.950  2.9889 -0.1999 -0.7375
   86MOL   C23032700   2.212   4.128   4.122  0.7767  0.2429  0.3654
   86MOL   C23132701   2.156   4.045   4.236  0.4482  0.2918  0.4533
   86MOL   C23232702   2.044   4.096   4.308  0.8683  0.0224 -0.4014
   86MOL   C23332703   1.985   4.023   4.405  0.4140 -0.4764 -0.0752
   86MOL   C23432704   2.020   3.887   4.425 -0.0904 -0.2930  0.6028
   86MOL   C23532705   1.944   3.794   4.509  0.1584  0.0484 -0.7848
   86MOL   C23632706   2.126   3.837   4.358  0.4387 -0.1171 -0.3628
   86MOL   C23732707   2.208   3.914   4.267  0.0030  0.5950 -0.4417
   86MOL   C23832708   2.283   4.257   4.168  0.1210 -0.4618 -0.7301
   86MOL   H23932709   2.286   4.057   4.086  0.1113 -0.4704  0.3841
   86MOL   H24032710   2.011   4.198   4.295 -1.2377 -0.9599 -3.3370
   86MOL   H24132711   1.904   4.059   4.467  1.0402  0.1751  0.3677
   86MOL   H24232712   1.854   3.841   4.548  1.4695  1.4622  0.5825
   86MOL   H24332713   1.906   3.706   4.456 -1.8316  1.0723 -1.1121
   86MOL   H24432714   2.009   3.743   4.580 -1.0461 -0.4348 -0.0140
   86MOL   H24532715   2.155   3.737   4.386  1.0958  0.0348 -0.4812
   86MOL   H24632716   2.280   3.865   4.204  0.5499  3.2274 -1.9811
   86MOL   H24732717   2.323   4.243   4.269 -0.9225  0.9103 -0.1199
   86MOL   H24832718   2.198   4.322   4.189  1.5908  1.3264 -0.2261
   86MOL   C24932719   2.384   4.317   4.060  0.0516  0.1388 -0.0347
   86MOL   C25032720   2.503   4.226   4.032  0.5689 -0.0413  0.0225
   86MOL   C25132721   2.572   4.154   4.131  0.4153 -0.1769  0.3501
   86MOL   C25232722   2.694   4.095   4.100  0.2687 -0.4386 -0.4440
   86MOL   C25332723   2.737   4.083   3.968 -0.9625 -0.1163  0.9756
   86MOL   C25432724   2.862   4.004   3.925 -0.8153 -0.0630  0.7834
   86MOL   C25532725   2.663   4.148   3.865  0.4402 -0.0457 -0.7773
   86MOL   C25632726   2.547   4.218   3.896  0.5923  0.4157 -0.3542
   86MOL   C25732727   2.424   4.458   4.109 -0.0996  1.1183 -0.0675
   86MOL   H25832728   2.327   4.336   3.970 -0.7976  0.0382  0.4793
   86MOL   H25932729   2.535   4.148   4.232 -1.6543 -0.5114 -0.4046
   86MOL   H26032730   2.735   4.041   4.184 -0.8240  0.2812  0.5683
   86MOL   H26132731   2.910   4.031   3.830 -1.0960 -2.1723  0.0130
   86MOL   H26232732   2.941   4.011   3.999  0.0184 -1.7010  0.0974
   86MOL   H26332733   2.838   3.897   3.924 -0.7984 -0.0665  0.7376
   86MOL   H26432734   2.702   4.146   3.765 -1.5118  2.0550 -1.6172
   86MOL   H26532735   2.497   4.267   3.813 -0.6416  1.2881  0.8872
   86MOL   H26632736   2.508   4.481   4.043  0.3293 -1.1384 -0.3560
   86MOL   H26732737   2.473   4.449   4.206 -1.9736 -0.2780  0.7750
   86MOL   C26832738   2.316   4.577   4.095 -0.9008 -0.5245 -0.2140
   86MOL   C26932739   2.234   4.575   3.972 -0.5146  0.4534  0.1036
   86MOL   C27032740   2.094   4.567   3.983  0.5723  0.4356  0.3199
   86MOL   C27132741   2.013   4.595   3.878  0.2271  0.0903  0.2045
   86MOL   C27232742   2.066   4.602   3.747  0.5022  0.1801 -0.1921
   86MOL   C27332743   1.974   4.606   3.633  0.7609  0.1114 -0.8001
   86MOL   C27432744   2.204   4.600   3.728 -0.3127 -0.8309  0.6831
   86MOL   C27532745   2.287   4.588   3.844 -0.7094  0.3803  1.0022
   86MOL   C27632746   2.388   4.709   4.118 -0.1404  0.0530 -0.2634
   86MOL   H27732747   2.255   4.584   4.185 -1.9956 -1.7263 -0.8493
   86MOL   H27832748   2.057   4.560   4.084 -0.1425  1.0003  0.1018
   86MOL   H27932749   1.907   4.584   3.897  0.6635  0.5348  3.0425
   86MOL   H28032750   1.921   4.512   3.623  0.1518  0.6776 -3.2480
   86MOL   H28132751   1.902   4.689   3.632  0.3492 -0.1783  1.5435
   86MOL   H28232752   2.045   4.628   3.553  1.3598  0.4102 -0.1873
   86MOL   H28332753   2.243   4.606   3.627 -2.1196  0.6124  0.0345
   86MOL   H28432754   2.394   4.588   3.833 -0.7986 -0.7328  0.0427
   86MOL   H28532755   2.467   4.714   4.044 -2.0121 -0.8947 -2.3958
   86MOL   H28632756   2.432   4.703   4.218  0.9558  0.5739 -0.7162
   86MOL   C28732757   2.314   4.845   4.097 -0.7087 -0.1070 -0.5208
   86MOL   C28832758   2.423   4.956   4.071  0.2384 -0.3915 -0.8532
   86MOL   C28932759   2.416   5.043   3.960  0.5148 -0.2347 -0.1002
   86MOL   C29032760   2.533   5.129   3.940  0.6227 -0.1336  0.2595
   86MOL   C29132761   2.639   5.132   4.035  0.3251 -0.1562 -0.0423
   86MOL   C29232762   2.753   5.229   4.021  0.3634  0.3246 -0.1236
   86MOL   C29332763   2.638   5.048   4.145 -0.3941  0.5223 -0.1872
   86MOL   C29432764   2.530   4.963   4.161 -0.0241  0.5315  0.7916
   86MOL   C29532765   2.217   4.892   4.208  0.3925  0.3872 -0.0126
   86MOL   H29632766   2.272   4.827   3.998  1.3205  1.8316 -1.7885
   86MOL   H29732767   2.334   5.031   3.891  0.0153  2.1747  0.0484
   86MOL   H29832768   2.543   5.195   3.855 -1.1013  1.0879  0.9914
   86MOL   H29932769   2.717   5.330   4.000 -0.4625  0.0290 -0.1390
   86MOL   H30032770   2.816   5.241   4.109  2.0090  1.0723 -1.3645
   86MOL   H30132771   2.812   5.204   3.932 -0.2833  1.5419 -0.9132
   86MOL   H30232772   2.724   5.058   4.210  0.1780 -1.8525 -0.5214
   86MOL   H30332773   2.526   4.913   4.257 -0.7462  1.6970  1.3801
   86MOL   H30432774   2.253   4.980   4.261  0.0596  1.6900 -1.8800
   86MOL   H30532775   2.205   4.812   4.280  1.1257  0.3253  0.0427
   86MOL   C30632776   2.073   4.907   4.157  0.3114 -0.1678 -0.3105
   86MOL   C30732777   2.058   5.006   4.037  0.0137  0.3366  0.1202
   86MOL   C30832778   1.989   4.958   3.924  0.1084 -0.4442  0.9266
   86MOL   C30932779   1.967   5.062   3.820 -0.2280  0.0916 -0.4942
   86MOL   C31032780   2.016   5.196   3.829 -0.4604  0.7858 -0.4559
   86MOL   C31132781   1.997   5.286   3.713 -0.0511 -0.4063 -0.0828
   86MOL   C31232782   2.082   5.229   3.950  0.0092 -0.2847  0.6389
   86MOL   C31332783   2.103   5.137   4.051 -0.5675  0.8521  0.1754
   86MOL   C31432784   1.973   4.932   4.268 -0.2281 -0.0293 -0.2269
   86MOL   H31532785   2.058   4.806   4.119 -1.9718  0.5406 -1.4165
   86MOL   H31632786   1.963   4.854   3.908  0.8187 -0.1906 -2.1012
   86MOL   H31732787   1.910   5.035   3.732 -1.9514 -0.1839  0.6962
   86MOL   H31832788   2.085   5.347   3.694 -0.9385  0.7015 -0.6804
   86MOL   H31932789   1.979   5.243   3.615 -1.2677 -0.9280  0.3540
   86MOL   H32032790   1.913   5.355   3.723 -0.0263 -0.2224 -1.1458
   86MOL   H32132791   2.128   5.326   3.959 -0.1426 -0.2486  1.0556
   86MOL   H32232792   2.167   5.178   4.129  1.0473 -0.1219 -0.6234
   86MOL   H32332793   1.878   4.944   4.217  0.0852  3.3110 -0.1363
   86MOL   H32432794   1.988   5.031   4.311  0.1448 -0.3008  0.2819
   86MOL   C32532795   1.959   4.835   4.382 -0.0870 -0.0931 -0.7821
   86MOL   C32632796   1.910   4.696   4.334 -0.9989  0.5359  0.1938
   86MOL   C32732797   1.806   4.682   4.248  0.1123  0.9592  1.0216
   86MOL   C32832798   1.764   4.552   4.208  0.0048 -0.3775 -0.3780
   86MOL   C32932799   1.816   4.436   4.268 -0.6646 -0.2957 -0.6376
   86MOL   C33032800   1.755   4.300   4.233 -0.5270  0.2502 -0.2813
   86MOL   C33132801   1.919   4.454   4.361 -0.6279  0.2906 -0.9055
   86MOL   C33232802   1.972   4.582   4.397  0.4888 -0.3562 -0.5033
   86MOL   C33332803   1.861   4.896   4.479 -0.8471  0.4708  0.0365
   86MOL   H33432804   2.046   4.830   4.447 -1.2940  1.0693  0.9703
   86MOL   H33532805   1.758   4.767   4.203 -1.9364 -0.5973  0.1908
   86MOL   H33632806   1.684   4.539   4.137 -1.9041 -1.4918  1.9400
   86MOL   H33732807   1.799   4.270   4.137 -0.9415  2.0230 -1.0459
   86MOL   H33832808   1.775   4.221   4.305 -0.8624  0.3174 -0.1145
   86MOL   H33932809   1.650   4.323   4.214 -0.7907  0.1234  0.9824
   86MOL   H34032810   1.961   4.363   4.401 -2.8077 -0.8829 -1.2348
   86MOL   H34132811   2.055   4.597   4.465  0.0378  0.4455 -0.1166
   86MOL   H34232812   1.765   4.898   4.427 -0.3099  2.2936 -0.9621
   86MOL   H34332813   1.895   4.992   4.519 -2.9099  0.6771  1.3527
   86MOL   C34432814   1.835   4.815   4.605  0.7095 -0.6487 -0.5466
   86MOL   C34532815   1.699   4.862   4.671 -0.3685 -0.4286  0.2775
   86MOL   C34632816   1.589   4.771   4.666 -0.4018 -1.1849  0.4786
   86MOL   C34732817   1.459   4.816   4.694 -0.1538  0.0598  0.1029
   86MOL   C34832818   1.444   4.945   4.744  1.5882  0.0204  0.3138
   86MOL   C34932819   1.312   4.986   4.805  0.4638 -0.1474  0.2380
   86MOL   C35032820   1.551   5.035   4.751 -0.1050  0.1936 -1.0077
   86MOL   C35132821   1.673   4.998   4.701  0.7863  0.0461  0.3150
   86MOL   C35232822   1.955   4.814   4.705  0.1482  0.2857  0.1686
   86MOL   H35332823   1.815   4.716   4.564  1.4597  0.4399 -3.6749
   86MOL   H35432824   1.610   4.677   4.616 -0.0168  0.0135 -1.6311
   86MOL   H35532825   1.377   4.747   4.682 -2.2394  1.9748  2.6646
   86MOL   H35632826   1.288   5.091   4.787 -1.0820 -0.8638 -2.0888
   86MOL   H35732827   1.226   4.928   4.771 -0.7123  1.1522  0.9873
   86MOL   H35832828   1.308   4.971   4.913  1.8499  4.2272  0.9847
   86MOL   H35932829   1.535   5.136   4.787  0.7059  0.3996 -1.2336
   86MOL   H36032830   1.756   5.067   4.697  0.9959 -0.1827  0.7025
   86MOL   H36132831   1.941   4.914   4.746 -0.0281  0.4062 -0.1845
   86MOL   H36232832   2.049   4.790   4.654  1.1718  2.6340  0.8571
   86MOL   C36332833   1.951   4.708   4.818  0.5665 -0.1682  0.7633
   86MOL   C36432834   2.035   4.752   4.931 -0.1324  0.1284  0.8672
   86MOL   C36532835   2.174   4.757   4.910  0.8050 -0.1285  0.4717
   86MOL   C36632836   2.253   4.783   5.019 -0.2667 -0.1713  0.3710
   86MOL   C36732837   2.205   4.798   5.149 -0.3328 -0.0460  0.4043
   86MOL   C36832838   2.291   4.806   5.271 -0.2331  0.5687 -0.3569
   86MOL   C36932839   2.060   4.794   5.170 -0.0356 -0.3777 -0.2059
   86MOL   C37032840   1.973   4.774   5.056  0.2439 -0.0380 -0.1612
   86MOL   C37132841   1.981   4.568   4.772 -0.8635  0.2054  0.0379
   86MOL   H37232842   1.846   4.706   4.848  0.1963 -0.5519 -0.5275
   86MOL   H37332843   2.211   4.736   4.810  1.0200 -2.5976  1.0491
   86MOL   H37432844   2.360   4.784   5.011 -0.3189  1.4699 -0.2580
   86MOL   H37532845   2.398   4.800   5.247 -0.0935  1.6217 -0.0310
   86MOL   H37632846   2.270   4.889   5.338  2.0143  1.4132 -0.6394
   86MOL   H37732847   2.271   4.716   5.329  1.8046  0.6659  0.5703
   86MOL   H37832848   2.034   4.810   5.274 -2.0571 -3.0614 -0.2310
   86MOL   H37932849   1.866   4.769   5.060  0.2738  0.2635  1.1057
   86MOL   H38032850   1.948   4.496   4.846  3.3251 -2.5654 -0.6173
   86MOL   H38132851   2.083   4.555   4.735  0.2230  2.3883  2.1188
   86MOL   H38232852   1.910   4.549   4.691 -1.2379 -0.6728  0.5642
   87MOL     C132853   2.420   4.640   3.428 -0.4603  0.0971  0.1977
   87MOL     C232854   2.517   4.656   3.552 -0.1707 -0.4820 -0.9357
   87MOL     C332855   2.512   4.775   3.629 -0.2482 -0.4082 -0.0370
   87MOL     C432856   2.591   4.774   3.741 -0.3253 -0.3418  0.7638
   87MOL     C532857   2.673   4.669   3.783  0.7785 -0.1187 -0.2968
   87MOL     C632858   2.760   4.687   3.907  0.0741 -0.3457  0.0323
   87MOL     C732859   2.672   4.551   3.710 -0.3056  0.2045  0.1544
   87MOL     C832860   2.595   4.537   3.593 -0.0810  1.0136 -0.3191
   87MOL     C932861   2.479   4.684   3.294 -0.7615 -0.1772  0.5442
   87MOL    H1032862   2.392   4.535   3.421 -0.7738  0.3972 -4.3129
   87MOL    H1132863   2.440   4.855   3.613  1.0752  0.7104 -0.4821
   87MOL    H1232864   2.583   4.861   3.805 -0.9353  0.2841 -0.1618
   87MOL    H1332865   2.702   4.637   3.984 -1.1602  2.0801  0.7400
   87MOL    H1432866   2.858   4.640   3.910  0.3292  0.2598  1.3303
   87MOL    H1532867   2.759   4.793   3.932 -2.1551 -0.1945 -0.6066
   87MOL    H1632868   2.718   4.460   3.746 -0.1983 -0.8908 -2.6333
   87MOL    H1732869   2.586   4.442   3.543  1.0556  0.6262  0.1779
   87MOL    H1832870   2.583   4.654   3.278 -0.9883  0.1685 -1.7373
   87MOL    H1932871   2.489   4.793   3.303  0.0108 -0.2062  0.1003
   87MOL    H2032872   2.328   4.693   3.455  0.9967  1.9423  1.6735
   87MOL    C2132873   2.385   4.638   3.171  0.2545 -0.3776 -0.2698
   87MOL    C2232874   2.463   4.647   3.039 -0.7383  0.2993  0.0173
   87MOL    C2332875   2.460   4.539   2.950 -0.3906  0.1538  0.5610
   87MOL    C2432876   2.524   4.547   2.827 -0.3643  0.3478 -0.2840
   87MOL    C2532877   2.591   4.662   2.793 -0.8164  0.0142  0.1400
   87MOL    C2632878   2.661   4.673   2.656  0.3253 -0.0649 -0.3475
   87MOL    C2732879   2.601   4.773   2.883  0.3640 -0.4658  0.2184
   87MOL    C2832880   2.534   4.761   3.006 -0.3944 -0.3047 -0.0257
   87MOL    C2932881   2.252   4.714   3.154 -0.5911  0.5616  0.5385
   87MOL    H3032882   2.364   4.532   3.183 -0.2274 -0.3824 -1.1821
   87MOL    H3132883   2.409   4.446   2.969 -0.1553 -0.0935 -0.0099
   87MOL    H3232884   2.525   4.461   2.761 -0.0855 -0.4061  0.6981
   87MOL    H3332885   2.679   4.781   2.648 -2.3359  0.4446  0.1217
   87MOL    H3432886   2.756   4.621   2.667 -0.6243 -2.2336 -2.0279
   87MOL    H3532887   2.598   4.629   2.579 -1.6556  0.0591  1.1469
   87MOL    H3632888   2.652   4.865   2.863  1.5024 -0.9998  0.6311
   87MOL    H3732889   2.511   4.845   3.070 -0.2311  0.8138 -1.4055
   87MOL    H3832890   2.213   4.704   3.053  1.7006 -0.0551 -0.3190
   87MOL    H3932891   2.268   4.820   3.172  0.1015  0.4879  0.3853
   87MOL    C4032892   2.137   4.652   3.245 -0.3967 -0.4550  0.0018
   87MOL    C4132893   2.120   4.504   3.203 -0.4309  0.2199 -0.1008
   87MOL    C4232894   2.118   4.465   3.068 -0.7233  0.5672 -0.7884
   87MOL    C4332895   2.094   4.329   3.032 -0.1585  0.1718 -0.6313
   87MOL    C4432896   2.089   4.233   3.135 -0.0415  0.1137  0.5315
   87MOL    C4532897   2.070   4.092   3.091  0.4332  0.6304  0.2834
   87MOL    C4632898   2.094   4.273   3.270  0.1463  0.0510  0.0203
   87MOL    C4732899   2.114   4.405   3.307  0.3761 -0.6514  0.1392
   87MOL    C4832900   2.003   4.719   3.217 -0.6027  0.8014  0.0004
   87MOL    H4932901   2.162   4.663   3.351 -2.1709 -1.7705  0.5700
   87MOL    H5032902   2.121   4.529   2.982  1.2599 -0.6987 -1.6975
   87MOL    H5132903   2.101   4.293   2.930 -1.5286  0.2844 -0.7734
   87MOL    H5232904   2.152   4.028   3.124 -1.6529 -2.3582 -0.0930
   87MOL    H5332905   1.978   4.051   3.133 -0.9876  2.1378 -1.2750
   87MOL    H5432906   2.064   4.090   2.982  3.9578 -1.0721  0.0474
   87MOL    H5532907   2.093   4.207   3.355  0.5908  1.0119  0.7952
   87MOL    H5632908   2.127   4.438   3.409  2.4773  0.1600 -0.3595
   87MOL    H5732909   1.938   4.663   3.284 -1.2066  0.6240 -0.7269
   87MOL    H5832910   1.975   4.691   3.116  0.7967  0.3771 -0.2731
   87MOL    C5932911   1.983   4.870   3.246  0.3442  0.4079  1.4523
   87MOL    C6032912   2.079   4.943   3.336  0.6880  0.4492 -0.4829
   87MOL    C6132913   2.184   5.025   3.285  0.5448  0.8598 -0.1515
   87MOL    C6232914   2.278   5.090   3.372 -0.1694  0.0592  0.2725
   87MOL    C6332915   2.272   5.075   3.510  0.2372 -0.4010  0.7548
   87MOL    C6432916   2.382   5.142   3.594  0.4342 -0.7957 -0.3112
   87MOL    C6532917   2.170   4.990   3.560 -0.3632  0.2720  0.3076
   87MOL    C6632918   2.074   4.925   3.478 -0.4229  0.3517  0.5804
   87MOL    C6732919   1.832   4.891   3.275 -0.0308  0.6155  0.2080
   87MOL    H6832920   1.995   4.912   3.146  0.7756 -1.6889  0.5833
   87MOL    H6932921   2.198   5.039   3.179  3.4199 -0.4174  0.0135
   87MOL    H7032922   2.365   5.143   3.336 -0.2589  1.0598  1.4997
   87MOL    H7132923   2.402   5.245   3.563 -0.7762 -0.1612  0.9732
   87MOL    H7232924   2.350   5.147   3.698 -2.8661 -1.3849 -1.2328
   87MOL    H7332925   2.472   5.080   3.602 -0.2350 -1.8782 -0.9360
   87MOL    H7432926   2.178   4.961   3.664 -0.7953 -0.6231  0.0994
   87MOL    H7532927   1.996   4.865   3.523  1.9168 -2.0934  1.5331
   87MOL    H7632928   1.818   4.996   3.304 -1.8931 -0.4099  3.3231
   87MOL    H7732929   1.807   4.832   3.364  1.2711  0.5840  0.5599
   87MOL    C7832930   1.730   4.867   3.166 -0.9856 -0.0921  0.0321
   87MOL    C7932931   1.754   4.953   3.044 -0.4766  0.6711  0.0560
   87MOL    C8032932   1.714   4.902   2.924  0.2840  0.3942 -0.3710
   87MOL    C8132933   1.730   4.960   2.804 -0.3224  0.7445 -0.0450
   87MOL    C8232934   1.792   5.091   2.805 -0.1966  0.2737  0.1056
   87MOL    C8332935   1.802   5.167   2.677 -0.6703 -0.5487 -0.4954
   87MOL    C8432936   1.842   5.150   2.924 -0.3087 -0.0220 -0.5958
   87MOL    C8532937   1.818   5.078   3.042  0.1701 -0.5201 -0.8089
   87MOL    C8632938   1.583   4.876   3.208 -0.7833 -0.2046 -0.4351
   87MOL    H8732939   1.737   4.761   3.141 -0.8071 -0.1102  0.1575
   87MOL    H8832940   1.680   4.799   2.916 -0.6420  0.5660  1.1171
   87MOL    H8932941   1.692   4.910   2.716  1.2890  1.3217 -1.0909
   87MOL    H9032942   1.709   5.217   2.650 -0.3968  0.3227  0.1577
   87MOL    H9132943   1.880   5.243   2.677  0.9282 -2.1658  0.0052
   87MOL    H9232944   1.837   5.099   2.599 -0.6522 -0.6632 -0.3879
   87MOL    H9332945   1.885   5.249   2.920 -0.0802 -0.0462  0.8512
   87MOL    H9432946   1.842   5.115   3.141 -1.0930 -3.7039  0.7491
   87MOL    H9532947   1.534   4.866   3.111 -0.1202 -1.1482 -0.6871
   87MOL    H9632948   1.574   4.975   3.252 -2.2173 -0.5093  0.0012
   87MOL    C9732949   1.533   4.771   3.318  0.2620 -0.6098 -0.4761
   87MOL    C9832950   1.549   4.629   3.259  0.6465  0.1591 -0.8238
   87MOL    C9932951   1.631   4.539   3.324 -0.0919  0.6126 -0.4330
   87MOL   C10032952   1.645   4.412   3.271 -0.3571  0.0108 -0.6595
   87MOL   C10132953   1.567   4.363   3.163  0.1317 -0.6912  0.2053
   87MOL   C10232954   1.589   4.219   3.119 -0.4427  0.1881 -0.1707
   87MOL   C10332955   1.491   4.459   3.097  1.0191  0.7574  0.7006
   87MOL   C10432956   1.475   4.591   3.142  1.0752 -0.1227 -0.6480
   87MOL   C10532957   1.385   4.793   3.354  0.0146  0.1452 -0.0494
   87MOL   H10632958   1.601   4.787   3.401  0.5406 -1.5658 -0.5116
   87MOL   H10732959   1.683   4.569   3.413 -0.1732  0.6952 -0.4130
   87MOL   H10832960   1.729   4.357   3.311 -0.6922 -0.6325 -0.8381
   87MOL   H10932961   1.691   4.183   3.128  0.1030  2.0032  1.0101
   87MOL   H11032962   1.523   4.164   3.186 -1.9156 -0.0429 -1.7703
   87MOL   H11132963   1.550   4.199   3.019 -0.0630  0.4264 -0.3666
   87MOL   H11232964   1.432   4.436   3.010 -0.1384 -0.0968  1.7032
   87MOL   H11332965   1.411   4.655   3.084 -0.2353  1.8083  2.7981
   87MOL   H11432966   1.318   4.712   3.325 -0.2591  0.6638 -0.8628
   87MOL   H11532967   1.356   4.887   3.308 -1.1853 -0.0117  0.3537
   87MOL   C11632968   1.378   4.829   3.506 -0.7815  0.1999 -0.4287
   87MOL   C11732969   1.442   4.722   3.598 -0.5287  0.0066  0.0096
   87MOL   C11832970   1.404   4.589   3.581 -0.2932 -0.3097 -0.2172
   87MOL   C11932971   1.474   4.498   3.648 -0.1176  0.6224 -0.2282
   87MOL   C12032972   1.567   4.533   3.746 -0.0243  0.0641  0.1307
   87MOL   C12132973   1.629   4.423   3.830 -0.3856  0.2735  0.5366
   87MOL   C12232974   1.611   4.665   3.760 -0.1496  0.3833  0.2411
   87MOL   C12332975   1.539   4.762   3.692  0.3113  0.5469  0.6717
   87MOL   C12432976   1.230   4.846   3.542 -0.0971 -0.4997  0.1105
   87MOL   H12532977   1.428   4.923   3.527  0.8163 -1.0050  1.3339
   87MOL   H12632978   1.331   4.570   3.504  0.8674 -0.9852 -1.1536
   87MOL   H12732979   1.441   4.395   3.652  3.7497 -0.6546  1.5394
   87MOL   H12832980   1.637   4.332   3.771 -3.0480  2.2272 -3.0905
   87MOL   H12932981   1.726   4.456   3.867 -0.0429  0.3806 -0.4357
   87MOL   H13032982   1.567   4.411   3.919 -1.0143  0.6704  0.1589
   87MOL   H13132983   1.692   4.686   3.828  0.4728  0.8145 -0.6176
   87MOL   H13232984   1.565   4.866   3.703  0.4008  0.4157  1.7504
   87MOL   H13332985   1.216   4.864   3.649 -0.7794  0.2096 -0.0896
   87MOL   H13432986   1.173   4.756   3.519  0.8670 -0.6996 -1.5746
   87MOL   C13532987   1.159   4.957   3.456 -0.9153  0.9129  0.1257
   87MOL   C13632988   1.218   5.089   3.460 -1.0572 -0.0203 -0.7243
   87MOL   C13732989   1.274   5.152   3.344 -0.3163  0.4755  0.0652
   87MOL   C13832990   1.338   5.280   3.350 -0.1463 -0.0922  0.3692
   87MOL   C13932991   1.325   5.350   3.474 -0.4140  0.0401  0.9815
   87MOL   C14032992   1.383   5.493   3.488 -0.5138 -0.0651 -0.1434
   87MOL   C14132993   1.259   5.291   3.586  0.2245 -0.2108  0.7178
   87MOL   C14232994   1.214   5.162   3.583  0.1456 -0.2909 -0.2437
   87MOL   C14332995   1.012   4.959   3.494 -0.6612 -0.1467  0.2284
   87MOL   H14432996   1.164   4.920   3.354  0.5363  0.9651  0.1558
   87MOL   H14532997   1.290   5.092   3.256  0.7180 -0.1708  0.6730
   87MOL   H14632998   1.389   5.314   3.261 -1.7500 -0.9034 -0.8906
   87MOL   H14732999   1.326   5.571   3.439  1.6932  3.0300  2.0564
   87MOL   H14833000   1.392   5.518   3.593  1.6124 -0.4389 -0.2071
   87MOL   H14933001   1.480   5.502   3.438  0.4252 -0.7124  1.5267
   87MOL   H15033002   1.254   5.341   3.682  1.9028 -3.3675  2.5246
   87MOL   H15133003   1.171   5.121   3.673 -0.9336  4.0190  1.2972
   87MOL   H15233004   1.002   4.984   3.600 -1.9987  0.8114 -0.1045
   87MOL   H15333005   0.978   4.855   3.488  1.9983 -1.0946  1.0444
   87MOL   C15433006   0.924   5.031   3.388 -0.2397 -0.7748  0.0645
   87MOL   C15533007   0.853   5.149   3.449  0.0290  0.6623  0.9017
   87MOL   C15633008   0.740   5.131   3.536  0.4950 -0.2422 -0.3009
   87MOL   C15733009   0.684   5.243   3.597 -0.3314  0.9401  0.1860
   87MOL   C15833010   0.735   5.373   3.572 -0.8802  0.0710  0.4963
   87MOL   C15933011   0.668   5.487   3.643  0.3323  0.4088 -0.1782
   87MOL   C16033012   0.843   5.392   3.485 -0.0776  0.2016 -0.2907
   87MOL   C16133013   0.904   5.279   3.423 -0.0809 -0.0240  0.4055
   87MOL   C16233014   0.827   4.941   3.311 -0.8921 -0.4583  0.2450
   87MOL   H16333015   0.995   5.075   3.318  0.3594 -1.4411  0.2427
   87MOL   H16433016   0.695   5.034   3.552  1.8576 -1.1618 -1.8974
   87MOL   H16533017   0.600   5.228   3.663  0.3039 -0.2481  0.7492
   87MOL   H16633018   0.699   5.492   3.747 -2.4406 -0.5807  0.7407
   87MOL   H16733019   0.689   5.582   3.595 -0.8254  1.0209  0.5157
   87MOL   H16833020   0.559   5.486   3.651  0.4336 -0.7961  1.2948
   87MOL   H16933021   0.889   5.487   3.463 -0.7944  0.0782 -2.5464
   87MOL   H17033022   0.991   5.293   3.360 -0.6027  1.0049 -0.1068
   87MOL   H17133023   0.761   5.006   3.255 -2.9940 -2.2989  0.5022
   87MOL   H17233024   0.753   4.880   3.365 -0.8401 -0.6557  0.0944
   87MOL   C17333025   0.893   4.839   3.219 -0.9207 -0.0676  0.1559
   87MOL   C17433026   0.983   4.904   3.107  0.4481  0.1229 -0.1791
   87MOL   C17533027   1.115   4.858   3.094  0.2119 -0.2636  0.1441
   87MOL   C17633028   1.200   4.924   3.011 -0.4061 -0.2660 -0.3346
   87MOL   C17733029   1.168   5.039   2.939  0.9379  0.2874  0.4442
   87MOL   C17833030   1.275   5.093   2.845 -0.0641  0.1356 -0.3487
   87MOL   C17933031   1.031   5.076   2.940 -0.2977 -0.5568  0.1176
   87MOL   C18033032   0.937   5.013   3.026 -0.0371 -0.2268 -0.3972
   87MOL   C18133033   0.803   4.724   3.166  0.0422  0.4642  0.1378
   87MOL   H18233034   0.970   4.787   3.277  0.4964  0.1621 -1.4686
   87MOL   H18333035   1.159   4.771   3.140  0.0367 -0.4167  0.0242
   87MOL   H18433036   1.301   4.885   3.007  0.5201  1.7757  2.0433
   87MOL   H18533037   1.316   5.008   2.791 -1.0094 -1.1325  0.8858
   87MOL   H18633038   1.227   5.155   2.769  0.1969 -0.6623 -1.1742
   87MOL   H18733039   1.355   5.158   2.880 -0.8616  1.7847 -1.5005
   87MOL   H18833040   0.998   5.160   2.881 -1.2902 -1.3812 -0.5117
   87MOL   H18933041   0.835   5.045   3.035  0.5325  1.0176  2.2966
   87MOL   H19033042   0.836   4.687   3.069 -2.1512 -1.4498  0.0830
   87MOL   H19133043   0.711   4.765   3.125  1.2961  0.1672 -3.1505
   87MOL   C19233044   0.795   4.597   3.262  0.9174  0.3897  0.6716
   87MOL   C19333045   0.932   4.542   3.304 -0.1646  0.1961 -0.2524
   87MOL   C19433046   1.033   4.517   3.206 -0.0929 -0.5652 -1.0871
   87MOL   C19533047   1.153   4.451   3.244 -0.0724  0.5947 -0.2920
   87MOL   C19633048   1.166   4.405   3.377 -0.2384  0.0837 -0.1638
   87MOL   C19733049   1.292   4.327   3.410  0.4530 -0.1631  0.7277
   87MOL   C19833050   1.064   4.425   3.475 -0.5297 -0.1852 -0.2214
   87MOL   C19933051   0.946   4.503   3.445  0.5512 -0.6252  0.2985
   87MOL   C20033052   0.703   4.492   3.206 -1.0815  0.1245 -0.3403
   87MOL   H20133053   0.745   4.635   3.352 -0.1435 -0.3033  0.3743
   87MOL   H20233054   1.016   4.549   3.104  2.7555  2.0773 -0.8059
   87MOL   H20333055   1.233   4.438   3.174  0.7511  0.9641  0.5670
   87MOL   H20433056   1.308   4.259   3.327  1.9508  0.4996  0.4546
   87MOL   H20533057   1.381   4.389   3.417  0.3457 -0.0058  0.7272
   87MOL   H20633058   1.290   4.261   3.497  0.9154 -0.5475  0.4452
   87MOL   H20733059   1.076   4.401   3.580 -0.6821 -0.4293 -0.2603
   87MOL   H20833060   0.872   4.527   3.520  0.3671  1.5498 -0.5231
   87MOL   H20933061   0.720   4.393   3.248 -0.3648 -0.2337 -1.4722
   87MOL   H21033062   0.719   4.484   3.099 -0.2722  2.3991 -0.4177
   87MOL   C21133063   0.556   4.525   3.216  0.6492 -0.3142  0.2965
   87MOL   C21233064   0.502   4.477   3.352  0.0558 -0.0935 -0.4901
   87MOL   C21333065   0.472   4.342   3.376  0.1970 -0.6102 -0.3059
   87MOL   C21433066   0.423   4.292   3.503  0.7063 -0.0259  1.5082
   87MOL   C21533067   0.398   4.390   3.604  0.0221  0.5302  0.4903
   87MOL   C21633068   0.325   4.339   3.731 -0.1810  0.3623 -0.2821
   87MOL   C21733069   0.435   4.523   3.593  0.0706  0.2161  0.9720
   87MOL   C21833070   0.495   4.562   3.467 -0.0142 -0.0197 -0.3807
   87MOL   C21933071   0.473   4.462   3.103  0.3464 -0.5468 -0.3108
   87MOL   H22033072   0.539   4.633   3.217 -1.0208 -0.5596  0.7241
   87MOL   H22133073   0.501   4.267   3.304  1.0016  0.0302 -0.6555
   87MOL   H22233074   0.403   4.189   3.525 -1.7003 -0.2447 -1.3343
   87MOL   H22333075   0.399   4.331   3.809 -0.2823 -1.4687 -0.3560
   87MOL   H22433076   0.260   4.414   3.777 -0.1366  0.0703  0.2510
   87MOL   H22533077   0.272   4.244   3.727 -3.1822  1.9378  0.2035
   87MOL   H22633078   0.404   4.594   3.667  0.9605  1.5700  0.0792
   87MOL   H22733079   0.519   4.667   3.456 -0.8891  0.1814 -0.4151
   87MOL   H22833080   0.365   4.459   3.117  0.1811  1.0907 -1.0868
   87MOL   H22933081   0.495   4.357   3.085 -2.2244 -1.6390  2.4886
   87MOL   C23033082   0.483   4.538   2.970  0.1663 -0.6006  0.1065
   87MOL   C23133083   0.450   4.695   2.974 -0.2700 -0.1051 -0.3820
   87MOL   C23233084   0.524   4.801   2.917  0.6748 -0.5885 -0.1498
   87MOL   C23333085   0.486   4.934   2.939 -0.1684 -0.2157  0.1510
   87MOL   C23433086   0.369   4.963   3.009  1.0519 -0.1271  0.6748
   87MOL   C23533087   0.336   5.104   3.034 -0.0469  0.0341 -0.0358
   87MOL   C23633088   0.293   4.862   3.061 -0.1486  0.5017  0.7097
   87MOL   C23733089   0.332   4.728   3.043 -0.2653 -0.3162 -0.1093
   87MOL   C23833090   0.432   4.463   2.843 -0.4156  0.0294  1.3729
   87MOL   H23933091   0.589   4.552   2.951 -0.3889  0.3739 -2.5738
   87MOL   H24033092   0.613   4.777   2.859  1.1874  1.4384 -0.2445
   87MOL   H24133093   0.548   5.011   2.895  0.8503  0.0517  1.9860
   87MOL   H24233094   0.417   5.147   3.094 -0.2432 -1.1768  1.1096
   87MOL   H24333095   0.318   5.161   2.943 -1.1917 -1.2282 -0.6178
   87MOL   H24433096   0.242   5.124   3.085  0.2218 -1.2500  0.9681
   87MOL   H24533097   0.196   4.871   3.106 -0.9664  1.4346 -1.1747
   87MOL   H24633098   0.275   4.648   3.089 -1.8952  0.7753 -0.2026
   87MOL   H24733099   0.491   4.371   2.849 -0.1185  0.1241  0.0550
   87MOL   H24833100   0.458   4.524   2.756 -1.7416  0.9823  1.6356
   87MOL   C24933101   0.295   4.407   2.834 -0.1261  0.5944  0.4967
   87MOL   C25033102   0.229   4.350   2.962  0.3236  0.2903  0.2162
   87MOL   C25133103   0.127   4.426   3.033 -0.0007 -0.4548 -0.8793
   87MOL   C25233104   0.069   4.377   3.151 -0.3112  0.7236  0.1787
   87MOL   C25333105   0.095   4.243   3.193 -0.1883 -0.2699  0.0740
   87MOL   C25433106   0.012   4.185   3.302 -0.4706 -0.5531  0.4060
   87MOL   C25533107   0.187   4.162   3.120  0.4517  0.3505  0.5591
   87MOL   C25633108   0.258   4.213   3.009 -0.0456 -0.3083  0.5083
   87MOL   C25733109   0.289   4.311   2.713  0.5413  0.0360 -0.1193
   87MOL   H25833110   0.227   4.487   2.808 -0.4088  0.3676  0.5287
   87MOL   H25933111   0.097   4.522   2.993 -2.4957 -0.9961 -0.3859
   87MOL   H26033112   8.076   4.438   3.203  1.0708  1.9336  0.7537
   87MOL   H26133113   0.074   4.125   3.368  0.2224 -0.1440  0.1276
   87MOL   H26233114   8.063   4.277   3.354  1.1704  0.4449 -0.4325
   87MOL   H26333115   8.010   4.127   3.259  0.0055 -1.2389  0.4213
   87MOL   H26433116   0.198   4.057   3.145 -1.6921  0.3420  1.6231
   87MOL   H26533117   0.325   4.151   2.951 -0.3482 -0.9451  0.8401
   87MOL   H26633118   0.359   4.227   2.716  1.5677  0.9342  1.6017
   87MOL   H26733119   0.318   4.353   2.617  3.8794 -0.0371  0.8040
   87MOL   C26833120   0.153   4.239   2.683  0.7948  0.1558 -0.0780
   87MOL   C26933121   0.163   4.141   2.567  0.0995 -0.2385  0.0337
   87MOL   C27033122   0.179   4.181   2.438  0.2133 -0.0693 -0.3300
   87MOL   C27133123   0.166   4.089   2.337  0.5089 -0.1540 -0.4206
   87MOL   C27233124   0.147   3.952   2.359  1.0524  0.5897  0.2429
   87MOL   C27333125   0.130   3.859   2.241 -0.0366 -0.1867  0.5136
   87MOL   C27433126   0.130   3.911   2.495 -0.5276 -0.2519  0.1851
   87MOL   C27533127   0.127   4.012   2.597 -0.2675 -0.8895  0.6913
   87MOL   C27633128   0.033   4.339   2.655 -0.3769 -0.3386  0.6308
   87MOL   H27733129   0.125   4.184   2.773  1.1317  0.9049  0.4900
   87MOL   H27833130   0.192   4.286   2.415  0.4530  0.2705  1.2532
   87MOL   H27933131   0.179   4.135   2.240 -0.7322  1.2997  0.0777
   87MOL   H28033132   0.100   3.919   2.155  1.6204 -0.5456 -0.3371
   87MOL   H28133133   0.230   3.818   2.228  0.6509  0.9276  2.1926
   87MOL   H28233134   0.064   3.772   2.245 -1.1689  0.6515  0.0702
   87MOL   H28333135   0.104   3.811   2.525 -1.1159  0.4974  2.2313
   87MOL   H28433136   0.107   3.981   2.699 -1.6938  0.0088  0.6956
   87MOL   H28533137   0.061   4.403   2.571 -0.8168  0.5243  1.1449
   87MOL   H28633138   0.019   4.415   2.731  1.5872 -0.2615  0.9437
   87MOL   C28733139   7.981   4.283   2.606  0.4596  0.7276  0.0260
   87MOL   C28833140   7.890   4.384   2.544  0.0041 -0.0343 -0.0023
   87MOL   C28933141   7.789   4.451   2.611 -0.5796  0.7585 -0.1520
   87MOL   C29033142   7.723   4.555   2.545 -0.0106  0.1916  0.4745
   87MOL   C29133143   7.761   4.593   2.417  0.2867 -0.9019 -0.3988
   87MOL   C29233144   7.688   4.713   2.350 -0.5005  0.2271 -0.1744
   87MOL   C29333145   7.857   4.517   2.350 -0.6003  0.2028  0.5014
   87MOL   C29433146   7.922   4.414   2.414  0.1558  0.9329 -0.8766
   87MOL   C29533147   7.916   4.200   2.720 -0.2532 -0.1175  0.3322
   87MOL   H29633148   8.000   4.209   2.528  0.1730 -0.2326  0.8539
   87MOL   H29733149   7.758   4.412   2.706 -0.0388  0.9326  0.1001
   87MOL   H29833150   7.644   4.609   2.595 -0.2072  1.3556 -1.0389
   87MOL   H29933151   7.588   4.689   2.315  0.6719 -0.3771 -3.2734
   87MOL   H30033152   7.687   4.798   2.419 -0.6133 -0.1480  0.2929
   87MOL   H30133153   7.746   4.737   2.261 -0.0579  0.5309  0.1892
   87MOL   H30233154   7.886   4.537   2.248 -2.4374  3.1781  0.4706
   87MOL   H30333155   7.993   4.352   2.362  0.0754 -0.7346  0.9415
   87MOL   H30433156   7.903   4.269   2.803  0.1567 -1.0676  1.1926
   87MOL   H30533157   7.988   4.127   2.757 -0.0077  0.7879  1.6603
   87MOL   C30633158   7.784   4.135   2.688  0.5679  0.0680 -0.0036
   87MOL   C30733159   7.688   4.150   2.803  0.6731 -0.8693 -0.1501
   87MOL   C30833160   7.721   4.098   2.933 -0.0452 -0.2790 -0.2110
   87MOL   C30933161   7.619   4.110   3.032 -0.2916 -0.0519 -0.2939
   87MOL   C31033162   7.490   4.170   3.002 -0.0636 -0.0910 -0.8806
   87MOL   C31133163   7.386   4.182   3.113  0.0633  0.5906  0.2399
   87MOL   C31233164   7.468   4.224   2.880 -0.2303  0.3643  0.2677
   87MOL   C31333165   7.565   4.218   2.779 -0.6405 -0.0573  0.0573
   87MOL   C31433166   7.802   3.994   2.638 -0.1413 -0.0102 -0.2375
   87MOL   H31533167   7.734   4.194   2.611 -0.1690 -0.0145  0.4085
   87MOL   H31633168   7.814   4.052   2.965  0.2564  2.2153  2.8541
   87MOL   H31733169   7.643   4.069   3.130  1.4037 -0.2088 -0.7528
   87MOL   H31833170   7.394   4.096   3.180  1.2460 -0.8364 -1.6672
   87MOL   H31933171   7.387   4.277   3.166 -3.6563  0.0005  1.5553
   87MOL   H32033172   7.286   4.191   3.071  0.5638  0.3739 -1.0319
   87MOL   H32133173   7.371   4.258   2.847 -0.0713 -0.9877 -1.6948
   87MOL   H32233174   7.538   4.246   2.678  3.1261 -0.2274 -1.0614
   87MOL   H32333175   7.878   3.942   2.696 -2.0429 -0.7861  1.6357
   87MOL   H32433176   7.848   3.998   2.539 -2.1699  0.6279 -1.1694
   87MOL   C32533177   7.678   3.905   2.642 -0.4806  0.1374  0.1889
   87MOL   C32633178   7.713   3.758   2.616 -0.2704  0.0065  0.5311
   87MOL   C32733179   7.670   3.655   2.705  0.3850  0.4936  0.3527
   87MOL   C32833180   7.707   3.523   2.681 -0.2454 -0.4376 -0.7627
   87MOL   C32933181   7.799   3.486   2.579 -0.3885 -0.1458 -0.6080
   87MOL   C33033182   7.826   3.340   2.552 -0.5872  0.2356 -0.3119
   87MOL   C33133183   7.845   3.585   2.495  0.0079 -0.3187 -0.1254
   87MOL   C33233184   7.804   3.718   2.512 -0.2249 -0.3053 -0.3311
   87MOL   C33333185   7.569   3.947   2.541  0.3373  0.1260  0.9479
   87MOL   H33433186   7.643   3.907   2.745 -0.7444 -0.5128  0.1086
   87MOL   H33533187   7.606   3.686   2.786  0.1153 -0.8242  0.6525
   87MOL   H33633188   7.668   3.454   2.754  2.5614 -1.6108 -0.2996
   87MOL   H33733189   7.893   3.305   2.630 -2.3391  0.3626  1.2805
   87MOL   H33833190   7.741   3.272   2.566  0.3324 -0.7703  0.4525
   87MOL   H33933191   7.875   3.307   2.460 -1.3736 -1.5947 -0.0920
   87MOL   H34033192   7.917   3.570   2.416 -1.3318  0.7949 -1.5863
   87MOL   H34133193   7.841   3.796   2.447  2.4174  1.8378  3.5396
   87MOL   H34233194   7.607   3.946   2.439 -1.4492  3.2337  0.1855
   87MOL   H34333195   7.552   4.054   2.550  0.2386  0.3952 -1.7946
   87MOL   C34433196   7.428   3.887   2.554 -0.2242 -0.1975 -0.6119
   87MOL   C34533197   7.341   3.924   2.433 -0.2154 -0.1278  0.0017
   87MOL   C34633198   7.324   4.055   2.393  0.3597 -0.5822  0.1272
   87MOL   C34733199   7.244   4.077   2.277 -0.4815  0.1691  0.4513
   87MOL   C34833200   7.175   3.973   2.213 -0.7311  0.0567 -0.0866
   87MOL   C34933201   7.091   3.996   2.081 -0.5040  0.4845 -0.4882
   87MOL   C35033202   7.196   3.842   2.253 -0.3660 -0.3052 -0.1794
   87MOL   C35133203   7.269   3.817   2.374 -0.3351 -0.7700 -0.2722
   87MOL   C35233204   7.356   3.921   2.690  0.5126  1.2438  0.4615
   87MOL   H35333205   7.441   3.779   2.546 -2.2135 -0.4042 -1.2586
   87MOL   H35433206   7.359   4.140   2.450 -1.0633  0.0293  0.1167
   87MOL   H35533207   7.241   4.183   2.255  0.2706  0.0892 -0.0866
   87MOL   H35633208   7.155   3.978   1.995 -1.0750 -1.3495 -0.5426
   87MOL   H35733209   7.002   3.933   2.081  1.1676 -1.9151  0.0063
   87MOL   H35833210   7.062   4.101   2.086  2.6837  1.3324  1.4199
   87MOL   H35933211   7.141   3.764   2.203  0.6600 -1.1232 -0.0528
   87MOL   H36033212   7.268   3.724   2.427 -0.0916 -0.4554  0.2891
   87MOL   H36133213   7.332   4.027   2.681 -1.1972  0.8828  0.5763
   87MOL   H36233214   7.424   3.900   2.772  0.2005  0.3816  0.5042
   87MOL   C36333215   7.229   3.846   2.728  0.1397  0.3721  0.1301
   87MOL   C36433216   7.146   3.928   2.826 -0.2148 -0.8387  0.0041
   87MOL   C36533217   7.187   3.932   2.959 -0.2342  0.0271 -0.7032
   87MOL   C36633218   7.114   4.003   3.052  0.4314 -0.1812 -0.8340
   87MOL   C36733219   6.994   4.074   3.021  0.1744 -0.2682  0.5204
   87MOL   C36833220   6.912   4.154   3.120 -0.3230 -0.1979 -0.2521
   87MOL   C36933221   6.947   4.068   2.889  0.2611  0.6885  0.4125
   87MOL   C37033222   7.025   3.989   2.792  0.6531 -0.0203  0.5227
   87MOL   C37133223   7.234   3.706   2.781  0.1190  0.6522  0.1670
   87MOL   H37233224   7.175   3.841   2.633 -0.3202  1.5801  0.3200
   87MOL   H37333225   7.273   3.871   2.984 -0.0495  0.9694  1.0152
   87MOL   H37433226   7.146   4.014   3.155  0.8053 -0.7413 -0.8890
   87MOL   H37533227   6.804   4.159   3.104 -0.1884  0.3789 -0.9887
   87MOL   H37633228   6.922   4.114   3.221 -0.3630 -0.5322 -0.3797
   87MOL   H37733229   6.950   4.256   3.116 -1.4601  0.2234 -0.3902
   87MOL   H37833230   6.850   4.107   2.863  0.3762  0.2145 -0.8128
   87MOL   H37933231   6.989   3.979   2.691  2.6653 -0.2804 -0.2045
   87MOL   H38033232   7.312   3.639   2.744 -0.4010  0.3531 -0.3912
   87MOL   H38133233   7.148   3.646   2.751  0.9588  0.1016 -1.1721
   87MOL   H38233234   7.249   3.689   2.888 -1.6388 -3.1035 -0.1167
   88MOL     C133235   6.119   2.389   5.345  0.3820  0.6163  0.6129
   88MOL     C233236   6.212   2.271   5.376  0.4850 -0.3967  0.9586
   88MOL     C333237   6.345   2.308   5.412 -0.1717  0.8523  0.2435
   88MOL     C433238   6.431   2.204   5.456  0.5621 -0.5865 -0.2416
   88MOL     C533239   6.384   2.070   5.471  0.0228 -0.1172  0.1579
   88MOL     C633240   6.465   1.967   5.542 -0.4109 -0.1451  0.4230
   88MOL     C733241   6.256   2.037   5.430 -0.4478 -0.2516  0.6357
   88MOL     C833242   6.166   2.137   5.376 -0.4284  0.5841 -0.6408
   88MOL     C933243   5.977   2.386   5.408  0.3064  0.0936  0.0978
   88MOL    H1033244   6.159   2.481   5.387  1.4052  0.5310 -0.1593
   88MOL    H1133245   6.391   2.405   5.418  0.6362  0.4984 -0.1523
   88MOL    H1233246   6.533   2.230   5.480 -0.3444  2.5163  0.4648
   88MOL    H1333247   6.539   2.017   5.605 -0.6783 -0.3512  0.9017
   88MOL    H1433248   6.395   1.914   5.606 -1.4966 -0.2389 -0.8242
   88MOL    H1533249   6.495   1.894   5.467 -0.3518  0.7649 -0.4594
   88MOL    H1633250   6.233   1.931   5.427  2.3054 -0.8943  0.9634
   88MOL    H1733251   6.071   2.114   5.330 -0.0838 -0.6017 -0.7985
   88MOL    H1833252   5.972   2.348   5.510  2.3844  0.0503  0.1931
   88MOL    H1933253   5.908   2.324   5.350  1.4658 -1.9737  0.9071
   88MOL    H2033254   6.116   2.416   5.240 -2.1867 -0.3436  0.4203
   88MOL    C2133255   5.911   2.529   5.408 -0.0765  0.6820  0.7452
   88MOL    C2233256   5.972   2.618   5.513  0.4528 -0.0399  0.2453
   88MOL    C2333257   5.980   2.583   5.653  0.5731 -0.1477  0.3977
   88MOL    C2433258   6.029   2.678   5.744  0.8929  0.2796 -0.8301
   88MOL    C2533259   6.076   2.804   5.699 -0.1097 -0.3688  0.0065
   88MOL    C2633260   6.114   2.909   5.798  0.4298 -0.3322 -0.2753
   88MOL    C2733261   6.092   2.825   5.566 -0.3368  0.2604  0.3422
   88MOL    C2833262   6.039   2.733   5.470 -0.3760 -0.4176 -0.3184
   88MOL    C2933263   5.760   2.506   5.411 -0.3144 -0.7883 -0.5388
   88MOL    H3033264   5.928   2.563   5.305 -0.1255 -1.1568  0.1103
   88MOL    H3133265   5.965   2.482   5.687 -1.1871 -0.0137  0.0675
   88MOL    H3233266   6.042   2.659   5.849 -2.2642  0.0819 -0.4241
   88MOL    H3333267   6.162   2.993   5.748  2.0863 -1.1750 -0.1401
   88MOL    H3433268   6.037   2.936   5.870  1.3164 -1.6842  1.2146
   88MOL    H3533269   6.196   2.880   5.864  1.6270 -1.1191 -2.0734
   88MOL    H3633270   6.143   2.910   5.522  2.7084 -1.3796  0.5698
   88MOL    H3733271   6.045   2.752   5.364 -1.5745 -0.4148 -0.3887
   88MOL    H3833272   5.729   2.444   5.496 -3.4904  1.3824 -0.0225
   88MOL    H3933273   5.731   2.458   5.318 -0.3273 -1.3745 -0.2351
   88MOL    C4033274   5.670   2.636   5.417  0.2061 -0.7503 -0.2507
   88MOL    C4133275   5.520   2.608   5.404  0.1665  0.7099 -0.0912
   88MOL    C4233276   5.474   2.544   5.286 -0.0022 -0.4472 -0.4501
   88MOL    C4333277   5.344   2.502   5.284  0.3090  0.2716 -1.0627
   88MOL    C4433278   5.252   2.540   5.384 -0.1249 -0.2501  0.2317
   88MOL    C4533279   5.104   2.496   5.374  0.4028 -0.6063  0.9832
   88MOL    C4633280   5.296   2.608   5.498  0.3170  0.5284 -1.1069
   88MOL    C4733281   5.433   2.635   5.510  0.5734 -0.2209  0.1360
   88MOL    C4833282   5.696   2.744   5.312 -0.1146  0.2360 -0.3023
   88MOL    H4933283   5.700   2.668   5.517  0.2112 -2.9278  0.4900
   88MOL    H5033284   5.544   2.509   5.212 -1.2321 -1.0795 -1.3211
   88MOL    H5133285   5.317   2.442   5.199 -0.4878 -1.8679  0.6426
   88MOL    H5233286   5.092   2.390   5.397 -2.4393 -0.9075 -1.5182
   88MOL    H5333287   5.036   2.557   5.434 -2.2350 -1.5393 -0.9197
   88MOL    H5433288   5.074   2.514   5.271  0.5631 -3.0590  0.4961
   88MOL    H5533289   5.244   2.623   5.592  0.0418 -0.6528 -1.0652
   88MOL    H5633290   5.478   2.680   5.598  0.8733 -0.6991  0.2273
   88MOL    H5733291   5.659   2.720   5.212  1.4566 -0.6790 -0.6821
   88MOL    H5833292   5.803   2.755   5.295 -0.5656  0.4047 -3.2797
   88MOL    C5933293   5.655   2.890   5.344  0.0813 -0.0600 -0.6796
   88MOL    C6033294   5.709   2.991   5.247  0.3457  0.2054 -0.3554
   88MOL    C6133295   5.849   3.006   5.230 -0.5940  0.3180  0.4742
   88MOL    C6233296   5.904   3.090   5.131  0.4605 -0.3943 -0.0890
   88MOL    C6333297   5.819   3.172   5.055  0.1157  0.0939  0.7256
   88MOL    C6433298   5.875   3.275   4.959 -0.5129  0.0036 -0.3572
   88MOL    C6533299   5.681   3.173   5.087 -1.4399  0.1455  0.2521
   88MOL    C6633300   5.625   3.078   5.176  0.3847 -0.4304  0.4541
   88MOL    C6733301   5.688   2.938   5.492 -0.0485  0.2320 -0.5476
   88MOL    H6833302   5.548   2.885   5.322  0.3569 -1.1086 -1.7696
   88MOL    H6933303   5.913   2.940   5.287 -0.5100 -0.5723 -0.6151
   88MOL    H7033304   6.010   3.094   5.113  0.7078 -0.3216  1.3150
   88MOL    H7133305   5.963   3.245   4.902 -1.3691  0.2619 -1.8291
   88MOL    H7233306   5.810   3.301   4.876 -2.1313 -1.9801  0.2609
   88MOL    H7333307   5.895   3.370   5.009  1.4006  0.5737 -2.1619
   88MOL    H7433308   5.623   3.241   5.027  1.5486  1.3334 -1.4037
   88MOL    H7533309   5.519   3.078   5.195  0.7188 -0.6810  2.4403
   88MOL    H7633310   5.792   2.919   5.516 -0.3954  0.7813  1.4553
   88MOL    H7733311   5.637   2.882   5.571  2.3435 -1.4248 -0.1327
   88MOL    C7833312   5.660   3.082   5.525  0.1495 -0.5599  0.4940
   88MOL    C7933313   5.735   3.116   5.656  0.0222 -0.1056  0.2434
   88MOL    C8033314   5.840   3.212   5.659  0.5096 -0.2471  0.8996
   88MOL    C8133315   5.901   3.247   5.780 -0.1245  0.5314 -0.3879
   88MOL    C8233316   5.874   3.177   5.900 -0.2942 -0.1977  0.2416
   88MOL    C8333317   5.942   3.204   6.031 -0.6662  0.0805  0.1079
   88MOL    C8433318   5.775   3.077   5.900  0.5462  0.4505  0.5254
   88MOL    C8533319   5.703   3.053   5.780  0.2137  0.3705  0.0329
   88MOL    C8633320   5.504   3.112   5.528  0.2923  0.1985  0.2050
   88MOL    H8733321   5.706   3.141   5.446 -1.0775 -2.0837 -1.4206
   88MOL    H8833322   5.861   3.272   5.571 -0.4552 -0.6246  0.4097
   88MOL    H8933323   5.969   3.331   5.775  1.8403 -0.9727  0.4309
   88MOL    H9033324   6.044   3.164   6.029  1.2072  4.4573  1.8408
   88MOL    H9133325   5.962   3.311   6.036  3.1265 -0.5173 -0.4012
   88MOL    H9233326   5.880   3.166   6.112  0.3858  1.9987  1.8643
   88MOL    H9333327   5.752   3.034   5.997  1.4341 -0.9778  0.1194
   88MOL    H9433328   5.620   2.984   5.771  1.1666 -0.6158 -1.4734
   88MOL    H9533329   5.462   3.063   5.615  1.1767 -2.1237 -0.6382
   88MOL    H9633330   5.464   3.065   5.438  1.2632 -0.9938  0.3858
   88MOL    C9733331   5.468   3.269   5.530  0.4147  0.1742  0.4563
   88MOL    C9833332   5.407   3.309   5.661  0.0349 -0.3637 -0.2863
   88MOL    C9933333   5.489   3.350   5.761  0.0387  1.1722  0.7344
   88MOL   C10033334   5.443   3.384   5.884  0.6065 -0.1953  0.1024
   88MOL   C10133335   5.302   3.378   5.907 -0.2432 -0.1016 -0.8530
   88MOL   C10233336   5.247   3.432   6.031 -0.1750  0.0572 -0.0138
   88MOL   C10333337   5.222   3.325   5.809  0.5319  0.2395  0.2104
   88MOL   C10433338   5.271   3.293   5.683 -0.1812 -0.6462 -0.4607
   88MOL   C10533339   5.388   3.289   5.403 -0.8708 -0.8573  0.0840
   88MOL   H10633340   5.561   3.321   5.509  1.0633 -1.8494 -1.9626
   88MOL   H10733341   5.593   3.349   5.733 -0.0652 -0.6423  0.3227
   88MOL   H10833342   5.506   3.415   5.966 -1.8685  2.6503  1.0293
   88MOL   H10933343   5.225   3.539   6.029 -0.1246  0.0877  0.7676
   88MOL   H11033344   5.157   3.376   6.056 -0.0366 -0.8625 -1.5835
   88MOL   H11133345   5.315   3.427   6.116 -0.9368  0.2951  0.6176
   88MOL   H11233346   5.115   3.324   5.822  0.6072  0.7145  0.8579
   88MOL   H11333347   5.206   3.260   5.603  0.6080 -0.9759 -0.9752
   88MOL   H11433348   5.297   3.229   5.397 -1.7307  0.2929  1.2967
   88MOL   H11533349   5.464   3.258   5.332  0.3083 -1.0872  1.4428
   88MOL   C11633350   5.337   3.430   5.376  0.3575 -0.6917  0.6865
   88MOL   C11733351   5.263   3.426   5.245  0.1671 -0.1769 -0.7723
   88MOL   C11833352   5.326   3.383   5.122  0.0200  0.2141  0.0674
   88MOL   C11933353   5.254   3.382   4.996  0.1545  0.5040  0.0594
   88MOL   C12033354   5.118   3.420   5.003  0.5300 -0.4699  0.0395
   88MOL   C12133355   5.029   3.394   4.883 -0.0768 -0.4690 -0.4032
   88MOL   C12233356   5.053   3.451   5.120  0.6739  0.7157 -0.3013
   88MOL   C12333357   5.126   3.460   5.239  0.1635  0.0554  0.4138
   88MOL   C12433358   5.441   3.552   5.373  0.1489  0.4681  0.6969
   88MOL   H12533359   5.271   3.462   5.457  0.9938  0.5599  0.7228
   88MOL   H12633360   5.426   3.342   5.123 -0.1406 -0.2638 -1.6890
   88MOL   H12733361   5.291   3.347   4.901  1.0636  5.1045 -1.4110
   88MOL   H12833362   5.002   3.289   4.870  1.9586 -1.2970  1.7230
   88MOL   H12933363   4.932   3.443   4.891  0.8908  1.3316  0.5391
   88MOL   H13033364   5.075   3.436   4.794  0.9160  0.7565  0.6789
   88MOL   H13133365   4.945   3.456   5.124  0.6582 -0.0612  0.4965
   88MOL   H13233366   5.076   3.479   5.332 -1.2372 -0.4719 -0.2213
   88MOL   H13333367   5.419   3.610   5.283  0.1787 -0.8898 -0.2016
   88MOL   H13433368   5.536   3.504   5.346 -1.7430 -2.2049 -1.4148
   88MOL   C13533369   5.453   3.629   5.513  0.3660  0.7854 -0.8017
   88MOL   C13633370   5.332   3.706   5.563  0.5504  0.1554  0.6242
   88MOL   C13733371   5.275   3.660   5.681  0.2030 -0.3749  0.5282
   88MOL   C13833372   5.162   3.726   5.727  0.4472  0.1826 -0.3133
   88MOL   C13933373   5.113   3.836   5.651 -0.3425 -0.3703  0.5395
   88MOL   C14033374   4.996   3.923   5.701  0.4665 -0.1516  0.1010
   88MOL   C14133375   5.165   3.872   5.525  0.1207  0.0414 -0.4411
   88MOL   C14233376   5.279   3.811   5.482 -0.0841  0.8315  0.0266
   88MOL   C14333377   5.569   3.736   5.500 -0.6238 -0.3901  0.2021
   88MOL   H14433378   5.487   3.565   5.594  0.5951 -0.2485 -1.7149
   88MOL   H14533379   5.320   3.586   5.746 -1.6467 -1.6332  0.4037
   88MOL   H14633380   5.119   3.700   5.823 -1.5830  2.9936 -0.4033
   88MOL   H14733381   4.989   4.006   5.631 -0.5809 -0.7820 -0.5470
   88MOL   H14833382   4.900   3.875   5.686  1.0435 -1.0312 -0.8810
   88MOL   H14933383   5.014   3.962   5.801  2.0070 -0.1130 -0.1745
   88MOL   H15033384   5.125   3.964   5.483 -0.7435 -0.8414 -1.5784
   88MOL   H15133385   5.333   3.824   5.389 -0.4770 -2.4253 -0.7321
   88MOL   H15233386   5.540   3.826   5.554  0.9027 -0.7132  1.6126
   88MOL   H15333387   5.574   3.773   5.398 -3.3159  3.0175  1.2045
   88MOL   C15433388   5.709   3.690   5.551 -0.1283 -0.7279  0.3643
   88MOL   C15533389   5.701   3.653   5.701  0.4465  0.7329 -0.6063
   88MOL   C15633390   5.604   3.705   5.792 -0.0544 -0.6684  0.1476
   88MOL   C15733391   5.613   3.675   5.929  0.8024  0.9323  0.3955
   88MOL   C15833392   5.724   3.599   5.982 -0.3128  0.8041 -0.3740
   88MOL   C15933393   5.731   3.570   6.127 -0.2863  0.0499  0.5641
   88MOL   C16033394   5.814   3.538   5.888  0.2496 -0.1305  0.5117
   88MOL   C16133395   5.803   3.567   5.750  0.2665 -0.1746  0.2372
   88MOL   C16233396   5.828   3.796   5.527 -0.1133 -0.0625 -0.3016
   88MOL   H16333397   5.725   3.602   5.488  0.9120  0.0445 -0.4562
   88MOL   H16433398   5.523   3.770   5.761 -0.1895 -0.5937  0.6540
   88MOL   H16533399   5.540   3.720   5.995 -0.9216  0.1314 -0.9518
   88MOL   H16633400   5.810   3.634   6.168 -0.9293 -0.6572  3.0011
   88MOL   H16733401   5.641   3.601   6.182 -0.5623  0.5800 -0.1797
   88MOL   H16833402   5.754   3.467   6.152 -1.2861 -0.4759 -0.6340
   88MOL   H16933403   5.891   3.474   5.929  0.6638 -0.1801 -0.3110
   88MOL   H17033404   5.872   3.522   5.680 -1.0291 -1.8510  0.0177
   88MOL   H17133405   5.838   3.813   5.420 -0.4838  0.0092 -0.3263
   88MOL   H17233406   5.922   3.744   5.546 -0.2391  0.4545  1.9655
   88MOL   C17333407   5.820   3.931   5.602  0.2643 -0.2151 -0.5132
   88MOL   C17433408   5.834   4.052   5.510  0.1619  0.4175 -0.3098
   88MOL   C17533409   5.720   4.128   5.473  0.4379 -0.0528  0.0253
   88MOL   C17633410   5.725   4.254   5.413  0.6196  0.1772 -0.8144
   88MOL   C17733411   5.850   4.317   5.396 -0.0688 -0.3500 -0.1327
   88MOL   C17833412   5.852   4.463   5.368  0.0895  0.3096  0.3686
   88MOL   C17933413   5.966   4.243   5.421 -0.1862  0.3691 -0.4573
   88MOL   C18033414   5.959   4.107   5.473 -0.2534 -0.0510 -0.3466
   88MOL   C18133415   5.917   3.922   5.720 -0.1843  0.4716 -0.1887
   88MOL   H18233416   5.722   3.946   5.648  0.4953 -1.7740  0.5259
   88MOL   H18333417   5.630   4.073   5.497  0.4450 -0.6654 -1.2867
   88MOL   H18433418   5.636   4.302   5.375 -0.6112 -0.3824  1.3305
   88MOL   H18533419   5.792   4.494   5.282 -2.3010  0.7963  2.1540
   88MOL   H18633420   5.793   4.510   5.447  1.8220  0.3397  1.6482
   88MOL   H18733421   5.952   4.502   5.384  0.4380 -0.4325 -0.0141
   88MOL   H18833422   6.065   4.285   5.409  0.1882  0.2234  1.8715
   88MOL   H18933423   6.049   4.057   5.506  0.3819  1.3811  0.1232
   88MOL   H19033424   6.015   3.912   5.672 -0.7321 -1.5641 -0.9284
   88MOL   H19133425   5.893   3.836   5.782 -0.7911  1.1636  0.5374
   88MOL   C19233426   5.926   4.035   5.829 -0.9743 -0.6667  0.5937
   88MOL   C19333427   6.044   4.009   5.917  0.6818 -0.0679  0.0238
   88MOL   C19433428   6.159   4.090   5.909  0.0222  0.1170 -0.0568
   88MOL   C19533429   6.279   4.054   5.979 -0.2268 -0.3543 -0.1315
   88MOL   C19633430   6.273   3.953   6.072 -0.4402  0.0188 -0.2049
   88MOL   C19733431   6.396   3.918   6.147 -0.4541 -0.1306  0.3740
   88MOL   C19833432   6.155   3.878   6.089  0.4295  0.2746  0.1209
   88MOL   C19933433   6.039   3.906   6.009 -0.0596  0.2779 -0.1370
   88MOL   C20033434   5.790   4.054   5.908 -0.3205  0.1512  0.2816
   88MOL   H20133435   5.954   4.123   5.770 -0.0259 -0.3032  1.5851
   88MOL   H20233436   6.169   4.168   5.835 -1.7822 -0.8949 -1.4003
   88MOL   H20333437   6.375   4.100   5.967  1.3329 -3.1790  0.8720
   88MOL   H20433438   6.376   3.853   6.232  0.0000 -2.1415 -1.0402
   88MOL   H20533439   6.465   3.859   6.088 -0.8089 -0.3148  0.1397
   88MOL   H20633440   6.453   4.006   6.178  0.3303 -0.5341  0.0774
   88MOL   H20733441   6.141   3.801   6.164 -0.2933  0.7242  0.4589
   88MOL   H20833442   5.946   3.857   6.030 -0.0930  0.1943 -0.4686
   88MOL   H20933443   5.759   3.957   5.947 -0.4289  0.4769  1.0058
   88MOL   H21033444   5.713   4.076   5.834  1.6065  1.6099 -1.3524
   88MOL   C21133445   5.790   4.158   6.023 -0.3185  0.2071  0.1051
   88MOL   C21233446   5.767   4.084   6.158 -0.2079  0.4235 -0.8194
   88MOL   C21333447   5.646   4.013   6.178  0.2180 -0.1919  0.6969
   88MOL   C21433448   5.623   3.938   6.296  0.0878 -0.3489 -0.3017
   88MOL   C21533449   5.717   3.948   6.405 -0.3093  0.8598  0.8047
   88MOL   C21633450   5.692   3.879   6.532 -0.0465  0.9410 -0.6676
   88MOL   C21733451   5.833   4.026   6.389 -0.4688  0.2011 -0.5541
   88MOL   C21833452   5.859   4.090   6.265 -0.4142 -0.1801  0.8994
   88MOL   C21933453   5.688   4.274   6.008 -0.0187 -0.3932 -0.1029
   88MOL   H22033454   5.893   4.189   6.042  0.0211 -1.2873  0.7823
   88MOL   H22133455   5.569   4.007   6.103  2.0289  0.3051 -1.2645
   88MOL   H22233456   5.533   3.879   6.305 -0.3606  0.6054  1.6964
   88MOL   H22333457   5.781   3.828   6.569  1.3009  5.0116  2.0315
   88MOL   H22433458   5.660   3.952   6.606 -0.0820 -0.3225  0.6028
   88MOL   H22533459   5.602   3.818   6.527  1.1363 -0.7167 -2.5992
   88MOL   H22633460   5.899   4.038   6.474 -0.2407  0.8128 -0.8138
   88MOL   H22733461   5.949   4.150   6.261 -1.1908  1.0544  1.9151
   88MOL   H22833462   5.687   4.324   6.105 -1.4212 -2.3139  0.8976
   88MOL   H22933463   5.587   4.234   6.014  0.1959 -0.9739 -0.3429
   88MOL   C23033464   5.717   4.371   5.886  0.8121 -0.3476  0.2678
   88MOL   C23133465   5.865   4.408   5.865  0.3764 -0.9145 -0.2171
   88MOL   C23233466   5.925   4.413   5.739  0.4684 -0.0849  0.0492
   88MOL   C23333467   6.056   4.458   5.724  0.5145 -0.5562  0.1157
   88MOL   C23433468   6.127   4.514   5.836 -0.1923 -0.9195  0.1532
   88MOL   C23533469   6.270   4.570   5.821  0.6475 -0.0385  0.5492
   88MOL   C23633470   6.074   4.501   5.964  0.6429  1.2622  0.2230
   88MOL   C23733471   5.942   4.447   5.979 -0.7414 -0.1757 -0.4524
   88MOL   C23833472   5.631   4.503   5.890  0.2525  0.3051 -0.8050
   88MOL   H23933473   5.694   4.318   5.794 -0.6946 -0.3005  0.6065
   88MOL   H24033474   5.868   4.393   5.649  1.9846  0.5954 -1.0898
   88MOL   H24133475   6.087   4.473   5.622 -0.8157 -0.3970 -0.2701
   88MOL   H24233476   6.328   4.541   5.909  1.4167 -0.6518 -0.1529
   88MOL   H24333477   6.306   4.530   5.727 -0.0195 -1.8683  1.0607
   88MOL   H24433478   6.258   4.679   5.817  1.1291  0.0361  1.0915
   88MOL   H24533479   6.133   4.528   6.051  2.0441  1.0992 -0.6617
   88MOL   H24633480   5.893   4.451   6.076 -2.2301 -1.5361 -1.1273
   88MOL   H24733481   5.665   4.571   5.812  0.4520 -0.9150 -1.8069
   88MOL   H24833482   5.659   4.567   5.974  1.2862 -0.5584 -0.4698
   88MOL   C24933483   5.481   4.488   5.903  0.6815  0.1350  0.0953
   88MOL   C25033484   5.427   4.415   5.775  0.4220  0.5299  0.2878
   88MOL   C25133485   5.386   4.482   5.658 -0.3813 -0.2880  0.6956
   88MOL   C25233486   5.341   4.424   5.538 -0.8242 -0.4966 -0.1210
   88MOL   C25333487   5.334   4.288   5.523  0.9755 -0.9886  0.4217
   88MOL   C25433488   5.281   4.223   5.395  0.2976  0.8736 -0.2005
   88MOL   C25533489   5.378   4.215   5.635 -0.2884 -0.2010 -0.3176
   88MOL   C25633490   5.416   4.278   5.759 -0.3346 -0.5861 -0.3080
   88MOL   C25733491   5.421   4.628   5.929 -0.3356  0.2498 -0.2863
   88MOL   H25833492   5.449   4.423   5.985  0.0591 -0.4753 -0.6270
   88MOL   H25933493   5.397   4.589   5.663  0.4136 -0.3748  0.9477
   88MOL   H26033494   5.315   4.476   5.447 -0.1573  1.7850  0.9510
   88MOL   H26133495   5.357   4.235   5.319  2.0598  0.1785  1.4096
   88MOL   H26233496   5.252   4.119   5.413 -1.4220  1.0544 -1.7684
   88MOL   H26333497   5.193   4.274   5.355 -0.5058  1.4554  2.2174
   88MOL   H26433498   5.385   4.107   5.626  0.7119 -0.7767  5.2207
   88MOL   H26533499   5.439   4.211   5.840 -1.4684 -0.4878  0.0983
   88MOL   H26633500   5.313   4.617   5.915 -0.2981 -0.2975 -0.1587
   88MOL   H26733501   5.451   4.698   5.851  1.2326 -1.6450 -1.4279
   88MOL   C26833502   5.436   4.702   6.069  0.8820 -0.5365  0.2627
   88MOL   C26933503   5.374   4.615   6.180  0.0802 -0.3626 -0.6640
   88MOL   C27033504   5.450   4.520   6.240 -0.6761 -0.0522  0.3386
   88MOL   C27133505   5.389   4.419   6.319 -1.0189 -0.7088  0.2580
   88MOL   C27233506   5.249   4.421   6.341  0.0755  0.0938 -0.4225
   88MOL   C27333507   5.182   4.321   6.431 -0.0805 -0.3933  0.3042
   88MOL   C27433508   5.168   4.520   6.280  0.3882  0.5366  0.3020
   88MOL   C27533509   5.233   4.614   6.194  0.1093 -0.8415  0.5286
   88MOL   C27633510   5.387   4.853   6.073 -0.6517 -0.6471  0.3974
   88MOL   H27733511   5.544   4.701   6.088  0.7745 -0.8487  0.8866
   88MOL   H27833512   5.551   4.510   6.203 -1.0566 -1.9328 -0.2334
   88MOL   H27933513   5.449   4.336   6.352 -0.2709 -0.1114  0.4094
   88MOL   H28033514   5.137   4.381   6.510 -0.9046  0.6449 -0.9236
   88MOL   H28133515   5.101   4.263   6.389  0.5451 -1.3584  0.4099
   88MOL   H28233516   5.248   4.242   6.466 -0.4384 -0.8964 -0.1567
   88MOL   H28333517   5.062   4.529   6.299  0.3318 -0.5637  0.5822
   88MOL   H28433518   5.169   4.673   6.130 -0.3505 -3.1307 -1.2121
   88MOL   H28533519   5.380   4.885   6.177  0.3064 -1.1175  0.6139
   88MOL   H28633520   5.287   4.845   6.030  0.4896 -0.6918 -2.3670
   88MOL   C28733521   5.476   4.950   5.983  0.4515  0.3821  1.0630
   88MOL   C28833522   5.623   4.930   6.020 -0.5250 -0.6909 -0.4247
   88MOL   C28933523   5.703   4.866   5.932 -0.0388 -0.0245  0.5517
   88MOL   C29033524   5.843   4.860   5.955 -0.9130  0.1218 -0.6645
   88MOL   C29133525   5.892   4.895   6.078  0.2481  0.0205  0.2986
   88MOL   C29233526   6.036   4.875   6.115  0.7747  0.0767 -0.2777
   88MOL   C29333527   5.808   4.965   6.170 -0.5468 -0.4444  0.4529
   88MOL   C29433528   5.675   4.984   6.140  0.1786 -0.7295 -0.3748
   88MOL   C29533529   5.426   5.097   5.997  0.2607  0.3944  0.1601
   88MOL   H29633530   5.465   4.915   5.880  1.6588  1.2643  0.6169
   88MOL   H29733531   5.661   4.830   5.839  0.2510 -2.4300  1.3106
   88MOL   H29833532   5.905   4.819   5.877  0.0990  0.8442 -0.2388
   88MOL   H29933533   6.106   4.941   6.063  0.1879  0.5607 -0.4571
   88MOL   H30033534   6.038   4.898   6.222  1.2267 -3.6536  0.5722
   88MOL   H30133535   6.067   4.774   6.089  1.5589 -0.0716  1.1913
   88MOL   H30233536   5.844   5.013   6.260  0.1641  1.0799 -0.6174
   88MOL   H30333537   5.612   5.034   6.213 -0.9062 -2.1284 -0.3432
   88MOL   H30433538   5.426   5.124   6.103 -1.8597 -1.1913  0.5925
   88MOL   H30533539   5.326   5.082   5.956  0.8769 -0.5351 -1.0411
   88MOL   C30633540   5.496   5.210   5.907  0.2629 -0.0383  0.8945
   88MOL   C30733541   5.639   5.248   5.956 -0.0468 -0.2768  0.5592
   88MOL   C30833542   5.758   5.212   5.894 -0.4038 -0.6567 -0.1617
   88MOL   C30933543   5.877   5.229   5.962 -0.8827 -0.7859 -0.2365
   88MOL   C31033544   5.879   5.285   6.089  0.3553 -0.2896  0.0320
   88MOL   C31133545   6.023   5.305   6.152  0.3670  0.1219  0.2626
   88MOL   C31233546   5.763   5.331   6.145  0.0609 -0.2127 -0.7624
   88MOL   C31333547   5.644   5.314   6.083  0.1065  0.0211 -0.1642
   88MOL   C31433548   5.401   5.337   5.906  0.7534  0.0712 -0.8112
   88MOL   H31533549   5.510   5.158   5.812 -0.8056 -0.4815  0.9740
   88MOL   H31633550   5.758   5.172   5.793  1.1424  0.0935 -0.4711
   88MOL   H31733551   5.970   5.186   5.928  0.0141  0.5523  0.4935
   88MOL   H31833552   6.020   5.361   6.246 -4.4094  1.7040 -0.6571
   88MOL   H31933553   6.072   5.212   6.179  3.1533  1.0443 -1.5164
   88MOL   H32033554   6.085   5.358   6.081 -0.3817  1.1202  0.3357
   88MOL   H32133555   5.758   5.375   6.244  1.0318  0.5812 -1.0575
   88MOL   H32233556   5.550   5.339   6.132 -0.5616  1.4905 -2.1293
   88MOL   H32333557   5.456   5.430   5.899  2.8764 -0.9900  1.1335
   88MOL   H32433558   5.350   5.347   6.002  0.3641  2.4543 -1.2366
   88MOL   C32533559   5.285   5.336   5.796 -0.3765  0.0643  0.3977
   88MOL   C32633560   5.330   5.326   5.648  0.6851  0.2242 -0.0457
   88MOL   C32733561   5.244   5.262   5.556 -0.1424 -0.0631 -0.7280
   88MOL   C32833562   5.281   5.254   5.418  0.0649 -0.5284  0.0295
   88MOL   C32933563   5.401   5.312   5.380  0.2558  0.0224 -0.1679
   88MOL   C33033564   5.425   5.317   5.232 -0.0697  0.0266 -0.3201
   88MOL   C33133565   5.481   5.377   5.471 -0.1523  0.0575  0.4083
   88MOL   C33233566   5.449   5.385   5.609 -0.2145 -0.7257 -0.1599
   88MOL   C33333567   5.182   5.447   5.818 -0.1514 -0.0219  0.3631
   88MOL   H33433568   5.240   5.238   5.808  2.0205 -1.2876 -1.2006
   88MOL   H33533569   5.151   5.219   5.590 -0.4291  1.2273  0.1771
   88MOL   H33633570   5.219   5.205   5.344  0.6345 -0.2671 -0.6260
   88MOL   H33733571   5.510   5.256   5.203  0.7184  0.7608  0.3858
   88MOL   H33833572   5.333   5.304   5.177 -1.3519  0.4735  1.6633
   88MOL   H33933573   5.461   5.417   5.207  1.8518 -0.6197 -0.2765
   88MOL   H34033574   5.576   5.418   5.440 -0.4576 -0.2392 -0.9299
   88MOL   H34133575   5.515   5.431   5.681 -0.1807  0.1909 -0.7704
   88MOL   H34233576   5.100   5.433   5.748  0.4649  1.5729 -0.7126
   88MOL   H34333577   5.233   5.540   5.794  3.4668 -1.7927  0.8594
   88MOL   C34433578   5.119   5.453   5.959 -0.0775 -0.2969  0.0208
   88MOL   C34533579   5.085   5.319   6.016 -0.1097  0.0983  0.3287
   88MOL   C34633580   5.130   5.288   6.145  0.0178 -0.0415 -0.2680
   88MOL   C34733581   5.118   5.154   6.186 -0.0381 -1.1040  0.2160
   88MOL   C34833582   5.051   5.057   6.108  0.4191  0.5034  0.1635
   88MOL   C34933583   5.019   4.928   6.176 -0.0938 -0.5533  0.5128
   88MOL   C35033584   4.991   5.092   5.986 -0.1973  0.2835  0.2350
   88MOL   C35133585   5.016   5.222   5.940  0.2873 -0.7611 -0.5800
   88MOL   C35233586   4.995   5.542   5.960 -0.7015  0.2059  0.3389
   88MOL   H35333587   5.195   5.502   6.021  0.8958 -0.1818 -1.2369
   88MOL   H35433588   5.183   5.365   6.200 -3.1672  0.2669  2.5108
   88MOL   H35533589   5.165   5.131   6.281  0.6097  1.2725  0.5211
   88MOL   H35633590   4.922   4.926   6.226 -0.2735 -1.5739  0.1437
   88MOL   H35733591   5.023   4.842   6.109 -0.9353 -0.9144  0.9191
   88MOL   H35833592   5.098   4.918   6.250 -0.5457 -1.0343  0.9398
   88MOL   H35933593   4.945   5.017   5.923  0.8789 -1.0656  1.0259
   88MOL   H36033594   4.986   5.242   5.838  0.2100  3.2340  0.1514
   88MOL   H36133595   4.950   5.523   6.057  0.1835 -0.4760  0.6183
   88MOL   H36233596   4.933   5.508   5.877 -1.2084  1.5424  0.1604
   88MOL   C36333597   5.003   5.697   5.949  0.5753  0.1771  0.0253
   88MOL   C36433598   4.868   5.751   5.981  0.1841 -0.4379 -0.2640
   88MOL   C36533599   4.847   5.819   6.104  0.3485 -0.4616 -0.1063
   88MOL   C36633600   4.717   5.863   6.144  0.0750 -0.4693  0.1015
   88MOL   C36733601   4.608   5.840   6.058 -0.4838  0.7349 -0.1380
   88MOL   C36833602   4.472   5.890   6.084 -0.3280 -0.1355  0.1958
   88MOL   C36933603   4.627   5.772   5.939 -0.3475 -0.1433  0.1776
   88MOL   C37033604   4.754   5.725   5.898  0.0279 -0.6001  0.2240
   88MOL   C37133605   5.045   5.751   5.807  0.5679 -0.8996 -0.1790
   88MOL   H37233606   5.069   5.741   6.023 -0.1435  0.2930  0.6040
   88MOL   H37333607   4.930   5.841   6.169  0.3391  0.0651 -0.2689
   88MOL   H37433608   4.703   5.914   6.239 -1.3032  1.3824 -1.0599
   88MOL   H37533609   4.439   5.877   6.187  2.2352  0.8825  1.2028
   88MOL   H37633610   4.486   5.997   6.066 -0.0894 -0.2841 -0.5425
   88MOL   H37733611   4.395   5.844   6.022 -0.2850 -0.6471  0.5203
   88MOL   H37833612   4.549   5.747   5.868  0.6832  0.2307 -1.1172
   88MOL   H37933613   4.756   5.672   5.804  2.3952  2.4925 -1.5764
   88MOL   H38033614   4.972   5.714   5.735 -1.4189 -0.4550  1.5607
   88MOL   H38133615   5.146   5.731   5.770  0.3997  0.2781 -1.3161
   88MOL   H38233616   5.031   5.859   5.806  1.4029 -0.7853  0.0076
   89MOL     C133617   1.034   2.117   0.280 -0.0900  0.3300  0.4973
   89MOL     C233618   0.908   2.196   0.250  0.0532  0.2480 -0.4374
   89MOL     C333619   0.796   2.194   0.340 -0.6451 -0.6688 -0.5476
   89MOL     C433620   0.672   2.250   0.307  0.1283 -0.0908 -0.1283
   89MOL     C533621   0.666   2.319   0.182 -0.8358  0.1954 -0.9910
   89MOL     C633622   0.540   2.383   0.146  0.3443 -0.8370  0.9359
   89MOL     C733623   0.778   2.316   0.086  1.0140  0.3574 -0.2580
   89MOL     C833624   0.902   2.258   0.121 -0.2946 -0.5055 -0.8672
   89MOL     C933625   1.048   1.979   0.203  0.3276 -0.1639 -0.4296
   89MOL    H1033626   1.128   2.171   0.270  2.4648 -3.7513  1.0796
   89MOL    H1133627   0.792   2.142   0.434 -2.3117  1.1640  0.4300
   89MOL    H1233628   0.586   2.234   0.370  0.7822 -0.7251  0.6096
   89MOL    H1333629   0.465   2.304   0.141 -1.4915  0.9484  0.2182
   89MOL    H1433630   0.514   2.456   0.223  1.8993  0.7126  0.0293
   89MOL    H1533631   0.556   2.428   0.049  1.7243 -0.6847  1.2228
   89MOL    H1633632   0.768   2.377   8.078  1.7287  1.3112  0.3104
   89MOL    H1733633   0.989   2.257   0.057 -0.9742  0.1195 -1.8082
   89MOL    H1833634   1.056   2.019   0.102  0.1621  2.2151  0.4500
   89MOL    H1933635   0.954   1.925   0.218  0.1153  0.9402  2.7336
   89MOL    H2033636   1.033   2.105   0.388 -0.6801  0.5489  0.5152
   89MOL    C2133637   1.175   1.892   0.241 -0.2172  0.1017 -0.6458
   89MOL    C2233638   1.308   1.969   0.243  0.7009 -0.1426  0.0711
   89MOL    C2333639   1.409   1.938   0.335 -1.1329  0.1193 -0.0396
   89MOL    C2433640   1.528   2.010   0.334 -0.2083 -0.2530  0.7597
   89MOL    C2533641   1.555   2.100   0.230 -0.1609  0.4661  0.3731
   89MOL    C2633642   1.686   2.177   0.233  0.2170  0.6769 -0.0360
   89MOL    C2733643   1.458   2.110   0.129  1.2301 -0.2694  0.2441
   89MOL    C2833644   1.329   2.058   0.141 -0.1476 -0.4220  0.1412
   89MOL    C2933645   1.184   1.764   0.149  0.2856  0.3772 -0.0814
   89MOL    H3033646   1.151   1.865   0.345  1.6041  2.2803  0.3753
   89MOL    H3133647   1.395   1.871   0.418  1.0315 -0.3166 -0.0158
   89MOL    H3233648   1.605   1.989   0.406  1.3607 -1.5971 -1.2355
   89MOL    H3333649   1.667   2.277   0.192  2.9747  1.8049  1.3257
   89MOL    H3433650   1.722   2.195   0.334 -1.7078 -0.7155  0.9186
   89MOL    H3533651   1.758   2.113   0.183 -0.2004  1.9059 -2.2814
   89MOL    H3633652   1.481   2.167   0.040  0.3883 -0.4113 -0.0667
   89MOL    H3733653   1.250   2.082   0.071  1.4105 -0.0383 -1.5486
   89MOL    H3833654   1.275   1.712   0.177  1.1022  1.1883 -1.1995
   89MOL    H3933655   1.190   1.784   0.042 -0.4450  1.1642  0.0175
   89MOL    C4033656   1.078   1.647   0.166 -0.6889 -0.4328  0.7654
   89MOL    C4133657   1.073   1.608   0.316 -0.4103  1.1819 -0.6666
   89MOL    C4233658   0.967   1.643   0.402 -0.1495 -0.1184  0.0434
   89MOL    C4333659   0.942   1.576   0.522  0.0925 -0.6130 -0.2602
   89MOL    C4433660   1.036   1.482   0.567  0.0891  0.2702  1.0772
   89MOL    C4533661   0.996   1.399   0.686  0.1639  0.7228  0.1804
   89MOL    C4633662   1.155   1.457   0.498 -0.3532 -0.4839  0.0948
   89MOL    C4733663   1.172   1.520   0.370 -0.1906  0.0236  0.6080
   89MOL    C4833664   1.091   1.527   0.068 -0.1052 -0.3472  0.5234
   89MOL    H4933665   0.978   1.686   0.155 -0.2116  0.7870  0.7475
   89MOL    H5033666   0.889   1.706   0.363 -0.5469 -0.4652  0.2663
   89MOL    H5133667   0.849   1.590   0.576 -0.3381 -2.5959 -0.4493
   89MOL    H5233668   0.901   1.348   0.674  0.3932  0.6238 -1.2707
   89MOL    H5333669   1.076   1.332   0.717 -0.2949 -0.1298 -0.4618
   89MOL    H5433670   0.982   1.479   0.759 -2.6656  1.7941 -1.4771
   89MOL    H5533671   1.223   1.380   0.530 -0.9802 -0.3320  1.8375
   89MOL    H5633672   1.262   1.502   0.314  1.0082  1.5225  1.9933
   89MOL    H5733673   1.170   1.461   0.104 -1.4653 -0.2957  3.7835
   89MOL    H5833674   1.131   1.550   8.049 -0.0559 -0.8144  0.4366
   89MOL    C5933675   0.965   1.446   0.047  0.0062 -0.0585 -0.1263
   89MOL    C6033676   0.997   1.303   0.004  0.1161 -0.3938 -0.6282
   89MOL    C6133677   1.080   1.279   7.976  0.3072 -0.4646  0.2576
   89MOL    C6233678   1.102   1.148   7.936 -0.2048  1.2608 -0.2204
   89MOL    C6333679   1.056   1.039   8.009 -0.2047  0.2656 -0.1005
   89MOL    C6433680   1.094   0.903   7.957  0.3031 -0.3589 -0.1153
   89MOL    C6533681   0.980   1.062   0.048 -0.2695  0.5248 -0.4247
   89MOL    C6633682   0.946   1.194   0.086 -0.9912  0.0165 -0.1019
   89MOL    C6733683   0.860   1.518   8.029 -0.1398  0.1978  0.4894
   89MOL    H6833684   0.903   1.454   0.136 -0.0215  0.3061 -0.1795
   89MOL    H6933685   1.120   1.351   7.906 -0.2061  0.1478  0.5870
   89MOL    H7033686   1.146   1.123   7.841 -0.8961 -1.3331  0.1020
   89MOL    H7133687   1.165   0.915   7.876  0.1890  0.2011 -0.1313
   89MOL    H7233688   1.144   0.837   8.028  0.4240 -3.0695 -2.5854
   89MOL    H7333689   1.001   0.860   7.920 -1.3275  2.5045  0.5082
   89MOL    H7433690   0.948   0.978   0.109 -1.1309  1.6851  0.7521
   89MOL    H7533691   0.866   1.214   0.155  2.0253  2.2665  2.9080
   89MOL    H7633692   0.827   1.609   8.080 -0.0592  0.4210  0.1407
   89MOL    H7733693   0.762   1.471   8.034  0.8687 -2.2595 -1.6599
   89MOL    C7833694   0.904   1.567   7.890 -0.4274  0.0471  0.0462
   89MOL    C7933695   0.866   1.708   7.849  0.1732 -0.4989 -0.3581
   89MOL    C8033696   0.754   1.734   7.772  0.0706  0.6283 -0.4110
   89MOL    C8133697   0.717   1.867   7.752  0.2148 -0.3442  0.5319
   89MOL    C8233698   0.796   1.976   7.796  0.0411 -0.0566  0.2243
   89MOL    C8333699   0.758   2.122   7.761 -0.0626  0.2424 -0.1925
   89MOL    C8433700   0.912   1.949   7.880  0.3362 -1.2689  0.0880
   89MOL    C8533701   0.940   1.812   7.906  0.1712  0.1325 -0.0036
   89MOL    C8633702   0.869   1.459   7.778 -0.1400 -0.6292  0.0273
   89MOL    H8733703   1.012   1.561   7.885 -0.5484 -2.6372 -0.6059
   89MOL    H8833704   0.689   1.655   7.734 -1.5731  2.6808 -2.0307
   89MOL    H8933705   0.627   1.899   7.703  1.4391  0.8419 -1.0011
   89MOL    H9033706   0.762   2.177   7.855  1.9144  0.4058 -0.3505
   89MOL    H9133707   0.834   2.166   7.696  0.4215 -0.2077  0.0628
   89MOL    H9233708   0.663   2.126   7.708 -0.2206 -1.8383 -0.0855
   89MOL    H9333709   0.978   2.025   7.917  3.5325 -2.4319 -2.8823
   89MOL    H9433710   1.018   1.804   7.980  1.7175  2.4410 -1.3332
   89MOL    H9533711   0.764   1.466   7.750 -0.2101  2.9842  1.0204
   89MOL    H9633712   0.887   1.360   7.820  0.6642 -0.3678  0.2963
   89MOL    C9733713   0.943   1.492   7.646  0.2245 -0.0830  0.6315
   89MOL    C9833714   0.854   1.467   7.526 -0.4320 -0.5153  0.4640
   89MOL    C9933715   0.797   1.346   7.495  0.2682 -0.0377  0.0527
   89MOL   C10033716   0.722   1.337   7.379  1.0714  0.2209 -0.3642
   89MOL   C10133717   0.692   1.443   7.299  0.5993 -0.2342  1.0889
   89MOL   C10233718   0.586   1.428   7.195  0.0171  0.1548  0.8843
   89MOL   C10333719   0.751   1.562   7.325  0.0332  0.1502 -0.3884
   89MOL   C10433720   0.836   1.575   7.442 -0.0180  0.1907 -0.2097
   89MOL   C10533721   1.077   1.421   7.637 -0.2283 -0.0583  0.3615
   89MOL   H10633722   0.973   1.597   7.646  0.9341 -0.2803  0.2433
   89MOL   H10733723   0.816   1.265   7.564 -0.1213 -1.7681 -1.8177
   89MOL   H10833724   0.670   1.245   7.359 -0.2635  1.0265 -0.6352
   89MOL   H10933725   0.634   1.404   7.100  1.6324 -1.4788  2.0701
   89MOL   H11033726   0.511   1.352   7.218 -0.5818  1.0120  1.7923
   89MOL   H11133727   0.538   1.525   7.208  1.0952  0.7102  0.7949
   89MOL   H11233728   0.741   1.644   7.256  1.2793 -0.9197 -1.8730
   89MOL   H11333729   0.890   1.669   7.450  1.1907 -0.5632  0.6946
   89MOL   H11433730   1.049   1.320   7.667  1.7701  0.1180  3.0773
   89MOL   H11533731   1.138   1.453   7.721  0.6386  2.2309 -1.0936
   89MOL   C11633732   1.156   1.414   7.512  0.4701  0.8385  0.0761
   89MOL   C11733733   1.249   1.280   7.517  0.4307  0.1128 -0.2335
   89MOL   C11833734   1.311   1.252   7.640  0.1757  0.4962 -0.2932
   89MOL   C11933735   1.383   1.132   7.660 -0.0520 -0.2924  0.1221
   89MOL   C12033736   1.394   1.037   7.552 -0.1072  0.0923  0.3326
   89MOL   C12133737   1.478   0.913   7.561  0.7746 -0.2422  0.1565
   89MOL   C12233738   1.319   1.060   7.434  0.4082  0.2144 -0.3007
   89MOL   C12333739   1.252   1.182   7.414 -0.1629  0.7620  0.0346
   89MOL   C12433740   1.223   1.541   7.469 -0.3590  0.3290  0.0183
   89MOL   H12533741   1.084   1.377   7.439  0.8036 -0.9718  0.6121
   89MOL   H12633742   1.303   1.317   7.726  1.2063 -0.4647  0.5393
   89MOL   H12733743   1.433   1.118   7.755  1.5866 -1.1610 -0.8537
   89MOL   H12833744   1.484   0.884   7.666 -1.8597 -1.8747 -0.0814
   89MOL   H12933745   1.428   0.826   7.518 -1.2243  0.5488  0.8186
   89MOL   H13033746   1.580   0.923   7.525  1.0728 -0.4386  0.9408
   89MOL   H13133747   1.309   0.978   7.363 -1.0949 -0.3894  0.5953
   89MOL   H13233748   1.193   1.197   7.325 -3.1575 -2.5735  1.3340
   89MOL   H13333749   1.301   1.558   7.543  0.4232 -1.8527 -0.2597
   89MOL   H13433750   1.159   1.629   7.480  1.3741  1.5402  0.7286
   89MOL   C13533751   1.268   1.527   7.315  0.1375 -0.4470  0.1065
   89MOL   C13633752   1.405   1.583   7.285 -0.4792 -0.5277  0.0463
   89MOL   C13733753   1.502   1.499   7.222 -0.2519  0.3363 -0.5366
   89MOL   C13833754   1.634   1.542   7.201 -0.0853  0.2423 -0.4899
   89MOL   C13933755   1.657   1.676   7.222 -0.1659  0.5477 -0.2925
   89MOL   C14033756   1.787   1.737   7.181  0.4916 -0.5348 -0.6306
   89MOL   C14133757   1.564   1.760   7.277  0.1139 -0.2144  0.1646
   89MOL   C14233758   1.437   1.714   7.316 -0.5860 -0.8485 -0.3675
   89MOL   C14333759   1.160   1.576   7.217  0.5971 -0.5534 -0.1784
   89MOL   H14433760   1.268   1.420   7.298  0.5273 -0.2315 -1.3327
   89MOL   H14533761   1.475   1.398   7.196 -0.3892  1.0350 -3.3203
   89MOL   H14633762   1.699   1.474   7.149  2.3005 -0.0207  2.6565
   89MOL   H14733763   1.832   1.799   7.258  0.4602 -1.5671  0.2283
   89MOL   H14833764   1.857   1.660   7.149  0.7395  0.4382 -2.5007
   89MOL   H14933765   1.767   1.793   7.090 -0.9789 -1.4842 -0.9231
   89MOL   H15033766   1.596   1.863   7.291 -0.2078 -0.0827 -0.0555
   89MOL   H15133767   1.366   1.781   7.362  1.1008  0.2476  0.6910
   89MOL   H15233768   1.150   1.683   7.237  1.2854 -0.7448  1.2374
   89MOL   H15333769   1.064   1.530   7.240  0.8236  0.5398  3.2353
   89MOL   C15433770   1.182   1.565   7.067  0.0371  0.2940  0.4628
   89MOL   C15533771   1.067   1.629   6.994 -0.3103 -0.0702  0.3043
   89MOL   C15633772   0.933   1.575   7.004  0.5981 -0.5283 -0.0901
   89MOL   C15733773   0.825   1.640   6.934 -0.1273 -0.2230 -0.0036
   89MOL   C15833774   0.849   1.752   6.854 -0.1878  0.4782  0.8538
   89MOL   C15933775   0.728   1.815   6.784  0.5700 -0.6355  0.0302
   89MOL   C16033776   0.975   1.812   6.843 -0.8560 -0.3917 -0.6266
   89MOL   C16133777   1.084   1.752   6.917  0.4454  0.3794  0.4510
   89MOL   C16233778   1.213   1.418   7.025  0.0249 -0.6461  0.0403
   89MOL   H16333779   1.272   1.621   7.043 -0.4365  1.4736  1.3829
   89MOL   H16433780   0.918   1.480   7.053 -0.1850  0.3191  1.3586
   89MOL   H16533781   0.724   1.603   6.931  0.3047 -1.4461  0.2513
   89MOL   H16633782   0.749   1.821   6.677  2.8402  1.9168  0.5818
   89MOL   H16733783   0.634   1.762   6.801 -0.4386  0.8228 -0.8091
   89MOL   H16833784   0.716   1.915   6.826  0.1873 -1.2108  1.3183
   89MOL   H16933785   0.995   1.901   6.786  1.0136 -0.2870  0.1323
   89MOL   H17033786   1.181   1.799   6.908  0.4077  0.5975  1.1736
   89MOL   H17133787   1.124   1.355   7.017 -0.1779 -0.1727 -1.6073
   89MOL   H17233788   1.282   1.368   7.094 -0.6368 -0.6470  0.7182
   89MOL   C17333789   1.272   1.392   6.887  0.1377  0.0455 -0.5119
   89MOL   C17433790   1.277   1.242   6.856 -0.0813  0.0350 -0.2283
   89MOL   C17533791   1.237   1.196   6.727  0.3571 -0.4769 -0.8108
   89MOL   C17633792   1.259   1.068   6.686  0.2487  0.9615 -0.1846
   89MOL   C17733793   1.320   0.976   6.769  0.0216  0.1525  0.0689
   89MOL   C17833794   1.339   0.841   6.719 -0.3251 -0.1325  0.1894
   89MOL   C17933795   1.358   1.018   6.899  0.1713  0.2445 -0.0238
   89MOL   C18033796   1.339   1.150   6.941  0.2248  0.5608 -0.5364
   89MOL   C18133797   1.409   1.458   6.877 -0.0456  0.3504 -0.3351
   89MOL   H18233798   1.205   1.439   6.815 -3.1309 -1.8347  1.2106
   89MOL   H18333799   1.197   1.261   6.650 -0.6378  0.1597  0.2277
   89MOL   H18433800   1.230   1.039   6.586  1.0536  1.4149 -0.5599
   89MOL   H18533801   1.362   0.762   6.791  1.7089  0.6668  0.4609
   89MOL   H18633802   1.263   0.797   6.654 -0.2806 -1.1186  0.7861
   89MOL   H18733803   1.438   0.848   6.672 -0.8133  0.8757 -0.6931
   89MOL   H18833804   1.400   0.943   6.965  0.3295  0.9745  0.7197
   89MOL   H18933805   1.374   1.172   7.041 -1.1609 -0.1851  0.1169
   89MOL   H19033806   1.486   1.419   6.944 -3.9501 -1.2739  3.4566
   89MOL   H19133807   1.402   1.565   6.896 -1.9456  0.2175 -0.1783
   89MOL   C19233808   1.459   1.457   6.736  0.2157 -0.0819  0.7753
   89MOL   C19333809   1.584   1.367   6.720 -0.0956  0.0527 -0.2277
   89MOL   C19433810   1.702   1.396   6.796 -0.2695  0.0568 -0.3260
   89MOL   C19533811   1.812   1.309   6.789 -0.5102 -0.5658 -0.5259
   89MOL   C19633812   1.810   1.198   6.700  0.1762 -0.2624  0.3629
   89MOL   C19733813   1.928   1.109   6.680  0.1822 -0.0444 -0.5967
   89MOL   C19833814   1.694   1.181   6.612 -0.1652  0.2150 -0.7152
   89MOL   C19933815   1.585   1.264   6.626 -0.3386 -0.2085 -0.7284
   89MOL   C20033816   1.492   1.597   6.678 -0.4905  0.4595 -0.1974
   89MOL   H20133817   1.382   1.427   6.665  1.2588  0.1171 -0.4582
   89MOL   H20233818   1.712   1.484   6.857  2.3746  0.2923 -1.0050
   89MOL   H20333819   1.895   1.324   6.857  2.0371  0.3146 -3.6953
   89MOL   H20433820   2.013   1.178   6.676  2.0000 -2.2025 -0.3895
   89MOL   H20533821   1.966   1.045   6.760 -0.8519 -1.5226 -1.2673
   89MOL   H20633822   1.925   1.033   6.602 -0.2773  0.8497 -1.4515
   89MOL   H20733823   1.687   1.106   6.534  1.6302  0.9881 -1.6623
   89MOL   H20833824   1.494   1.254   6.569 -1.1420  1.1039  0.3022
   89MOL   H20933825   1.557   1.574   6.594  0.0395 -2.1561  0.9029
   89MOL   H21033826   1.551   1.653   6.751  0.0610 -2.1211  1.3760
   89MOL   C21133827   1.375   1.686   6.635 -0.2725 -0.0581  0.0988
   89MOL   C21233828   1.276   1.617   6.541 -0.0960  0.2091  0.3655
   89MOL   C21333829   1.147   1.578   6.588  1.1013  0.3116  0.4074
   89MOL   C21433830   1.053   1.525   6.501  0.0950  0.4738 -0.0934
   89MOL   C21533831   1.089   1.505   6.363 -0.3187 -0.6394 -0.0505
   89MOL   C21633832   0.981   1.471   6.263  0.1766 -0.0702 -0.7232
   89MOL   C21733833   1.214   1.552   6.315  0.3015 -0.3735  0.0835
   89MOL   C21833834   1.307   1.602   6.405 -0.0590 -1.1726  0.6213
   89MOL   C21933835   1.422   1.829   6.571 -0.4731  0.0991 -0.3810
   89MOL   H22033836   1.321   1.707   6.728 -1.6181 -1.5928 -0.3302
   89MOL   H22133837   1.122   1.585   6.692 -0.6976 -0.1479  0.0118
   89MOL   H22233838   0.957   1.489   6.534 -0.5960 -0.0418 -2.5252
   89MOL   H22333839   0.898   1.419   6.310  0.6743 -0.1553  0.0808
   89MOL   H22433840   0.936   1.567   6.243  1.0700  0.2479 -1.2385
   89MOL   H22533841   1.025   1.426   6.174  0.1042 -1.8272  0.0996
   89MOL   H22633842   1.247   1.533   6.214  1.5466  0.2641  0.3502
   89MOL   H22733843   1.402   1.628   6.362 -0.4023 -1.3489 -0.2476
   89MOL   H22833844   1.334   1.882   6.532  1.3462  2.0063 -2.0339
   89MOL   H22933845   1.484   1.822   6.481  0.2430  0.9484  0.0343
   89MOL   C23033846   1.491   1.932   6.665 -0.0610  0.0479 -0.8098
   89MOL   C23133847   1.407   1.951   6.793 -0.3302 -0.2261  0.2497
   89MOL   C23233848   1.288   2.023   6.793 -0.1291 -0.2020  0.4633
   89MOL   C23333849   1.223   2.055   6.914 -0.2784  0.0299  0.0620
   89MOL   C23433850   1.277   2.010   7.038  0.4392 -0.0586  0.6334
   89MOL   C23533851   1.214   2.050   7.172  0.0597  0.7464  0.1342
   89MOL   C23633852   1.388   1.931   7.034  0.4710  0.1098 -0.0062
   89MOL   C23733853   1.455   1.903   6.914 -0.6373 -0.1407 -0.2702
   89MOL   C23833854   1.515   2.064   6.598 -0.2928  0.7402  0.4882
   89MOL   H23933855   1.580   1.882   6.701 -1.0657 -1.1999 -0.0315
   89MOL   H24033856   1.241   2.060   6.703 -0.7349  1.7866  1.5350
   89MOL   H24133857   1.132   2.112   6.919 -0.6251 -0.4797 -0.3872
   89MOL   H24233858   1.125   2.111   7.170  0.0163  0.7100  0.8572
   89MOL   H24333859   1.187   1.960   7.228  0.5082  0.4111 -0.1781
   89MOL   H24433860   1.286   2.095   7.241  0.2902  0.6724 -0.0541
   89MOL   H24533861   1.426   1.884   7.124 -0.0595 -1.3961 -0.5499
   89MOL   H24633862   1.549   1.849   6.917 -0.9459 -0.6047  2.1410
   89MOL   H24733863   1.511   2.133   6.683 -1.0874 -0.8495  1.7669
   89MOL   H24833864   1.429   2.099   6.542  0.3661  0.9871 -0.3809
   89MOL   C24933865   1.651   2.092   6.536  0.3351 -0.0479 -0.1163
   89MOL   C25033866   1.773   2.041   6.614  1.0257  0.3707 -0.6611
   89MOL   C25133867   1.789   2.065   6.752 -0.1932  0.1523 -0.7779
   89MOL   C25233868   1.887   2.002   6.825 -0.5929 -0.1644 -0.2773
   89MOL   C25333869   1.980   1.918   6.756 -0.4035 -0.1881  0.0264
   89MOL   C25433870   2.105   1.855   6.816 -0.0299 -0.4337  0.3993
   89MOL   C25533871   1.970   1.901   6.618 -0.1802  0.2884 -0.0726
   89MOL   C25633872   1.872   1.968   6.547 -0.1873  0.3435  0.6890
   89MOL   C25733873   1.668   2.242   6.517  0.0458  0.5335  0.2400
   89MOL   H25833874   1.658   2.042   6.439 -1.0238  1.3361 -0.9417
   89MOL   H25933875   1.715   2.121   6.809 -0.0878 -1.2117  0.7104
   89MOL   H26033876   1.883   2.019   6.932  0.7791  1.9012 -0.5193
   89MOL   H26133877   2.086   1.748   6.814 -1.8979 -0.1475  1.3404
   89MOL   H26233878   2.198   1.895   6.776 -0.3449 -0.1805 -0.0820
   89MOL   H26333879   2.119   1.879   6.922  0.2459 -0.7513  0.4362
   89MOL   H26433880   2.039   1.832   6.569  0.8453  0.0395  1.6788
   89MOL   H26533881   1.861   1.939   6.444  0.6741  1.3089  0.3234
   89MOL   H26633882   1.772   2.264   6.491 -0.0263 -1.6693 -2.1960
   89MOL   H26733883   1.662   2.301   6.608 -0.9843 -1.3646  1.4464
   89MOL   C26833884   1.593   2.304   6.398  0.3654  0.0595 -1.1159
   89MOL   C26933885   1.657   2.250   6.268  0.3180  0.6009  0.2484
   89MOL   C27033886   1.568   2.188   6.172  0.3204 -0.5000 -0.2021
   89MOL   C27133887   1.617   2.133   6.051  0.6433  0.2479  0.1903
   89MOL   C27233888   1.746   2.154   6.010  0.5161 -0.4033 -0.7326
   89MOL   C27333889   1.789   2.094   5.882  0.0259  0.1798 -0.0707
   89MOL   C27433890   1.828   2.225   6.096 -0.5230  0.0845  0.4972
   89MOL   C27533891   1.789   2.270   6.224 -0.5444 -1.1063 -1.0787
   89MOL   C27633892   1.586   2.461   6.400 -0.2814  0.6768 -0.3506
   89MOL   H27733893   1.489   2.270   6.400 -0.1400  1.5600 -1.5986
   89MOL   H27833894   1.465   2.167   6.196  0.0703  2.5930  1.7957
   89MOL   H27933895   1.558   2.068   5.988 -0.3653  0.8308  0.5318
   89MOL   H28033896   1.713   2.123   5.809  1.0474  3.7424  0.1602
   89MOL   H28133897   1.890   2.127   5.857  0.1563 -1.0226 -1.1584
   89MOL   H28233898   1.778   1.986   5.891  2.2185 -0.1066 -0.4201
   89MOL   H28333899   1.935   2.235   6.080 -0.6523  0.8638  0.0645
   89MOL   H28433900   1.866   2.317   6.284 -1.0056 -1.3458 -0.2811
   89MOL   H28533901   1.608   2.502   6.302  2.6538  1.0777  0.4287
   89MOL   H28633902   1.669   2.492   6.464 -0.6837  0.3619  0.3300
   89MOL   C28733903   1.453   2.514   6.458 -0.1772  0.1752 -0.2013
   89MOL   C28833904   1.349   2.503   6.346  0.2520 -0.1162 -0.4999
   89MOL   C28933905   1.372   2.530   6.212 -0.5974 -0.0524  0.3620
   89MOL   C29033906   1.273   2.510   6.115 -0.1401 -0.0083  0.4203
   89MOL   C29133907   1.142   2.484   6.157  0.5899 -0.5736 -0.4524
   89MOL   C29233908   1.037   2.485   6.056  0.0382  0.4727  0.1900
   89MOL   C29333909   1.111   2.462   6.289 -0.3449 -0.7731 -0.3502
   89MOL   C29433910   1.215   2.466   6.379  0.4001  0.2638  0.4053
   89MOL   C29533911   1.460   2.664   6.496 -0.1138  0.5141  0.1341
   89MOL   H29633912   1.417   2.444   6.534  0.8742  0.1652  0.2926
   89MOL   H29733913   1.465   2.570   6.174 -0.5881 -1.2106 -0.8837
   89MOL   H29833914   1.287   2.520   6.008 -0.2776  1.5017  0.5420
   89MOL   H29933915   1.036   2.591   6.032  1.3585  0.2632 -0.8512
   89MOL   H30033916   1.069   2.432   5.966  1.6846  1.4848  0.1683
   89MOL   H30133917   0.943   2.448   6.098 -0.4276  0.1994 -1.0711
   89MOL   H30233918   1.014   2.429   6.324 -0.4095 -2.2585 -1.8805
   89MOL   H30333919   1.187   2.449   6.482  0.1250  1.0948  0.4723
   89MOL   H30433920   1.355   2.682   6.516 -1.0569 -0.2810 -3.7232
   89MOL   H30533921   1.496   2.726   6.414 -1.1890 -0.5818 -1.1791
   89MOL   C30633922   1.551   2.689   6.616 -0.2996 -0.5822 -0.5369
   89MOL   C30733923   1.527   2.593   6.737 -0.3223  0.0033  0.0332
   89MOL   C30833924   1.398   2.585   6.795 -0.1025  0.4643 -0.7561
   89MOL   C30933925   1.379   2.512   6.915  1.0459 -0.7015  0.3342
   89MOL   C31033926   1.484   2.438   6.970  0.4207 -0.7086 -0.3108
   89MOL   C31133927   1.461   2.357   7.096 -0.5018 -0.1893  0.3127
   89MOL   C31233928   1.609   2.432   6.901 -0.2632 -0.0600 -0.2716
   89MOL   C31333929   1.632   2.511   6.790 -0.0225  0.7584  0.6216
   89MOL   C31433930   1.537   2.835   6.666  0.1205 -0.0189  0.5695
   89MOL   H31533931   1.655   2.681   6.586  0.7717 -0.4981  2.9226
   89MOL   H31633932   1.307   2.633   6.760 -1.8034  0.1798  2.9818
   89MOL   H31733933   1.280   2.505   6.956  0.2493 -0.7364 -1.5238
   89MOL   H31833934   1.550   2.365   7.158  0.7667  0.7787 -1.5919
   89MOL   H31933935   1.371   2.381   7.152 -1.1790  0.3922 -1.0002
   89MOL   H32033936   1.442   2.252   7.070  0.1708 -0.4085  0.7051
   89MOL   H32133937   1.688   2.372   6.943  1.1890  1.9081 -0.0961
   89MOL   H32233938   1.732   2.525   6.752  1.1936 -2.1654  2.5387
   89MOL   H32333939   1.609   2.850   6.746 -0.9099  2.0504  1.1519
   89MOL   H32433940   1.435   2.833   6.705 -0.0273  0.5223  0.2141
   89MOL   C32533941   1.559   2.947   6.564  0.4643  0.1122 -0.4095
   89MOL   C32633942   1.701   2.979   6.536 -0.4028 -0.1250  0.0848
   89MOL   C32733943   1.758   2.893   6.437  0.6149  0.2417  0.4474
   89MOL   C32833944   1.899   2.898   6.401  0.3972  0.2658 -0.7214
   89MOL   C32933945   1.980   2.994   6.468  0.4602 -0.5553  0.3535
   89MOL   C33033946   2.129   3.008   6.430 -0.6766 -0.3767  0.9003
   89MOL   C33133947   1.924   3.073   6.572 -0.3713 -0.5968 -0.5818
   89MOL   C33233948   1.786   3.066   6.612  0.2073  0.1682 -0.5516
   89MOL   C33333949   1.486   3.083   6.608 -0.0718 -0.6803 -0.0685
   89MOL   H33433950   1.506   2.921   6.473 -2.3855  0.2757  1.1299
   89MOL   H33533951   1.701   2.820   6.380 -1.3056  0.5072  1.9652
   89MOL   H33633952   1.933   2.830   6.325 -2.4944 -1.9476 -0.1119
   89MOL   H33733953   2.135   3.086   6.354 -1.3598 -0.6826  0.5328
   89MOL   H33833954   2.191   3.042   6.513  0.2209  3.5584 -1.2272
   89MOL   H33933955   2.168   2.920   6.380 -1.5334  0.4207 -1.2327
   89MOL   H34033956   1.991   3.143   6.619  1.3963 -1.4802 -1.7637
   89MOL   H34133957   1.751   3.111   6.704 -1.8713 -0.3149 -1.0806
   89MOL   H34233958   1.518   3.171   6.552  0.5696 -0.3971  0.7220
   89MOL   H34333959   1.518   3.109   6.709 -0.9875 -1.7833  0.5123
   89MOL   C34433960   1.332   3.076   6.604  0.1980  0.1225  0.1682
   89MOL   C34533961   1.281   3.021   6.478 -0.0939  0.1745  0.3003
   89MOL   C34633962   1.319   3.083   6.353 -0.0581  0.4372  0.3487
   89MOL   C34733963   1.277   3.037   6.228  0.7532 -0.1104 -0.4122
   89MOL   C34833964   1.186   2.931   6.223  0.2119 -0.2624 -0.1097
   89MOL   C34933965   1.132   2.877   6.094 -0.1574 -0.2942  0.6122
   89MOL   C35033966   1.151   2.869   6.344 -0.5454 -0.4320 -0.1698
   89MOL   C35133967   1.212   2.904   6.467 -0.2273  0.7167 -0.1467
   89MOL   C35233968   1.256   3.208   6.634 -0.5248 -0.9341 -0.1037
   89MOL   H35333969   1.303   2.999   6.675 -2.6344 -0.4422 -1.5394
   89MOL   H35433970   1.395   3.159   6.361  1.7013 -1.2892  0.4108
   89MOL   H35533971   1.320   3.079   6.138  0.3504  3.1737  0.8842
   89MOL   H35633972   1.097   2.774   6.110  1.9327 -0.8293  1.9439
   89MOL   H35733973   1.055   2.933   6.040  0.7575 -0.0577 -0.4637
   89MOL   H35833974   1.214   2.880   6.023 -1.3942  2.0688 -0.7858
   89MOL   H35933975   1.097   2.775   6.347  1.4608 -1.6444 -0.9602
   89MOL   H36033976   1.194   2.829   6.542 -2.1963 -2.7619 -3.9329
   89MOL   H36133977   1.151   3.210   6.605 -0.5903 -1.4099  0.0896
   89MOL   H36233978   1.295   3.283   6.567  0.5389 -0.7553  0.6974
   89MOL   C36333979   1.263   3.251   6.783  0.2254 -0.2519 -0.5518
   89MOL   C36433980   1.245   3.134   6.870 -0.1920 -0.1954  0.1355
   89MOL   C36533981   1.115   3.080   6.877  0.4617 -1.2493 -0.1322
   89MOL   C36633982   1.094   2.974   6.961  0.0312 -0.2332 -0.4339
   89MOL   C36733983   1.195   2.915   7.040  0.6317  0.4907  0.4542
   89MOL   C36833984   1.150   2.800   7.125  0.1112  0.0512  0.1440
   89MOL   C36933985   1.324   2.971   7.042  0.1368 -0.3212  0.4839
   89MOL   C37033986   1.345   3.083   6.955 -0.4581  1.1029 -0.3212
   89MOL   C37133987   1.185   3.377   6.832 -0.1400  1.0159  0.0602
   89MOL   H37233988   1.363   3.286   6.804 -0.6805  1.8685  0.3804
   89MOL   H37333989   1.031   3.120   6.822 -0.3438 -0.2459  1.7895
   89MOL   H37433990   0.992   2.937   6.963 -0.0694  0.0688  0.3991
   89MOL   H37533991   1.187   2.810   7.227 -2.2674  0.6600  0.9830
   89MOL   H37633992   1.041   2.800   7.134  0.2707  0.7674  2.3260
   89MOL   H37733993   1.181   2.706   7.080  0.3839  0.4929 -0.6035
   89MOL   H37833994   1.410   2.922   7.086  1.0257  0.1903 -0.6536
   89MOL   H37933995   1.443   3.128   6.962  0.3217 -0.6439  0.3784
   89MOL   H38033996   1.210   3.462   6.768 -0.2834 -0.3508 -1.8449
   89MOL   H38133997   1.207   3.396   6.937  1.5179 -2.2506  0.3674
   89MOL   H38233998   1.080   3.372   6.802  0.2721  1.1690 -1.4993
   90MOL     C133999   7.319   6.460   1.255 -0.5248  0.4745  0.6997
   90MOL     C234000   7.392   6.541   1.366  0.8297 -0.3932 -0.7719
   90MOL     C334001   7.313   6.611   1.456 -0.0712 -0.6555  0.8194
   90MOL     C434002   7.373   6.686   1.560 -0.1963  0.4117  0.2530
   90MOL     C534003   7.511   6.694   1.572 -0.1011 -0.0189 -0.4956
   90MOL     C634004   7.576   6.767   1.689  0.5152  0.0141  0.1501
   90MOL     C734005   7.593   6.627   1.476 -0.0371  0.8632 -0.1574
   90MOL     C834006   7.531   6.555   1.372  0.1441  0.0219 -0.2729
   90MOL     C934007   7.373   6.320   1.241 -0.4514  0.0882 -0.0742
   90MOL    H1034008   7.210   6.461   1.252 -0.6708 -2.3359  3.2086
   90MOL    H1134009   7.206   6.610   1.438  0.1414 -1.7864 -0.4359
   90MOL    H1234010   7.309   6.725   1.638 -0.5729  0.1468  0.0763
   90MOL    H1334011   7.645   6.849   1.667 -0.8548  0.4522 -2.6289
   90MOL    H1434012   7.494   6.796   1.755 -1.4919 -0.9858 -1.8574
   90MOL    H1534013   7.638   6.691   1.737 -1.6567 -2.6028 -1.1309
   90MOL    H1634014   7.699   6.645   1.478 -0.1489  1.6962 -1.3234
   90MOL    H1734015   7.590   6.497   1.302 -0.4523 -0.2087 -0.5941
   90MOL    H1834016   7.328   6.254   1.314  0.4929 -0.4132  0.0680
   90MOL    H1934017   7.477   6.322   1.275 -0.9322  0.3580  1.3948
   90MOL    H2034018   7.340   6.512   1.161 -2.2087 -0.9053 -0.4570
   90MOL    C2134019   7.366   6.263   1.099 -0.2640 -0.5334  0.6069
   90MOL    C2234020   7.222   6.245   1.064  0.1673 -0.2145  0.2060
   90MOL    C2334021   7.154   6.314   0.963 -0.4078  0.4408  0.5576
   90MOL    C2434022   7.029   6.280   0.921  0.3845 -0.2438  0.1025
   90MOL    C2534023   6.953   6.186   0.998 -0.3444 -0.4645 -0.8330
   90MOL    C2634024   6.807   6.164   0.961  0.0769 -0.3006  0.3950
   90MOL    C2734025   7.017   6.123   1.107 -0.5145  0.7114  0.2685
   90MOL    C2834026   7.153   6.154   1.137  0.4987 -0.4766  0.3604
   90MOL    C2934027   7.448   6.137   1.068 -0.3066 -0.0818  0.5063
   90MOL    H3034028   7.397   6.340   1.028  1.4840  1.6308  3.5674
   90MOL    H3134029   7.201   6.401   0.917  3.3085 -0.4809  2.3698
   90MOL    H3234030   6.976   6.333   0.843  0.9704  1.3709  0.7842
   90MOL    H3334031   6.764   6.088   1.025  0.3930 -0.6272  0.2240
   90MOL    H3434032   6.749   6.254   0.981  0.2459 -0.3583  1.1288
   90MOL    H3534033   6.795   6.127   0.859 -0.3999  4.7659 -1.5375
   90MOL    H3634034   6.947   6.066   1.166 -1.9543  0.4630 -1.6327
   90MOL    H3734035   7.207   6.095   1.210 -0.1463 -1.4742  0.0352
   90MOL    H3834036   7.426   6.090   0.972 -0.5231 -1.4144  1.1968
   90MOL    H3934037   7.413   6.053   1.128  0.4559 -2.2726 -1.9775
   90MOL    C4034038   7.599   6.162   1.081  0.0073 -0.6839 -1.2273
   90MOL    C4134039   7.646   6.282   0.996 -0.3384  0.1648 -0.6559
   90MOL    C4234040   7.690   6.402   1.058 -0.3688  1.0310  0.3023
   90MOL    C4334041   7.713   6.518   0.982  0.2726 -0.2062  0.2726
   90MOL    C4434042   7.706   6.512   0.842 -0.3914  0.5378  0.3696
   90MOL    C4534043   7.738   6.640   0.769 -0.7475  0.4132 -0.2618
   90MOL    C4634044   7.664   6.393   0.774 -0.9706  0.0148 -0.0221
   90MOL    C4734045   7.630   6.278   0.853  0.0086  0.0249  0.1425
   90MOL    C4834046   7.681   6.034   1.055 -0.3182 -0.9745 -0.0274
   90MOL    H4934047   7.619   6.184   1.186 -1.3131 -0.9712 -0.9129
   90MOL    H5034048   7.720   6.395   1.161  2.8070 -0.2619 -0.6298
   90MOL    H5134049   7.744   6.608   1.034 -1.2647  0.3669  0.2409
   90MOL    H5234050   7.784   6.612   0.674 -0.6223  0.3786 -0.1922
   90MOL    H5334051   7.652   6.705   0.757 -2.3884 -1.7563 -0.5254
   90MOL    H5434052   7.805   6.706   0.823 -0.3488 -2.2923  2.7205
   90MOL    H5534053   7.671   6.394   0.666  3.1629 -1.7587  0.1677
   90MOL    H5634054   7.594   6.184   0.814  0.6557  0.1739 -0.8374
   90MOL    H5734055   7.785   6.053   1.077 -0.8587  0.6012  1.2510
   90MOL    H5834056   7.678   6.009   0.948 -1.9025  2.7647 -0.9307
   90MOL    C5934057   7.644   5.907   1.129 -0.0172 -0.3114 -0.8389
   90MOL    C6034058   7.608   5.926   1.275 -0.6974  1.0376  0.0285
   90MOL    C6134059   7.479   5.892   1.324  0.8163 -0.5821 -0.4229
   90MOL    C6234060   7.446   5.908   1.460 -0.2106 -0.1610  0.0320
   90MOL    C6334061   7.546   5.954   1.545 -0.3876 -0.1195 -0.8539
   90MOL    C6434062   7.517   5.959   1.691 -0.3766 -0.6868  0.3121
   90MOL    C6534063   7.671   5.993   1.499 -0.6317 -0.4527 -0.6167
   90MOL    C6634064   7.702   5.989   1.365  0.4177 -0.4633 -0.2534
   90MOL    C6734065   7.759   5.808   1.128 -0.0510 -0.0845 -0.3932
   90MOL    H6834066   7.552   5.873   1.082 -0.4918 -2.8607  1.7982
   90MOL    H6934067   7.409   5.852   1.252 -0.5645 -1.5703  1.4516
   90MOL    H7034068   7.347   5.881   1.493  0.5839 -1.6893  1.2447
   90MOL    H7134069   7.432   5.894   1.712  0.2993 -2.9553 -3.3500
   90MOL    H7234070   7.610   5.962   1.748  1.7610  1.2054 -3.1260
   90MOL    H7334071   7.479   6.058   1.713 -0.6550 -1.3777  3.0463
   90MOL    H7434072   7.750   6.027   1.565  1.7546  0.5769 -3.9009
   90MOL    H7534073   7.802   6.016   1.336 -0.5301  0.1653 -3.1333
   90MOL    H7634074   7.734   5.731   1.201 -1.8421 -1.2518 -2.1673
   90MOL    H7734075   7.845   5.852   1.178  0.1533  0.2728 -1.0622
   90MOL    C7834076   7.803   5.758   0.995  0.4724 -0.2256  0.7469
   90MOL    C7934077   7.689   5.691   0.921  0.1954  0.3944  0.1115
   90MOL    C8034078   7.617   5.579   0.981 -0.3722  0.1812  0.1695
   90MOL    C8134079   7.505   5.523   0.907  0.2978  0.2042  0.2059
   90MOL    C8234080   7.461   5.588   0.790 -0.4583  0.1140  0.0485
   90MOL    C8334081   7.324   5.549   0.728 -0.3507 -0.5537 -0.0303
   90MOL    C8434082   7.540   5.689   0.728 -1.4211  0.0138  0.2133
   90MOL    C8534083   7.649   5.738   0.798  0.3045 -0.0937  0.3910
   90MOL    C8634084   7.934   5.667   0.991 -0.0025  0.4868 -0.3764
   90MOL    H8734085   7.834   5.846   0.939  0.4074 -1.2939 -1.0213
   90MOL    H8834086   7.658   5.531   1.068 -0.8410 -0.5346  0.0043
   90MOL    H8934087   7.451   5.439   0.948 -1.4128  0.9431 -0.4865
   90MOL    H9034088   7.327   5.496   0.633  0.1227  0.6116 -0.6666
   90MOL    H9134089   7.252   5.504   0.797 -1.2203  1.1062  0.1830
   90MOL    H9234090   7.284   5.647   0.702  0.3704 -0.0424  0.7295
   90MOL    H9334091   7.513   5.742   0.638  0.0528  1.4671  0.6156
   90MOL    H9434092   7.711   5.814   0.753 -1.6715  1.4299  0.2166
   90MOL    H9534093   7.900   5.569   1.026  2.5802 -0.8352 -1.3950
   90MOL    H9634094   8.017   5.699   1.054 -0.7170  1.0567  0.2747
   90MOL    C9734095   7.989   5.653   0.848 -0.2118 -0.3018 -0.0059
   90MOL    C9834096   8.049   5.515   0.816 -1.0144  0.3804 -0.1826
   90MOL    C9934097   7.982   5.439   0.718 -0.2328  0.3729 -0.3229
   90MOL   C10034098   8.034   5.309   0.690  0.4636  0.9450  0.0983
   90MOL   C10134099   0.070   5.268   0.758 -0.3077 -0.0491 -0.2656
   90MOL   C10234100   0.128   5.136   0.715 -0.7042  0.1428 -0.6688
   90MOL   C10334101   0.129   5.343   0.856  0.9506 -0.3577 -0.2404
   90MOL   C10434102   0.080   5.464   0.891  0.0860  0.0126 -0.7793
   90MOL   C10534103   0.023   5.758   0.809 -0.2825  0.5987  0.2370
   90MOL   H10634104   7.903   5.665   0.782 -0.5380  0.0938  0.4814
   90MOL   H10734105   7.889   5.469   0.672 -1.8167 -2.1493  1.1050
   90MOL   H10834106   7.993   5.247   0.612 -2.2491  0.3091  1.9382
   90MOL   H10934107   0.058   5.059   0.746  0.8148 -1.0484 -0.1429
   90MOL   H11034108   0.138   5.152   0.608 -1.2989  0.4002 -0.6882
   90MOL   H11134109   0.227   5.123   0.759 -0.4011  0.8403 -1.1309
   90MOL   H11234110   0.220   5.311   0.906 -0.2107  0.8489  2.7972
   90MOL   H11334111   0.097   5.515   0.984 -2.7032 -1.4428  0.5784
   90MOL   H11434112   0.082   5.730   0.721 -1.7323  0.1393 -0.6060
   90MOL   H11534113   0.090   5.749   0.895  1.8331  1.2025 -1.2811
   90MOL   C11634114   8.057   5.904   0.776  0.0261 -0.2478 -0.1477
   90MOL   C11734115   7.952   5.926   0.667  0.1300 -0.0895 -0.4799
   90MOL   C11834116   7.930   5.834   0.566  0.2619 -0.0847  0.2969
   90MOL   C11934117   7.824   5.845   0.467 -0.0693 -0.4804 -0.6222
   90MOL   C12034118   7.734   5.950   0.486  0.2286  0.1275 -0.3772
   90MOL   C12134119   7.611   5.971   0.398  0.2800  0.3456 -0.6442
   90MOL   C12234120   7.754   6.048   0.589 -0.2310 -0.1014  0.3235
   90MOL   C12334121   7.854   6.032   0.682 -0.0944 -0.1483  0.6852
   90MOL   C12434122   0.085   6.018   0.779  0.5934 -0.1151 -0.5366
   90MOL   H12534123   7.994   5.927   0.861  0.6697 -0.3677  0.3651
   90MOL   H12634124   7.995   5.749   0.558  0.2290 -0.1038  0.2277
   90MOL   H12734125   7.816   5.771   0.388 -0.8036  0.0461 -1.0483
   90MOL   H12834126   7.602   6.073   0.361 -2.1875 -0.4910 -2.5089
   90MOL   H12934127   7.603   5.903   0.313  0.4910  0.5471 -0.8251
   90MOL   H13034128   7.526   5.940   0.459 -1.2163  2.8835 -1.3659
   90MOL   H13134129   7.694   6.138   0.596  2.7014  1.8939  1.0253
   90MOL   H13234130   7.865   6.101   0.764 -2.4267  1.0201  0.0807
   90MOL   H13334131   0.032   6.113   0.792  2.4823  0.9788 -0.6325
   90MOL   H13434132   0.132   6.010   0.681 -1.6339 -0.1112 -1.6404
   90MOL   C13534133   0.206   6.020   0.882  0.7729  0.5894 -0.2468
   90MOL   C13634134   0.162   5.993   1.031 -0.0144  0.3994 -0.0646
   90MOL   C13734135   0.245   5.913   1.114 -0.6338 -0.6632  0.0842
   90MOL   C13834136   0.213   5.899   1.246  0.1977 -0.0935 -0.4604
   90MOL   C13934137   0.091   5.948   1.300  0.3858  0.8114  0.6241
   90MOL   C14034138   0.050   5.916   1.436  0.1946 -0.4224 -0.1723
   90MOL   C14134139   0.010   6.024   1.215  0.0419 -0.4551  0.3092
   90MOL   C14234140   0.044   6.050   1.084 -0.5554 -0.3984 -0.1118
   90MOL   C14334141   0.280   6.155   0.883  0.1976  0.7988 -0.1270
   90MOL   H14434142   0.267   5.934   0.856 -0.4255  0.1518 -1.6549
   90MOL   H14534143   0.341   5.879   1.078 -0.8188 -1.2938  0.1807
   90MOL   H14634144   0.275   5.835   1.307 -0.9510 -1.2290 -0.4646
   90MOL   H14734145   8.023   5.894   1.437  0.4971 -2.1004 -1.9031
   90MOL   H14834146   0.098   5.829   1.482 -0.3964 -0.6286  0.0688
   90MOL   H14934147   0.066   6.002   1.501 -0.3753  0.6632 -1.4448
   90MOL   H15034148   7.996   6.052   1.260 -1.6352 -0.5528 -3.0285
   90MOL   H15134149   8.064   6.116   1.024  2.2442  1.9140 -0.5158
   90MOL   H15234150   0.330   6.164   0.979  0.7704  2.4167 -0.5487
   90MOL   H15334151   0.207   6.234   0.903 -1.8136 -0.8320 -0.7866
   90MOL   C15434152   0.372   6.173   0.754 -0.3644  0.2295 -0.1771
   90MOL   C15534153   0.466   6.055   0.724 -0.7615 -0.4448 -0.5325
   90MOL   C15634154   0.550   6.006   0.829 -0.0811 -0.0274  0.7058
   90MOL   C15734155   0.636   5.900   0.808 -0.1011  0.3275  0.4769
   90MOL   C15834156   0.639   5.832   0.680 -0.2311 -0.3573  0.3912
   90MOL   C15934157   0.734   5.714   0.663  0.1946 -0.5785  0.1401
   90MOL   C16034158   0.562   5.881   0.579 -0.3742 -0.4841  0.0268
   90MOL   C16134159   0.470   5.987   0.597 -0.3216 -0.6114  0.4438
   90MOL   C16234160   0.452   6.304   0.752  0.0614 -0.2183 -0.4454
   90MOL   H16334161   0.306   6.179   0.668 -1.4218  0.5010  0.6412
   90MOL   H16434162   0.547   6.050   0.928 -2.2012  2.1326 -0.2881
   90MOL   H16534163   0.706   5.872   0.886  1.2588  1.6671 -0.2348
   90MOL   H16634164   0.801   5.707   0.749  0.7181  2.5604  0.0511
   90MOL   H16734165   0.677   5.623   0.644  0.4457 -0.6431 -0.2961
   90MOL   H16834166   0.788   5.737   0.572  0.4999  1.0624  0.7249
   90MOL   H16934167   0.577   5.842   0.479  3.9419  0.6395  0.1201
   90MOL   H17034168   0.403   6.014   0.517  0.6953 -0.2422 -0.2913
   90MOL   H17134169   0.547   6.284   0.802 -0.1240 -0.2011 -0.0811
   90MOL   H17234170   0.397   6.375   0.813  0.5926 -0.4424  0.2956
   90MOL   C17334171   0.471   6.366   0.611 -0.1547  0.4973  0.5099
   90MOL   C17434172   0.612   6.394   0.577 -0.0537 -0.5136  0.5684
   90MOL   C17534173   0.666   6.328   0.464 -0.0842 -0.5600 -0.7847
   90MOL   C17634174   0.799   6.352   0.425  0.1264  0.0276  0.2527
   90MOL   C17734175   0.884   6.425   0.510 -0.6027 -0.2168 -0.2819
   90MOL   C17834176   1.029   6.445   0.480 -0.4221  0.0750  0.3995
   90MOL   C17934177   0.838   6.489   0.627 -0.1649  0.8933 -0.3820
   90MOL   C18034178   0.701   6.476   0.657  0.2822  0.0409  0.1521
   90MOL   C18134179   0.382   6.495   0.586  0.4751 -0.1595 -0.3954
   90MOL   H18234180   0.438   6.297   0.533 -0.4598 -0.4929  1.5002
   90MOL   H18334181   0.610   6.263   0.399  2.0207 -0.7173 -2.4914
   90MOL   H18434182   0.831   6.305   0.333 -1.4807 -0.3919 -0.1196
   90MOL   H18534183   1.038   6.415   0.375 -1.0652  0.1650  0.3161
   90MOL   H18634184   1.063   6.546   0.500 -1.1492 -0.0925  2.6034
   90MOL   H18734185   1.080   6.370   0.540 -1.0623 -0.4008  0.3627
   90MOL   H18834186   0.908   6.537   0.694  0.4845 -1.8535  1.0006
   90MOL   H18934187   0.669   6.527   0.747  1.9423 -0.3195  0.9557
   90MOL   H19034188   0.409   6.545   0.493  1.6494 -1.0872 -0.5622
   90MOL   H19134189   0.413   6.562   0.666  1.8053 -1.0010 -0.1879
   90MOL   C19234190   0.231   6.477   0.591 -0.5588  0.0120 -0.6062
   90MOL   C19334191   0.170   6.381   0.494 -0.3579  0.4342  0.7112
   90MOL   C19434192   0.190   6.391   0.355  0.6486  0.0857  0.1750
   90MOL   C19534193   0.120   6.304   0.276 -0.2033  0.7207  0.6747
   90MOL   C19634194   0.065   6.186   0.327  0.3819  0.1255  0.6542
   90MOL   C19734195   0.023   6.074   0.235 -0.7471  0.2847  0.2696
   90MOL   C19834196   0.039   6.181   0.458 -0.0478  0.2299 -0.6900
   90MOL   C19934197   0.085   6.276   0.540  0.7938 -1.0166  0.4830
   90MOL   C20034198   0.161   6.608   0.597  0.6406 -0.7531 -1.0964
   90MOL   H20134199   0.198   6.425   0.681  2.7380 -1.5873 -0.2266
   90MOL   H20234200   0.255   6.465   0.311  0.8110  1.1394  2.1216
   90MOL   H20334201   0.129   6.317   0.169  0.5257 -1.5729  0.4161
   90MOL   H20434202   0.101   6.044   0.165  0.4698 -3.2446  3.0055
   90MOL   H20534203   8.075   5.986   0.292  2.1356 -1.7392 -1.3316
   90MOL   H20634204   8.016   6.109   0.179 -0.0939  0.4419 -0.6664
   90MOL   H20734205   8.055   6.102   0.497 -0.1959  1.0322  0.7472
   90MOL   H20834206   0.056   6.273   0.644 -1.3116 -0.3765 -0.0616
   90MOL   H20934207   0.054   6.593   0.582  0.3418  0.2500 -0.0894
   90MOL   H21034208   0.188   6.672   0.513  2.7363  0.7798  0.6952
   90MOL   C21134209   0.181   6.694   0.727 -0.9881  0.1337 -0.7576
   90MOL   C21234210   0.136   6.618   0.858 -0.3115 -0.4921  1.3434
   90MOL   C21334211   0.007   6.559   0.861 -0.0947 -0.2237 -0.4608
   90MOL   C21434212   8.053   6.490   0.978 -0.1037  0.3709 -0.1722
   90MOL   C21534213   0.060   6.475   1.084  0.1183  0.1060  0.6447
   90MOL   C21634214   0.020   6.408   1.216  0.2004  0.1418 -0.5433
   90MOL   C21734215   0.187   6.536   1.079 -0.6279 -0.0281  0.0320
   90MOL   C21834216   0.232   6.601   0.964  0.2222  0.7705  0.1934
   90MOL   C21934217   0.108   6.836   0.728  0.4143  0.4157 -0.1093
   90MOL   H22034218   0.289   6.704   0.733 -1.0844  1.1377 -0.6660
   90MOL   H22134219   8.028   6.555   0.771 -0.2671 -1.8175 -0.2935
   90MOL   H22234220   7.956   6.444   0.989  0.2373 -0.7189 -1.5823
   90MOL   H22334221   8.005   6.452   1.246  0.9045  1.4461 -0.1689
   90MOL   H22434222   0.002   6.303   1.194  1.4259  0.1502 -1.6941
   90MOL   H22534223   0.099   6.422   1.290  0.4745  0.5565 -0.9084
   90MOL   H22634224   0.251   6.513   1.163  1.4786 -0.1532 -1.5482
   90MOL   H22734225   0.331   6.643   0.962  0.9530 -0.8735  0.9611
   90MOL   H22834226   0.076   6.864   0.828  0.2113  2.5670 -0.7658
   90MOL   H22934227   0.022   6.823   0.662  0.8683  0.1650 -0.6615
   90MOL   C23034228   0.196   6.943   0.667  0.4781  0.1919 -0.2383
   90MOL   C23134229   0.320   6.961   0.748  0.1564  0.1632 -0.9106
   90MOL   C23234230   0.316   6.985   0.885 -0.4606 -0.6098 -0.5334
   90MOL   C23334231   0.440   6.982   0.958 -0.2119  0.0497 -0.3235
   90MOL   C23434232   0.563   6.972   0.888  0.8969  1.1126  0.5427
   90MOL   C23534233   0.692   6.974   0.966 -0.0308  0.1316 -0.1090
   90MOL   C23634234   0.562   6.965   0.748 -0.0346  0.0922  0.1193
   90MOL   C23734235   0.443   6.951   0.679 -0.2834  0.2372  0.1063
   90MOL   C23834236   0.131   7.083   0.641  0.8758  0.0670  0.2938
   90MOL   H23934237   0.227   6.910   0.567 -0.0943  0.5760 -0.5448
   90MOL   H24034238   0.221   6.992   0.936  0.0671  0.5525  0.3096
   90MOL   H24134239   0.438   6.989   1.066 -0.8242  0.1252 -0.3374
   90MOL   H24234240   0.751   7.065   0.963  0.6333 -0.3225 -1.3559
   90MOL   H24334241   0.668   6.954   1.070 -0.4316 -0.5125 -0.3193
   90MOL   H24434242   0.754   6.891   0.930  0.1778  1.8842 -4.0867
   90MOL   H24534243   0.650   6.952   0.686 -1.4979  1.7686 -2.3556
   90MOL   H24634244   0.449   6.923   0.575 -1.5399  0.7099 -0.0948
   90MOL   H24734245   0.217   7.148   0.621  1.0725 -0.5113 -0.7946
   90MOL   H24834246   0.080   7.111   0.733 -1.0644  1.5696 -1.1959
   90MOL   C24934247   0.013   7.091   0.538 -0.1074  0.4647  1.0253
   90MOL   C25034248   0.047   7.048   0.394  0.2227 -0.2364  0.1507
   90MOL   C25134249   0.118   7.137   0.313  0.1979  0.4716 -0.5292
   90MOL   C25234250   0.140   7.103   0.175 -0.1486  0.7496 -0.1803
   90MOL   C25334251   0.099   6.976   0.117  0.0348  0.2716  0.3899
   90MOL   C25434252   0.129   6.955   8.047  0.3679 -0.0090 -0.2639
   90MOL   C25534253   0.023   6.891   0.201  0.7444  0.0462 -0.1161
   90MOL   C25634254   8.072   6.933   0.333 -0.4420 -0.2412  0.2275
   90MOL   C25734255   8.015   7.217   0.557 -0.3118 -0.1319 -0.1399
   90MOL   H25834256   8.024   7.018   0.581 -0.9262 -0.3763 -1.6426
   90MOL   H25934257   0.163   7.229   0.348 -0.8179  2.5709 -4.4019
   90MOL   H26034258   0.201   7.162   0.109  0.5639  3.1999  2.5693
   90MOL   H26134259   0.045   6.901   8.002  1.0330 -0.0770 -1.4500
   90MOL   H26234260   0.115   7.047   7.989 -2.0689 -2.5432 -3.8768
   90MOL   H26334261   0.229   6.922   8.019 -0.0546 -0.5431 -1.1785
   90MOL   H26434262   8.076   6.791   0.169  2.2358 -0.9607  1.6809
   90MOL   H26534263   8.021   6.862   0.395  0.1414 -2.1920 -1.4813
   90MOL   H26634264   0.005   7.288   0.513  2.1083 -2.6655 -0.4811
   90MOL   H26734265   7.984   7.240   0.659  0.5970  0.3223  0.0376
   90MOL   C26834266   7.879   7.226   0.485 -0.1707 -0.2887 -0.4738
   90MOL   C26934267   7.876   7.347   0.401 -0.4382  0.0068 -0.6962
   90MOL   C27034268   7.887   7.481   0.453  0.1424  0.1758  0.5648
   90MOL   C27134269   7.895   7.594   0.369 -1.0049  0.7112  0.0086
   90MOL   C27234270   7.896   7.576   0.229  0.1962 -0.2719 -0.3290
   90MOL   C27334271   7.896   7.695   0.141 -0.2295 -0.1353 -0.0307
   90MOL   C27434272   7.889   7.447   0.174  0.4277  0.3890  0.2956
   90MOL   C27534273   7.879   7.337   0.264 -0.1965  0.1890 -0.3030
   90MOL   C27634274   7.754   7.214   0.567  0.5819 -0.5567  0.3669
   90MOL   H27734275   7.870   7.143   0.414  0.6780 -0.6130 -0.2166
   90MOL   H27834276   7.881   7.511   0.557 -3.4603 -1.0908  0.7956
   90MOL   H27934277   7.884   7.692   0.412  3.8199  0.9414  1.0084
   90MOL   H28034278   7.822   7.684   0.062 -1.3547 -0.5442  1.0618
   90MOL   H28134279   7.866   7.782   0.200  1.3777  1.5463 -1.6416
   90MOL   H28234280   8.001   7.696   0.112  0.2190  0.2102  1.5508
   90MOL   H28334281   7.908   7.435   0.068  0.8673 -1.0138  0.5146
   90MOL   H28434282   7.886   7.238   0.220 -0.5357 -0.1785  0.4741
   90MOL   H28534283   7.673   7.227   0.495  1.0929 -0.6316 -0.2289
   90MOL   H28634284   7.756   7.301   0.632  2.1468  0.6575 -1.2561
   90MOL   C28734285   7.735   7.081   0.653 -0.3093 -0.3586  0.1618
   90MOL   C28834286   7.676   6.972   0.568  0.3511 -0.2627 -0.5274
   90MOL   C28934287   7.741   6.853   0.531 -0.3642 -0.2998  0.3705
   90MOL   C29034288   7.673   6.754   0.462 -0.7045  0.1078 -0.4428
   90MOL   C29134289   7.537   6.776   0.424 -0.0129  0.0817  0.3640
   90MOL   C29234290   7.468   6.673   0.331  0.0145  0.0369  0.1630
   90MOL   C29334291   7.481   6.901   0.440  0.5182  0.6239  0.1673
   90MOL   C29434292   7.546   6.995   0.514 -0.1456  0.6036 -0.6285
   90MOL   C29534293   7.649   7.106   0.776 -0.1218 -0.3098  0.2187
   90MOL   H29634294   7.834   7.051   0.689  0.7231 -0.3812 -2.5441
   90MOL   H29734295   7.840   6.825   0.562 -0.9447 -2.9253 -0.0522
   90MOL   H29834296   7.720   6.658   0.442 -1.1314  0.2419 -2.1704
   90MOL   H29934297   7.363   6.662   0.361 -0.2727 -1.2001 -1.2483
   90MOL   H30034298   7.465   6.691   0.224  2.3953  0.2238  0.1038
   90MOL   H30134299   7.505   6.573   0.355  0.6056  0.7990  2.6420
   90MOL   H30234300   7.383   6.913   0.397 -0.4994  1.0771  2.5498
   90MOL   H30334301   7.488   7.085   0.527 -0.6127  0.5763 -2.3268
   90MOL   H30434302   7.609   7.012   0.815 -1.7186  1.3885  2.8138
   90MOL   H30534303   7.568   7.172   0.749  0.5451  2.3862  4.2868
   90MOL   C30634304   7.729   7.179   0.889  0.3905  0.4070  0.7181
   90MOL   C30734305   7.836   7.101   0.961 -0.9655  0.0511 -0.1997
   90MOL   C30834306   7.821   6.967   0.998  0.0203 -0.4829  0.5189
   90MOL   C30934307   7.929   6.897   1.054 -0.1601  0.8864  0.1638
   90MOL   C31034308   8.045   6.964   1.090 -0.1405 -0.1311 -0.1659
   90MOL   C31134309   0.069   6.887   1.170 -0.1146  0.0598  0.1149
   90MOL   C31234310   8.063   7.100   1.052 -0.4751  0.1799 -0.1266
   90MOL   C31334311   7.956   7.167   0.986 -0.4899  0.3922 -0.3616
   90MOL   C31434312   7.641   7.254   0.987  0.6383 -0.1613  0.6434
   90MOL   H31534313   7.780   7.258   0.834 -1.5224 -0.8889 -3.1022
   90MOL   H31634314   7.733   6.908   0.977 -0.9642  0.3674  2.1748
   90MOL   H31734315   7.917   6.796   1.091  0.2808  0.3504 -1.1409
   90MOL   H31834316   0.018   6.815   1.233  1.1669  0.1117  1.2413
   90MOL   H31934317   0.146   6.842   1.107 -0.6295 -0.2252 -0.3069
   90MOL   H32034318   0.133   6.949   1.233  0.5329 -0.9230  0.4354
   90MOL   H32134319   0.073   7.158   1.069  0.1739 -0.7256 -0.4217
   90MOL   H32234320   7.973   7.271   0.966  2.3421  0.1469  0.5098
   90MOL   H32334321   7.700   7.263   1.079  2.3015 -0.6238 -0.3651
   90MOL   H32434322   7.559   7.186   1.009 -1.1948  0.8764 -2.6922
   90MOL   C32534323   7.593   7.396   0.941  0.3725 -0.2588  0.1731
   90MOL   C32634324   7.703   7.496   0.912 -0.6854 -0.5304  0.1241
   90MOL   C32734325   7.712   7.562   0.787 -0.0749  0.0643  0.3542
   90MOL   C32834326   7.812   7.654   0.761  0.8416  0.7955 -0.0165
   90MOL   C32934327   7.894   7.695   0.866 -0.3140 -0.2152 -0.2272
   90MOL   C33034328   7.995   7.806   0.835 -1.3933  0.4596 -0.8867
   90MOL   C33134329   7.893   7.642   0.994 -0.7373 -0.0893 -0.1542
   90MOL   C33234330   7.798   7.539   1.010 -0.1499  0.1834  0.4557
   90MOL   C33334331   7.490   7.445   1.039  0.3308  0.0038 -0.5487
   90MOL   H33434332   7.545   7.378   0.845  2.1999  1.2603 -1.0702
   90MOL   H33534333   7.641   7.531   0.712 -0.7673 -0.6250  1.2893
   90MOL   H33634334   7.833   7.704   0.668  1.9094 -0.1574 -0.2989
   90MOL   H33734335   7.979   7.887   0.907  1.6797  0.4907 -0.1869
   90MOL   H33834336   0.015   7.765   0.829 -2.1231 -1.2904 -1.6408
   90MOL   H33934337   7.979   7.842   0.733  1.2664 -0.7342 -1.7489
   90MOL   H34034338   7.968   7.668   1.067 -1.2078 -0.7517  0.5764
   90MOL   H34134339   7.809   7.484   1.103 -1.0538 -0.5627  0.1331
   90MOL   H34234340   7.473   7.553   1.042  2.0180  0.2647 -0.2778
   90MOL   H34334341   7.513   7.431   1.144  0.7287  0.4061 -0.5812
   90MOL   C34434342   7.350   7.383   1.006 -0.4597 -0.1612 -0.2269
   90MOL   C34534343   7.292   7.425   0.875 -0.2701 -0.0032 -0.8891
   90MOL   C34634344   7.278   7.328   0.773 -0.2429 -0.3404  0.5391
   90MOL   C34734345   7.231   7.364   0.646 -0.8494 -0.2780 -0.0014
   90MOL   C34834346   7.194   7.499   0.621  0.1463  0.1793  0.0918
   90MOL   C34934347   7.128   7.547   0.490  0.0809  1.0026 -0.3305
   90MOL   C35034348   7.207   7.598   0.723  0.1476 -0.3128 -0.1637
   90MOL   C35134349   7.251   7.559   0.853 -0.4229  0.1419 -0.5677
   90MOL   C35234350   7.242   7.406   1.114 -0.4412 -0.2672 -0.5621
   90MOL   H35334351   7.354   7.275   0.997  0.4814 -0.4984  3.5486
   90MOL   H35434352   7.304   7.223   0.775 -1.7181 -0.7067  3.8948
   90MOL   H35534353   7.233   7.286   0.571 -3.2120 -0.6662  0.2978
   90MOL   H35634354   7.036   7.597   0.518 -0.6041 -0.1354 -0.5082
   90MOL   H35734355   7.193   7.613   0.432  2.6572 -2.1518 -1.1782
   90MOL   H35834356   7.106   7.465   0.422  0.1796  1.3483 -0.7836
   90MOL   H35934357   7.164   7.694   0.702 -1.5801 -0.8889  0.7057
   90MOL   H36034358   7.252   7.638   0.926  1.6162 -0.4154  0.0324
   90MOL   H36134359   7.145   7.376   1.073 -0.3068 -1.4644 -0.0005
   90MOL   H36234360   7.239   7.511   1.144  2.4191 -0.3544  0.1688
   90MOL   C36334361   7.254   7.326   1.243  0.5188 -0.1411  0.0699
   90MOL   C36434362   7.282   7.181   1.221 -0.0918  0.6643 -0.3965
   90MOL   C36534363   7.200   7.106   1.128  0.6617 -0.2899  0.0660
   90MOL   C36634364   7.243   6.983   1.081 -0.3696 -0.2627  0.8639
   90MOL   C36734365   7.352   6.918   1.143  0.6075 -0.2955  0.3453
   90MOL   C36834366   7.410   6.797   1.078 -0.8244 -0.4327  0.1049
   90MOL   C36934367   7.424   6.982   1.245 -0.1461 -1.0121  0.3148
   90MOL   C37034368   7.396   7.118   1.276  0.4592 -0.0455  0.0249
   90MOL   C37134369   7.144   7.344   1.347  0.3334  0.2673 -0.9298
   90MOL   H37234370   7.343   7.360   1.295  0.5009 -0.0148  0.0174
   90MOL   H37334371   7.114   7.148   1.077  2.2168 -0.4966 -2.8197
   90MOL   H37434372   7.195   6.940   0.994  0.4097  0.5451  0.0131
   90MOL   H37534373   7.453   6.845   0.990  0.5523  2.0209  2.0450
   90MOL   H37634374   7.491   6.761   1.140  0.1157  1.8984  0.2511
   90MOL   H37734375   7.333   6.728   1.042  0.1277 -1.0119 -0.8442
   90MOL   H37834376   7.505   6.939   1.302 -0.2969 -0.8920  0.6174
   90MOL   H37934377   7.456   7.171   1.349  0.4090 -1.8419  1.3984
   90MOL   H38034378   7.167   7.308   1.447 -0.0472 -1.2570 -1.3840
   90MOL   H38134379   7.046   7.298   1.335 -0.5324  1.5826  0.8387
   90MOL   H38234380   7.125   7.451   1.358 -3.2761 -0.4606  0.8078
   91MOL     C134381   4.685   3.300   6.917  0.1208 -0.2851 -0.3402
   91MOL     C234382   4.604   3.186   6.970 -0.6334 -0.4115 -0.8375
   91MOL     C334383   4.465   3.197   6.974 -0.4536  0.0712 -0.3096
   91MOL     C434384   4.391   3.099   7.034  0.0282  0.7121  0.1657
   91MOL     C534385   4.452   2.991   7.105 -0.5072  0.6157 -0.5412
   91MOL     C634386   4.369   2.897   7.192 -0.2198 -0.5171 -0.5745
   91MOL     C734387   4.589   2.976   7.095 -0.4286 -0.1448 -0.1674
   91MOL     C834388   4.668   3.070   7.026 -0.1789 -0.2530 -0.3993
   91MOL     C934389   4.663   3.311   6.764 -0.5608 -0.0726  0.1330
   91MOL    H1034390   4.650   3.391   6.966 -1.1571 -1.4561  0.9753
   91MOL    H1134391   4.410   3.284   6.942  1.0464  1.0610 -0.2634
   91MOL    H1234392   4.290   3.126   7.062 -0.5438 -2.2362  1.0521
   91MOL    H1334393   4.353   2.923   7.297  1.6683 -0.8795 -0.1725
   91MOL    H1434394   4.276   2.884   7.137  0.0721 -3.1297 -0.5236
   91MOL    H1534395   4.421   2.800   7.192  3.2450  1.2348  1.3919
   91MOL    H1634396   4.629   2.883   7.132 -1.8338 -0.3316  0.9505
   91MOL    H1734397   4.775   3.055   7.019 -0.0730  0.3821 -0.1263
   91MOL    H1834398   4.559   3.335   6.743 -0.3037  0.5954 -0.4049
   91MOL    H1934399   4.694   3.220   6.714 -1.8303 -1.0484  1.1101
   91MOL    H2034400   4.791   3.288   6.939  0.5775  0.5607 -1.9782
   91MOL    C2134401   4.750   3.425   6.709 -0.4047 -0.2101  0.4740
   91MOL    C2234402   4.706   3.560   6.769 -0.1835 -0.2678 -0.4167
   91MOL    C2334403   4.791   3.618   6.868  0.1734  0.5342 -0.2716
   91MOL    C2434404   4.760   3.749   6.920 -0.0878 -0.0049 -0.3109
   91MOL    C2534405   4.649   3.819   6.870  0.2122 -0.0607  0.0310
   91MOL    C2634406   4.615   3.960   6.917  0.0578  0.1884  0.0984
   91MOL    C2734407   4.564   3.761   6.769 -0.2124 -0.8538  0.5976
   91MOL    C2834408   4.596   3.633   6.723 -0.4527  0.4755 -0.4458
   91MOL    C2934409   4.749   3.421   6.554  0.4373  0.4918 -0.1679
   91MOL    H3034410   4.854   3.401   6.735  0.3554  1.3200 -1.0787
   91MOL    H3134411   4.871   3.562   6.913  0.6592  1.6445  0.2674
   91MOL    H3234412   4.815   3.786   7.006  1.5056  0.0810 -1.3448
   91MOL    H3334413   4.574   4.020   6.835 -0.1508 -0.7575 -0.4948
   91MOL    H3434414   4.547   3.954   7.002  0.1037 -0.3331  0.0990
   91MOL    H3534415   4.704   4.014   6.949  0.5262 -1.1968  1.1729
   91MOL    H3634416   4.470   3.807   6.741  0.7853  1.1252  0.4089
   91MOL    H3734417   4.535   3.585   6.647  1.0008 -1.1660 -0.6064
   91MOL    H3834418   4.646   3.432   6.521  0.8292  1.2091 -1.1879
   91MOL    H3934419   4.782   3.322   6.523 -0.7155  0.4447 -1.2656
   91MOL    C4034420   4.831   3.533   6.490  0.5048 -0.2892  0.5454
   91MOL    C4134421   4.800   3.528   6.342  0.6654 -0.6114  0.2780
   91MOL    C4234422   4.854   3.429   6.257 -0.5839  0.5250  0.1567
   91MOL    C4334423   4.827   3.440   6.120 -0.0575 -0.5704  0.1744
   91MOL    C4434424   4.755   3.551   6.060  0.4469 -1.1311  0.9942
   91MOL    C4534425   4.747   3.554   5.908 -0.0390  0.2184  0.3869
   91MOL    C4634426   4.699   3.650   6.140 -0.9272 -0.0133  0.5091
   91MOL    C4734427   4.719   3.634   6.282  0.1741 -0.8413 -0.1425
   91MOL    C4834428   4.976   3.529   6.527 -0.7139 -0.4132 -0.2815
   91MOL    H4934429   4.796   3.629   6.529  0.8781  0.5340 -1.1004
   91MOL    H5034430   4.916   3.345   6.286 -1.0419 -0.1780 -0.8361
   91MOL    H5134431   4.886   3.384   6.049  0.6788  4.2425 -3.2888
   91MOL    H5234432   4.667   3.484   5.883  0.7786 -0.6879  0.2775
   91MOL    H5334433   4.723   3.654   5.872 -1.6980 -1.0802 -2.2640
   91MOL    H5434434   4.839   3.527   5.858  0.2375 -0.7914  1.4181
   91MOL    H5534435   4.644   3.735   6.101  1.6623  0.9792 -1.0708
   91MOL    H5634436   4.682   3.712   6.346  0.5315 -1.0646  0.3341
   91MOL    H5734437   5.014   3.438   6.482 -2.1091 -0.0181 -2.3032
   91MOL    H5834438   4.985   3.530   6.636  0.2216 -1.6796 -0.3378
   91MOL    C5934439   5.071   3.645   6.481  0.0002 -0.1616  0.0199
   91MOL    C6034440   5.215   3.596   6.493 -0.1449  0.3541  0.0250
   91MOL    C6134441   5.288   3.580   6.377 -0.5455 -0.2081 -0.1255
   91MOL    C6234442   5.428   3.545   6.382  0.4594 -0.4114 -0.1106
   91MOL    C6334443   5.492   3.533   6.505  0.3076  0.3702  0.5380
   91MOL    C6434444   5.639   3.507   6.504  0.3356 -0.2512  0.4831
   91MOL    C6534445   5.416   3.547   6.624  0.4800 -0.2479  0.7057
   91MOL    C6634446   5.277   3.584   6.615 -0.4975 -0.3551 -0.2547
   91MOL    C6734447   5.057   3.786   6.558 -0.3389 -0.2669  1.0505
   91MOL    H6834448   5.041   3.663   6.378 -1.7370 -2.9034 -0.0124
   91MOL    H6934449   5.242   3.589   6.280  0.1622 -1.1024 -0.5582
   91MOL    H7034450   5.485   3.532   6.291  1.4877  0.4120  0.3951
   91MOL    H7134451   5.667   3.443   6.421 -0.0730  1.6927 -1.1822
   91MOL    H7234452   5.699   3.597   6.495 -0.8140  0.6721  1.9286
   91MOL    H7334453   5.676   3.455   6.593  1.6630 -2.4719 -1.2874
   91MOL    H7434454   5.454   3.538   6.725  0.3471  0.6459  0.8367
   91MOL    H7534455   5.214   3.597   6.702 -2.7378 -1.5235 -1.6487
   91MOL    H7634456   5.160   3.814   6.583  0.2771 -1.7194  0.2766
   91MOL    H7734457   5.014   3.761   6.655 -0.9571 -0.0119  0.8437
   91MOL    C7834458   4.976   3.902   6.486 -0.6294  0.4441 -0.1335
   91MOL    C7934459   5.041   3.941   6.351  0.3600  0.4562  0.5983
   91MOL    C8034460   5.179   3.958   6.347  0.0874  0.2140  0.1310
   91MOL    C8134461   5.244   3.988   6.225 -0.9574 -0.0065  0.2872
   91MOL    C8234462   5.168   3.997   6.104  0.0184 -0.2261  0.7093
   91MOL    C8334463   5.240   4.041   5.982  0.1562  0.5721  0.0228
   91MOL    C8434464   5.028   3.971   6.106  0.4345 -1.3148  0.3518
   91MOL    C8534465   4.968   3.936   6.226  0.1686  0.5511 -0.6361
   91MOL    C8634466   4.943   4.023   6.572 -0.0075 -0.1505 -0.0649
   91MOL    H8734467   4.880   3.853   6.469 -0.9573  0.7705  0.7336
   91MOL    H8834468   5.240   3.957   6.436  1.6241  0.7762 -0.8905
   91MOL    H8934469   5.349   4.014   6.228 -0.0899 -3.3375  0.9639
   91MOL    H9034470   5.333   4.090   6.011 -0.5983  1.9889  0.0951
   91MOL    H9134471   5.262   3.956   5.918  0.4397  1.2750 -0.8116
   91MOL    H9234472   5.180   4.106   5.919  0.1918 -0.7983 -1.4543
   91MOL    H9334473   4.977   3.946   6.014 -1.3477 -0.8049  1.1764
   91MOL    H9434474   4.870   3.890   6.228  0.8721 -0.9721 -0.0655
   91MOL    H9534475   5.031   4.086   6.583 -0.1122  0.1163 -0.7135
   91MOL    H9634476   4.924   3.990   6.674  0.8266 -0.7193 -0.0898
   91MOL    C9734477   4.829   4.111   6.526 -0.3818 -0.0179  0.0857
   91MOL    C9834478   4.837   4.254   6.586  0.4769 -0.0752 -0.1801
   91MOL    C9934479   4.840   4.371   6.505 -0.0085  0.9603  0.1205
   91MOL   C10034480   4.858   4.498   6.558  0.7306  0.2590  0.4825
   91MOL   C10134481   4.878   4.520   6.698  0.4619 -0.2460 -0.5775
   91MOL   C10234482   4.909   4.660   6.765  0.6100  0.4757 -0.0782
   91MOL   C10334483   4.871   4.406   6.785  0.1180 -0.2009  0.3128
   91MOL   C10434484   4.847   4.277   6.726  0.5568  0.7289  0.1511
   91MOL   C10534485   4.689   4.044   6.565 -0.3731 -0.3223 -0.2241
   91MOL   H10634486   4.838   4.128   6.419  2.0826  1.4960  0.4987
   91MOL   H10734487   4.839   4.363   6.397  2.0011 -0.9089  0.1938
   91MOL   H10834488   4.845   4.588   6.499 -0.5475 -1.0750 -1.3172
   91MOL   H10934489   4.955   4.727   6.692 -0.0971 -0.3024 -1.2633
   91MOL   H11034490   4.817   4.698   6.810 -1.0157 -1.2500 -1.8185
   91MOL   H11134491   4.985   4.646   6.841  0.6827 -0.2694 -0.2766
   91MOL   H11234492   4.874   4.412   6.893  1.3359  0.1623  0.2655
   91MOL   H11334493   4.827   4.195   6.793 -0.5119  0.3319 -0.6424
   91MOL   H11434494   4.655   4.082   6.661  1.1099  1.5849 -0.4343
   91MOL   H11534495   4.692   3.935   6.574  0.4860 -0.2674  0.1341
   91MOL   C11634496   4.575   4.078   6.463 -1.0148  0.5273 -0.3668
   91MOL   C11734497   4.445   4.038   6.521  0.6022 -0.8198 -0.7599
   91MOL   C11834498   4.394   3.909   6.498  0.2575 -0.2465 -1.0780
   91MOL   C11934499   4.263   3.874   6.533 -0.5437  0.0689  0.2375
   91MOL   C12034500   4.192   3.956   6.628  0.1870  0.4002  0.1746
   91MOL   C12134501   4.061   3.904   6.680 -0.2063  0.2368  0.2519
   91MOL   C12234502   4.250   4.081   6.672 -0.0962  0.2518 -0.0948
   91MOL   C12334503   4.370   4.123   6.609  1.0936 -0.2764 -0.1345
   91MOL   C12434504   4.580   4.038   6.312  0.2668  0.7940  0.6157
   91MOL   H12534505   4.568   4.187   6.459  0.3207  0.5942 -1.2816
   91MOL   H12634506   4.445   3.832   6.442 -1.3452 -1.9890 -0.1852
   91MOL   H12734507   4.230   3.776   6.504 -1.8459  1.1508 -2.1702
   91MOL   H12834508   4.073   3.809   6.733  0.0894  0.3356  0.3632
   91MOL   H12934509   4.033   3.985   6.747 -4.3154 -2.4303  1.9522
   91MOL   H13034510   3.988   3.909   6.599  1.5041  0.5829 -1.3127
   91MOL   H13134511   4.209   4.151   6.743 -2.8151 -1.5260  0.1847
   91MOL   H13234512   4.397   4.226   6.627  2.0578 -0.2842 -1.4410
   91MOL   H13334513   4.585   3.930   6.302 -3.0142  0.7700 -1.3674
   91MOL   H13434514   4.670   4.081   6.268  0.1799  1.5014  1.1245
   91MOL   C13534515   4.458   4.093   6.222  0.3532  0.7864  0.4497
   91MOL   C13634516   4.477   4.039   6.085 -0.2409  0.0183  0.2928
   91MOL   C13734517   4.600   4.056   6.011 -0.4156  0.0202  0.8737
   91MOL   C13834518   4.621   3.997   5.887  0.3171  0.0052 -0.5625
   91MOL   C13934519   4.519   3.927   5.832  0.7210 -0.0426  0.3661
   91MOL   C14034520   4.546   3.869   5.693 -0.0312 -0.0948 -0.1518
   91MOL   C14134521   4.390   3.921   5.894 -0.6282 -0.4417 -0.6963
   91MOL   C14234522   4.370   3.977   6.016 -0.0811 -0.5327 -0.4602
   91MOL   C14334523   4.436   4.242   6.222 -0.6250 -0.2458  0.4707
   91MOL   H14434524   4.369   4.038   6.255 -0.0388  0.5307 -1.0296
   91MOL   H14534525   4.683   4.107   6.057  1.6077 -0.1700 -2.4090
   91MOL   H14634526   4.713   4.019   5.835  0.8170 -0.1332  0.2621
   91MOL   H14734527   4.636   3.807   5.688 -0.4018 -0.7134  0.6098
   91MOL   H14834528   4.461   3.809   5.661  1.2238 -1.7884 -0.3993
   91MOL   H14934529   4.561   3.951   5.623 -0.2483 -1.1022 -1.3989
   91MOL   H15034530   4.302   3.873   5.852 -0.7319  0.5533 -1.6601
   91MOL   H15134531   4.274   3.972   6.066 -0.3998 -2.0892 -1.1890
   91MOL   H15234532   4.437   4.277   6.118 -0.9601  0.8736  0.8388
   91MOL   H15334533   4.526   4.289   6.262  0.2178  0.3364 -2.0271
   91MOL   C15434534   4.306   4.288   6.282  0.4503 -0.0383 -0.3217
   91MOL   C15534535   4.185   4.214   6.229  0.1269  0.5071 -0.4021
   91MOL   C15634536   4.114   4.119   6.310  0.3231 -0.3115 -0.0678
   91MOL   C15734537   4.011   4.040   6.254  0.2776  0.2483 -0.1221
   91MOL   C15834538   3.976   4.055   6.121  0.6795  1.0202  0.4732
   91MOL   C15934539   3.857   3.973   6.073  0.2409  0.2245  1.3544
   91MOL   C16034540   4.045   4.143   6.035  0.5181 -0.0565  0.7752
   91MOL   C16134541   4.153   4.221   6.087 -0.0307 -0.0131 -0.3094
   91MOL   C16234542   4.274   4.437   6.268 -0.2537  0.2196 -0.4923
   91MOL   H16334543   4.300   4.265   6.388  0.3198  1.8186  0.0886
   91MOL   H16434544   4.145   4.120   6.413 -0.3133 -0.4641  0.1240
   91MOL   H16534545   3.958   3.969   6.315  1.9651 -0.7630  0.2060
   91MOL   H16634546   3.872   3.946   5.969 -0.2974 -0.2156  1.3859
   91MOL   H16734547   3.844   3.875   6.120  0.2401 -0.8379 -0.7988
   91MOL   H16834548   3.769   4.038   6.073 -0.0134 -0.1093  2.6920
   91MOL   H16934549   4.022   4.154   5.930  0.1327  3.3225  1.1526
   91MOL   H17034550   4.212   4.284   6.022  0.8893 -1.8704 -1.3159
   91MOL   H17134551   4.175   4.455   6.309  0.3251  1.5854  0.3235
   91MOL   H17234552   4.274   4.465   6.163 -3.1680  1.9272 -0.0737
   91MOL   C17334553   4.359   4.531   6.352 -0.7490  0.4268  0.3646
   91MOL   C17434554   4.374   4.496   6.499 -0.3274  0.4538 -0.2560
   91MOL   C17534555   4.267   4.452   6.580  0.6437  0.4180  0.7470
   91MOL   C17634556   4.283   4.437   6.721  0.1314 -0.3555  0.0376
   91MOL   C17734557   4.412   4.446   6.777 -0.5759  0.3064  0.2175
   91MOL   C17834558   4.433   4.437   6.926 -0.0316 -0.5786 -0.0178
   91MOL   C17934559   4.520   4.482   6.693 -0.9153  0.4872 -0.0214
   91MOL   C18034560   4.506   4.509   6.561 -0.3246  0.0392  0.2902
   91MOL   C18134561   4.309   4.673   6.334  0.3120  0.6056 -1.2417
   91MOL   H18234562   4.458   4.508   6.311 -0.9439  1.3968 -0.6708
   91MOL   H18334563   4.173   4.433   6.532  2.5634 -1.2894 -2.5694
   91MOL   H18434564   4.191   4.408   6.769 -0.5858 -0.8936 -1.6354
   91MOL   H18534565   4.514   4.368   6.952  2.2451  2.3239  0.9070
   91MOL   H18634566   4.457   4.532   6.973 -1.3601 -0.4819  0.4961
   91MOL   H18734567   4.349   4.385   6.973  0.0990  0.6262  1.5785
   91MOL   H18834568   4.621   4.483   6.729 -0.1923 -0.7276 -1.9415
   91MOL   H18934569   4.602   4.521   6.514  0.3166 -2.4925  0.8415
   91MOL   H19034570   4.222   4.702   6.393  0.3361  1.2694 -1.5294
   91MOL   H19134571   4.278   4.677   6.230 -0.0014 -0.5451 -1.1942
   91MOL   C19234572   4.411   4.783   6.352  0.4668  0.3911 -0.2426
   91MOL   C19334573   4.339   4.917   6.366  0.7145  0.0137  0.9305
   91MOL   C19434574   4.401   5.006   6.452  0.2649  0.0101  0.3906
   91MOL   C19534575   4.355   5.139   6.459 -0.7633 -0.2932  0.0870
   91MOL   C19634576   4.249   5.178   6.377  0.3615 -0.4740 -0.1200
   91MOL   C19734577   4.217   5.328   6.361  0.5007  0.0147  0.2450
   91MOL   C19834578   4.178   5.084   6.301 -1.0761  0.0149 -0.0844
   91MOL   C19934579   4.226   4.952   6.291 -0.0170 -0.2901 -0.5971
   91MOL   C20034580   4.528   4.779   6.251 -0.4562  0.1048  0.1390
   91MOL   H20134581   4.440   4.758   6.454  2.3757  0.7606 -0.6816
   91MOL   H20234582   4.489   4.966   6.499  0.4863  0.0424  0.0099
   91MOL   H20334583   4.403   5.211   6.523  0.7648 -1.5972  0.4583
   91MOL   H20434584   4.112   5.342   6.336  0.6608 -0.0235 -0.4614
   91MOL   H20534585   4.235   5.375   6.457  0.7431  1.7688 -0.6549
   91MOL   H20634586   4.277   5.386   6.291  2.1668 -1.4480  0.4344
   91MOL   H20734587   4.092   5.120   6.248 -0.6888  1.1697  0.0615
   91MOL   H20834588   4.163   4.882   6.238  0.3281 -1.8779  1.0628
   91MOL   H20934589   4.575   4.681   6.258 -0.2216  0.1358 -0.8571
   91MOL   H21034590   4.608   4.842   6.291  0.1371  0.6288 -1.7806
   91MOL   C21134591   4.507   4.828   6.108  0.6118  0.0616 -0.4909
   91MOL   C21234592   4.461   4.710   6.023 -0.0973  0.1940  0.2542
   91MOL   C21334593   4.327   4.699   5.978  0.0175 -0.2774 -0.9637
   91MOL   C21434594   4.289   4.592   5.899  0.0928  0.6146  0.1342
   91MOL   C21534595   4.378   4.482   5.869  0.0526 -0.3517  0.1785
   91MOL   C21634596   4.337   4.372   5.784 -0.5899 -0.8647 -0.7856
   91MOL   C21734597   4.507   4.489   5.936  0.4377 -0.0662 -0.6412
   91MOL   C21834598   4.546   4.601   6.010 -0.2360 -0.2334  0.2896
   91MOL   C21934599   4.632   4.896   6.053 -0.5976 -1.1467  0.2847
   91MOL   H22034600   4.423   4.896   6.116 -0.6891 -1.3542 -1.8090
   91MOL   H22134601   4.255   4.776   6.002  3.0368  1.9510  1.3535
   91MOL   H22234602   4.190   4.586   5.857  0.5372  0.6125 -0.9388
   91MOL   H22334603   4.394   4.292   5.831 -0.7930  1.2559  3.3227
   91MOL   H22434604   4.231   4.351   5.793 -0.2216 -2.6174 -0.3999
   91MOL   H22534605   4.357   4.378   5.677  1.2334 -1.1631 -0.4813
   91MOL   H22634606   4.576   4.407   5.918 -0.0258 -1.3303  2.9256
   91MOL   H22734607   4.644   4.609   6.052 -0.1200 -0.2565  0.0259
   91MOL   H22834608   4.720   4.831   6.049  0.8931  0.8751 -0.7614
   91MOL   H22934609   4.671   4.970   6.123  1.0189 -0.6568 -1.0702
   91MOL   C23034610   4.624   4.963   5.914  0.1210 -0.1067  0.3758
   91MOL   C23134611   4.553   5.092   5.919  0.6284  0.2067  0.7137
   91MOL   C23234612   4.414   5.101   5.936 -1.0712  0.6232 -0.0846
   91MOL   C23334613   4.347   5.226   5.965 -0.0664  0.3083  0.4969
   91MOL   C23434614   4.426   5.346   5.961 -0.1038 -0.3975 -0.3421
   91MOL   C23534615   4.370   5.483   5.986 -0.5190  0.5049 -0.2295
   91MOL   C23634616   4.567   5.340   5.949  0.4090  0.5324 -0.2927
   91MOL   C23734617   4.625   5.212   5.937  0.5703 -0.0896  0.5107
   91MOL   C23834618   4.577   4.882   5.797 -0.4043  0.4280  0.7490
   91MOL   H23934619   4.721   4.994   5.876 -0.0190  0.8309  0.7820
   91MOL   H24034620   4.361   5.008   5.927  1.2881 -0.8559  0.8940
   91MOL   H24134621   4.245   5.229   5.998 -0.9700  1.3726 -2.2131
   91MOL   H24234622   4.407   5.559   5.917 -1.8198  0.3989 -1.0574
   91MOL   H24334623   4.261   5.485   5.985 -0.5928 -2.2673 -0.1117
   91MOL   H24434624   4.405   5.512   6.085  1.6369  0.1520 -0.8648
   91MOL   H24534625   4.623   5.432   5.961  1.5312 -0.1493 -0.2890
   91MOL   H24634626   4.732   5.212   5.948  0.4453 -1.9678  1.8786
   91MOL   H24734627   4.575   4.947   5.709 -2.5032 -0.4803  0.0894
   91MOL   H24834628   4.473   4.847   5.797 -0.0095 -0.8416 -1.7712
   91MOL   C24934629   4.669   4.771   5.734 -0.0611 -0.2368  0.6325
   91MOL   C25034630   4.820   4.814   5.725  0.2724  0.1680  0.5096
   91MOL   C25134631   4.914   4.761   5.811 -0.2992  0.0999 -0.3650
   91MOL   C25234632   5.053   4.779   5.792  1.2319 -0.2270 -0.0181
   91MOL   C25334633   5.099   4.867   5.693  0.0301 -0.5028  0.3422
   91MOL   C25434634   5.252   4.899   5.674 -0.7641  0.4447  0.9154
   91MOL   C25534635   5.001   4.937   5.615  0.4200  0.2557  0.0420
   91MOL   C25634636   4.868   4.915   5.636  0.7010 -0.8775 -0.2327
   91MOL   C25734637   4.614   4.728   5.596  0.6341 -0.0747  0.2884
   91MOL   H25834638   4.683   4.684   5.798  1.2187  0.5361  1.4244
   91MOL   H25934639   4.890   4.698   5.896  0.3768 -0.3347 -0.4967
   91MOL   H26034640   5.117   4.736   5.868  1.7853  0.8893  0.1718
   91MOL   H26134641   5.304   4.811   5.713 -0.4184  1.0974  1.9547
   91MOL   H26234642   5.258   4.903   5.565  0.5063  2.2150  1.0271
   91MOL   H26334643   5.298   4.988   5.716  0.6613  0.8255 -1.3507
   91MOL   H26434644   5.031   4.990   5.526  2.6523  0.5469  0.9263
   91MOL   H26534645   4.795   4.946   5.561  1.1180  0.9140  0.0809
   91MOL   H26634646   4.577   4.814   5.538  1.9996  0.0261 -0.4499
   91MOL   H26734647   4.524   4.677   5.632 -0.6284  2.3028  0.6668
   91MOL   C26834648   4.698   4.633   5.506  0.2808  0.3878  0.0675
   91MOL   C26934649   4.770   4.723   5.405 -0.2277 -0.0825 -0.2463
   91MOL   C27034650   4.912   4.708   5.395  0.2407 -0.4367  0.0812
   91MOL   C27134651   4.982   4.768   5.292 -0.4362  0.4116 -0.4728
   91MOL   C27234652   4.917   4.852   5.199 -0.1981  0.8190 -0.3453
   91MOL   C27334653   4.993   4.916   5.093 -0.0101 -0.1116  0.5127
   91MOL   C27434654   4.778   4.868   5.211  0.7615 -0.2408  0.0067
   91MOL   C27534655   4.701   4.803   5.314  0.0346 -0.7719  0.1398
   91MOL   C27634656   4.606   4.522   5.452  0.4886  0.8065  0.5622
   91MOL   H27734657   4.765   4.581   5.574  0.5920 -0.5591 -0.9534
   91MOL   H27834658   4.968   4.655   5.471  0.8122  2.1299  1.5144
   91MOL   H27934659   5.089   4.757   5.280 -0.6407 -0.2063 -1.6774
   91MOL   H28034660   5.071   4.855   5.049 -1.8523 -0.2140 -2.7277
   91MOL   H28134661   4.931   4.951   5.010  1.1356 -0.9522 -0.7054
   91MOL   H28234662   5.032   5.006   5.141  1.9136 -0.2278 -0.8191
   91MOL   H28334663   4.731   4.936   5.141 -1.3432 -0.6893  0.9521
   91MOL   H28434664   4.595   4.823   5.321 -0.2328 -1.5862 -1.2782
   91MOL   H28534665   4.512   4.575   5.439  1.2122  1.9026 -0.3336
   91MOL   H28634666   4.595   4.450   5.533  1.4005  2.2435  1.9742
   91MOL   C28734667   4.649   4.449   5.322  0.7551  0.1957 -0.1917
   91MOL   C28834668   4.535   4.380   5.250 -0.9748  0.2047  0.3021
   91MOL   C28934669   4.431   4.319   5.319 -0.5722 -0.1595 -0.2003
   91MOL   C29034670   4.314   4.270   5.253 -0.3352  0.0606 -0.3179
   91MOL   C29134671   4.310   4.277   5.115  0.5591  0.0007  0.7335
   91MOL   C29234672   4.186   4.230   5.035 -0.3199 -0.2324 -0.0004
   91MOL   C29334673   4.416   4.329   5.043  0.0278 -0.8419 -0.4044
   91MOL   C29434674   4.524   4.391   5.111  0.1241 -0.2528 -0.1214
   91MOL   C29534675   4.775   4.357   5.339  0.2376 -0.0581 -0.5473
   91MOL   H29634676   4.680   4.527   5.252  0.8635  1.3779  1.1675
   91MOL   H29734677   4.423   4.335   5.425  0.4552 -0.0403 -0.1381
   91MOL   H29834678   4.229   4.229   5.307 -1.0536 -0.7055 -2.0028
   91MOL   H29934679   4.136   4.308   4.977 -1.7850  0.4605  2.1489
   91MOL   H30034680   4.223   4.165   4.956 -1.7850  0.3578 -1.1909
   91MOL   H30134681   4.123   4.168   5.099 -1.2298  1.5972  0.9327
   91MOL   H30234682   4.414   4.325   4.935  4.0427 -2.6438 -0.4940
   91MOL   H30334683   4.597   4.437   5.046  0.3606  1.4686  1.3021
   91MOL   H30434684   4.868   4.411   5.358 -0.7373  1.2891  0.4793
   91MOL   H30534685   4.789   4.306   5.244 -1.9069 -2.3872  0.2998
   91MOL   C30634686   4.758   4.240   5.442  0.1083  0.3665 -0.4613
   91MOL   C30734687   4.832   4.272   5.574 -0.2965 -0.0732 -0.1534
   91MOL   C30834688   4.967   4.312   5.577 -0.3884  0.4920 -0.4722
   91MOL   C30934689   5.030   4.344   5.695  0.4397 -1.1013 -0.6625
   91MOL   C31034690   4.953   4.334   5.818 -0.1797  0.0027  0.4797
   91MOL   C31134691   5.023   4.368   5.955 -0.3465 -0.5262 -0.2783
   91MOL   C31234692   4.816   4.297   5.815 -0.4619  0.0960 -0.1274
   91MOL   C31334693   4.761   4.271   5.692  0.8696 -0.2355  0.1791
   91MOL   C31434694   4.786   4.095   5.403  0.2402 -0.2052 -0.5035
   91MOL   H31534695   4.650   4.240   5.460  0.5807  0.1959  2.4796
   91MOL   H31634696   5.028   4.323   5.489  0.6993  0.2091  0.2385
   91MOL   H31734697   5.137   4.356   5.701  0.5969 -1.4159 -2.5391
   91MOL   H31834698   5.127   4.395   5.937  0.0692  1.2268  4.1905
   91MOL   H31934699   4.962   4.444   6.001 -2.1320 -1.9933 -0.1655
   91MOL   H32034700   5.027   4.285   6.026  1.6304 -0.3243 -0.1051
   91MOL   H32134701   4.751   4.305   5.901  0.8676  1.7978  0.7511
   91MOL   H32234702   4.654   4.259   5.687  0.7673  0.4614  0.6233
   91MOL   H32334703   4.816   4.046   5.496  0.1599  1.4966  0.4437
   91MOL   H32434704   4.874   4.088   5.339  2.0760  2.1569  1.6380
   91MOL   C32534705   4.667   4.009   5.344  0.4366 -0.1296 -0.0422
   91MOL   C32634706   4.681   3.858   5.368  0.2250  0.2845  0.5687
   91MOL   C32734707   4.563   3.777   5.360  0.1766 -0.6281  0.0061
   91MOL   C32834708   4.571   3.635   5.364 -0.4509  0.1111 -0.1330
   91MOL   C32934709   4.697   3.570   5.384  0.5405 -0.2523  0.1756
   91MOL   C33034710   4.688   3.412   5.384 -0.5677 -0.3478  0.1687
   91MOL   C33134711   4.816   3.645   5.390 -0.7006 -0.1595  0.2037
   91MOL   C33234712   4.808   3.789   5.393 -0.2791 -0.5195 -0.0385
   91MOL   C33334713   4.627   4.045   5.197  0.3227 -0.0854  0.4345
   91MOL   H33434714   4.583   4.041   5.406  1.6587  1.9851  0.5716
   91MOL   H33534715   4.469   3.826   5.342  0.5976 -0.1642 -0.9189
   91MOL   H33634716   4.481   3.575   5.360 -1.0417  0.8655  1.3672
   91MOL   H33734717   4.762   3.373   5.314 -2.1731 -3.0540 -0.0829
   91MOL   H33834718   4.700   3.376   5.486 -0.9803 -0.2040  0.2679
   91MOL   H33934719   4.591   3.381   5.345 -1.5353  3.7864 -0.9777
   91MOL   H34034720   4.911   3.600   5.415  0.2449  1.1989 -0.8925
   91MOL   H34134721   4.898   3.848   5.388  0.7607 -2.2272 -2.3513
   91MOL   H34234722   4.631   4.153   5.181  0.9239 -0.1699  0.0088
   91MOL   H34334723   4.521   4.028   5.176  0.0393  1.5712  0.4854
   91MOL   C34434724   4.722   3.986   5.082 -0.0633 -0.2850 -0.9648
   91MOL   C34534725   4.742   4.081   4.966 -0.2192 -0.1822  0.0567
   91MOL   C34634726   4.638   4.114   4.877  1.1734  0.3162 -0.0276
   91MOL   C34734727   4.676   4.192   4.765 -0.0276 -0.4391 -0.3538
   91MOL   C34834728   4.799   4.246   4.742  0.3298 -0.5299  0.4954
   91MOL   C34934729   4.819   4.330   4.615  0.0133  0.6402  0.2515
   91MOL   C35034730   4.897   4.222   4.838 -0.8339 -0.2354  0.9069
   91MOL   C35134731   4.868   4.138   4.943  0.4951 -0.6186  0.1861
   91MOL   C35234732   4.657   3.850   5.036 -0.8584 -0.3916  0.2189
   91MOL   H35334733   4.819   3.953   5.121 -0.9309 -0.5192  1.1075
   91MOL   H35434734   4.535   4.087   4.895  1.3004 -1.5600 -1.9013
   91MOL   H35534735   4.603   4.222   4.691  1.3714 -0.4462 -1.7601
   91MOL   H35634736   4.798   4.435   4.637 -0.2431  0.8692 -1.0125
   91MOL   H35734737   4.917   4.326   4.567  0.6055  0.9001  1.4115
   91MOL   H35834738   4.742   4.315   4.539 -0.1257 -0.0805  0.5330
   91MOL   H35934739   4.998   4.259   4.830 -0.1218 -1.9814  1.5354
   91MOL   H36034740   4.947   4.136   5.017  2.1678 -0.0741 -1.5715
   91MOL   H36134741   4.551   3.863   5.017 -0.6937 -2.5622 -2.4862
   91MOL   H36234742   4.665   3.779   5.119  1.2155 -0.0882  0.3100
   91MOL   C36334743   4.701   3.776   4.905  0.7601 -0.6698  0.1403
   91MOL   C36434744   4.597   3.669   4.878 -0.0096  0.4823  0.3347
   91MOL   C36534745   4.597   3.541   4.937  0.0542  0.3657  0.6705
   91MOL   C36634746   4.507   3.444   4.894  0.6986  0.5215 -0.5010
   91MOL   C36734747   4.403   3.483   4.798  0.0777  0.6669  0.0856
   91MOL   C36834748   4.301   3.391   4.757  0.3068  0.6389 -0.1852
   91MOL   C36934749   4.394   3.613   4.760 -0.0652  1.4111  0.0308
   91MOL   C37034750   4.486   3.705   4.800  0.3160  0.1815  0.1263
   91MOL   C37134751   4.834   3.713   4.911  0.5996  0.0981  0.1005
   91MOL   H37234752   4.720   3.847   4.824  1.1912  1.1385  1.7962
   91MOL   H37334753   4.676   3.514   5.005 -1.2996 -0.7068  1.8674
   91MOL   H37434754   4.521   3.341   4.924  0.1516  1.0147  1.5098
   91MOL   H37534755   4.303   3.365   4.651 -0.2747 -1.7171  0.3719
   91MOL   H37634756   4.309   3.307   4.826  1.8739  1.7511  1.0325
   91MOL   H37734757   4.202   3.432   4.778 -0.9749 -2.5916  0.4066
   91MOL   H37834758   4.310   3.646   4.700 -0.1258  1.7476  0.2970
   91MOL   H37934759   4.477   3.812   4.790  1.2621  0.3975  1.4718
   91MOL   H38034760   4.842   3.654   5.002 -1.2427  1.2224  1.0370
   91MOL   H38134761   4.903   3.797   4.915 -0.5662  1.0922 -0.2439
   91MOL   H38234762   4.852   3.649   4.825  2.1148 -0.3221  0.7254
   92MOL     C134763   2.963   5.005   5.054  0.2450 -0.3210 -0.2718
   92MOL     C234764   3.061   5.085   4.965 -0.6942 -0.3698 -0.2727
   92MOL     C334765   3.198   5.064   4.982 -0.4319  0.3187  0.1066
   92MOL     C434766   3.289   5.149   4.917 -0.6457  0.0828  0.6784
   92MOL     C534767   3.240   5.248   4.837 -0.0624 -0.1334  0.2814
   92MOL     C634768   3.337   5.337   4.785  0.1535  0.5274 -0.0015
   92MOL     C734769   3.101   5.266   4.818 -0.3389  0.0883  0.5604
   92MOL     C834770   3.012   5.191   4.889  0.5428 -0.4519  1.0373
   92MOL     C934771   2.979   4.850   5.044 -0.1431 -0.3533 -0.7548
   92MOL    H1034772   2.972   5.039   5.157 -0.2336 -0.1681 -0.2791
   92MOL    H1134773   3.233   4.988   5.051  1.8880  1.0853 -0.1765
   92MOL    H1234774   3.395   5.127   4.923 -0.6437 -0.1407 -0.1354
   92MOL    H1334775   3.385   5.277   4.708 -2.2980 -1.4332 -0.0456
   92MOL    H1434776   3.304   5.430   4.739  2.5550  1.6428  0.4137
   92MOL    H1534777   3.421   5.362   4.850  0.1376  2.8231 -0.8140
   92MOL    H1634778   3.071   5.355   4.765 -0.3486 -0.2084  0.0706
   92MOL    H1734779   2.905   5.199   4.878  0.8259  1.0323 -0.8690
   92MOL    H1834780   3.061   4.820   5.109 -0.7061 -1.1151 -0.4045
   92MOL    H1934781   2.998   4.821   4.941  0.6828  0.1505 -0.7492
   92MOL    H2034782   2.864   5.033   5.018  0.4107 -1.3645 -1.5663
   92MOL    C2134783   2.841   4.785   5.080 -0.4124  0.3463 -0.5409
   92MOL    C2234784   2.772   4.841   5.203 -0.6901 -0.1539 -0.3771
   92MOL    C2334785   2.644   4.888   5.197  0.4745 -0.4487 -0.0363
   92MOL    C2434786   2.590   4.957   5.308  0.5630  0.2742  0.2711
   92MOL    C2534787   2.662   4.974   5.426 -0.4879 -0.1159  0.1960
   92MOL    C2634788   2.605   5.062   5.534 -0.0531  0.1711  0.3757
   92MOL    C2734789   2.794   4.924   5.433 -0.5919  0.3688  0.3396
   92MOL    C2834790   2.848   4.851   5.320  0.5225  0.3903 -0.5303
   92MOL    C2934791   2.853   4.624   5.084  0.3095  0.0148  0.2262
   92MOL    H3034792   2.771   4.808   5.000 -0.8354  0.7053 -0.0678
   92MOL    H3134793   2.584   4.879   5.108  1.0209  1.3056 -0.5922
   92MOL    H3234794   2.489   4.996   5.304  1.2864  2.4298  2.2803
   92MOL    H3334795   2.680   5.120   5.587 -0.9432  1.6825 -0.0065
   92MOL    H3434796   2.547   5.137   5.480  3.3944  0.8099 -2.6410
   92MOL    H3534797   2.550   5.002   5.607  0.7209 -1.4866 -0.3779
   92MOL    H3634798   2.859   4.937   5.519  1.5091  1.3141 -1.3651
   92MOL    H3734799   2.947   4.811   5.335  1.3567  1.8567 -1.8842
   92MOL    H3834800   2.758   4.578   5.112  0.7072  0.0963  1.7713
   92MOL    H3934801   2.915   4.606   5.172  2.2837  5.0013  0.0151
   92MOL    C4034802   2.909   4.567   4.953 -0.1116  0.6776  0.5170
   92MOL    C4134803   2.820   4.594   4.822  0.4899  0.4228  0.4144
   92MOL    C4234804   2.879   4.650   4.709 -0.2061 -0.0970  0.4718
   92MOL    C4334805   2.800   4.678   4.596 -0.1138  0.7041  0.4751
   92MOL    C4434806   2.663   4.642   4.588 -0.3198  0.2448 -0.5860
   92MOL    C4534807   2.584   4.673   4.454  0.8721  0.5210 -0.2089
   92MOL    C4634808   2.605   4.592   4.706  0.9404  0.3192 -0.2123
   92MOL    C4734809   2.683   4.567   4.826  0.2415  0.1021 -0.2928
   92MOL    C4834810   2.924   4.409   4.968  0.3497 -0.3963 -0.0003
   92MOL    H4934811   3.007   4.605   4.925 -0.7776  0.4934 -2.2790
   92MOL    H5034812   2.984   4.675   4.703 -0.6636  1.1443 -3.3864
   92MOL    H5134813   2.849   4.712   4.506 -1.6441 -1.4465 -1.2390
   92MOL    H5234814   2.559   4.581   4.400 -0.4813  0.2527  0.8202
   92MOL    H5334815   2.486   4.718   4.471 -0.5751 -2.9219  1.2552
   92MOL    H5434816   2.628   4.735   4.377  0.4727 -0.9264 -1.6216
   92MOL    H5534817   2.501   4.566   4.700  0.3021  2.4480  0.8756
   92MOL    H5634818   2.630   4.530   4.913 -0.4684  2.1994  0.1885
   92MOL    H5734819   2.824   4.367   4.980  0.9993 -2.6033 -1.8828
   92MOL    H5834820   2.979   4.411   5.062 -0.4754  1.1725  0.4598
   92MOL    C5934821   3.002   4.323   4.860  0.0451 -0.6491 -0.1926
   92MOL    C6034822   2.997   4.173   4.904  0.5774 -0.2225 -0.0540
   92MOL    C6134823   3.074   4.125   5.015 -0.1795  1.3279  0.2321
   92MOL    C6234824   3.055   3.990   5.057  0.4454  0.1414 -0.1910
   92MOL    C6334825   2.971   3.906   4.981  0.1262  0.1616  0.2297
   92MOL    C6434826   2.977   3.752   5.005  1.2949 -0.2813 -0.4757
   92MOL    C6534827   2.901   3.953   4.872  0.2020 -0.2603  0.2929
   92MOL    C6634828   2.914   4.084   4.834  0.3712 -0.2239  0.0348
   92MOL    C6734829   3.142   4.375   4.843 -0.6111 -0.8144  0.9021
   92MOL    H6834830   2.948   4.330   4.766 -1.2289  0.2534  0.5831
   92MOL    H6934831   3.141   4.187   5.072  0.7075 -0.7778  1.5587
   92MOL    H7034832   3.129   3.960   5.130  0.0764 -0.9737 -0.2816
   92MOL    H7134833   2.888   3.716   5.057  1.1384  0.9201  0.1049
   92MOL    H7234834   2.962   3.689   4.917 -3.8850  1.8337 -1.3028
   92MOL    H7334835   3.061   3.723   5.068  0.1941 -1.6873  0.3651
   92MOL    H7434836   2.831   3.888   4.821  3.2464 -1.9278 -1.8753
   92MOL    H7534837   2.849   4.116   4.754  0.8221 -0.8726 -0.6087
   92MOL    H7634838   3.199   4.391   4.934 -0.7650 -0.7732  0.9906
   92MOL    H7734839   3.137   4.481   4.818 -0.1029 -1.2866 -1.4006
   92MOL    C7834840   3.232   4.316   4.729  0.7612  0.5392 -0.0259
   92MOL    C7934841   3.366   4.388   4.722 -0.3489 -0.2024 -0.3178
   92MOL    C8034842   3.362   4.527   4.700 -0.4690 -0.4684 -0.3954
   92MOL    C8134843   3.476   4.600   4.674  0.3331  0.2076 -0.1194
   92MOL    C8234844   3.602   4.532   4.682 -0.0972 -0.2349  0.2329
   92MOL    C8334845   3.728   4.609   4.661  0.0222  0.0664  0.1416
   92MOL    C8434846   3.607   4.398   4.714 -1.5489 -0.0029  0.3024
   92MOL    C8534847   3.493   4.317   4.736  0.3467 -0.1811 -0.6853
   92MOL    C8634848   3.180   4.315   4.595 -0.0850 -0.4083  0.5022
   92MOL    H8734849   3.255   4.215   4.762  0.0378  0.4546  0.2330
   92MOL    H8834850   3.270   4.583   4.690 -0.6992 -0.7388  0.1522
   92MOL    H8934851   3.465   4.703   4.644 -0.7409  0.1926  0.2118
   92MOL    H9034852   3.813   4.542   4.670 -0.1688 -0.3598 -1.0623
   92MOL    H9134853   3.720   4.649   4.560 -0.0564 -0.4299 -0.0463
   92MOL    H9234854   3.741   4.690   4.733  0.5347  0.0565  0.0616
   92MOL    H9334855   3.700   4.349   4.741  0.0275  1.9703 -1.3665
   92MOL    H9434856   3.498   4.210   4.750  3.9040 -0.3309 -2.4374
   92MOL    H9534857   3.253   4.356   4.526 -0.9670  1.2153  0.5035
   92MOL    H9634858   3.100   4.389   4.589  1.4448  1.1617 -1.2197
   92MOL    C9734859   3.148   4.176   4.525 -0.3382 -0.0582 -0.3446
   92MOL    C9834860   3.262   4.078   4.538  0.4958 -0.3906 -0.4095
   92MOL    C9934861   3.386   4.106   4.482  0.3142 -0.6174  0.3286
   92MOL   C10034862   3.490   4.011   4.490 -0.5044 -0.4089  0.0747
   92MOL   C10134863   3.467   3.884   4.556 -0.0095  0.0445  0.9269
   92MOL   C10234864   3.574   3.779   4.553  0.2307  0.3930  0.3046
   92MOL   C10334865   3.346   3.854   4.609  0.4823 -0.4291  0.7003
   92MOL   C10434866   3.243   3.951   4.597 -0.3293 -0.5037  0.3905
   92MOL   C10534867   3.114   4.196   4.375 -0.5241  0.6940  0.1968
   92MOL   H10634868   3.068   4.136   4.587 -0.2886  0.7016  0.2120
   92MOL   H10734869   3.402   4.200   4.432 -2.2881 -0.6560 -0.6781
   92MOL   H10834870   3.592   4.030   4.460 -0.4242  0.0538  0.6253
   92MOL   H10934871   3.563   3.707   4.472  1.2741  0.4322  0.1230
   92MOL   H11034872   3.673   3.822   4.539  0.3997  0.6254  2.0853
   92MOL   H11134873   3.576   3.725   4.648  0.5368  0.7532  0.5061
   92MOL   H11234874   3.323   3.769   4.672 -0.3977 -0.7655 -0.0427
   92MOL   H11334875   3.147   3.928   4.643 -0.5678  0.2626  0.2898
   92MOL   H11434876   3.107   4.099   4.324  1.5936  0.2625  0.6563
   92MOL   H11534877   3.182   4.256   4.314 -0.0055 -0.3622 -0.2867
   92MOL   C11634878   2.981   4.266   4.358 -0.0116  0.6040 -0.5736
   92MOL   C11734879   2.867   4.194   4.438 -0.4527  0.1164  0.0145
   92MOL   C11834880   2.783   4.267   4.523 -0.2333  1.0245  0.2340
   92MOL   C11934881   2.675   4.202   4.584 -0.4772  0.5608  0.1932
   92MOL   C12034882   2.651   4.066   4.555 -1.0826  0.1001 -0.3039
   92MOL   C12134883   2.547   4.002   4.638  0.2604  0.3484 -0.2769
   92MOL   C12234884   2.734   3.993   4.467  0.5408  0.3819  0.1488
   92MOL   C12334885   2.849   4.057   4.414  0.0087  0.0065 -0.4115
   92MOL   C12434886   2.933   4.282   4.213 -0.2554  0.0661  0.1269
   92MOL   H12534887   2.984   4.369   4.395  0.3680  0.1647  0.6167
   92MOL   H12634888   2.787   4.374   4.538  3.1299  0.8092  1.0383
   92MOL   H12734889   2.604   4.260   4.642 -1.5995  0.1350 -0.7464
   92MOL   H12834890   2.459   4.066   4.626  1.0911  1.5799  0.1455
   92MOL   H12934891   2.519   3.901   4.609 -2.4956  0.9456  0.1162
   92MOL   H13034892   2.576   4.000   4.743  0.3908  1.4525 -0.2785
   92MOL   H13134893   2.725   3.888   4.443 -1.8416  0.1414  1.9314
   92MOL   H13234894   2.921   3.999   4.358 -1.0628 -0.0242 -1.7857
   92MOL   H13334895   2.829   4.316   4.212  0.3568  1.9545 -1.0270
   92MOL   H13434896   2.937   4.182   4.170  1.4636  1.2818 -2.6831
   92MOL   C13534897   3.021   4.378   4.127  0.3225 -0.2842  0.5795
   92MOL   C13634898   3.032   4.522   4.186 -0.4431 -0.1084  1.0926
   92MOL   C13734899   3.147   4.583   4.226 -0.4010 -0.5275 -0.0256
   92MOL   C13834900   3.152   4.717   4.264 -0.4558 -0.7054 -0.5204
   92MOL   C13934901   3.034   4.793   4.268  0.3567 -0.8399  0.3286
   92MOL   C14034902   3.043   4.943   4.286  0.6689  0.1409  0.0257
   92MOL   C14134903   2.913   4.726   4.242  0.2025 -0.1450 -0.7911
   92MOL   C14234904   2.909   4.594   4.195  0.4750  0.0875  0.1535
   92MOL   C14334905   2.983   4.368   3.977 -0.0475 -0.1908  0.2903
   92MOL   H14434906   3.124   4.344   4.135  0.8452  1.9520  5.0403
   92MOL   H14534907   3.242   4.532   4.222  0.0470  0.3616 -0.8154
   92MOL   H14634908   3.249   4.759   4.283 -0.5211 -0.1373 -1.4368
   92MOL   H14734909   3.031   4.949   4.394  3.0457 -0.4739  0.3539
   92MOL   H14834910   3.144   4.977   4.264  0.5222  1.7914  1.8145
   92MOL   H14934911   2.964   4.999   4.236 -0.0965  0.5763  1.6859
   92MOL   H15034912   2.821   4.783   4.241  0.1610 -0.2111 -0.7171
   92MOL   H15134913   2.813   4.547   4.179 -0.2032  0.8753  1.7852
   92MOL   H15234914   2.879   4.398   3.971  0.5089  1.5019 -1.6131
   92MOL   H15334915   2.979   4.267   3.936  0.4049  0.1119 -0.4942
   92MOL   C15434916   3.060   4.452   3.880 -0.7248  0.6270  0.1638
   92MOL   C15534917   3.009   4.454   3.735  0.2620  0.6567  0.2757
   92MOL   C15634918   2.963   4.339   3.667  0.0871  0.4713 -0.2880
   92MOL   C15734919   2.907   4.344   3.539 -0.8395 -0.7130 -0.2066
   92MOL   C15834920   2.891   4.469   3.475 -0.2864 -0.4792 -0.6296
   92MOL   C15934921   2.821   4.481   3.343  0.6459  0.8620  0.0834
   92MOL   C16034922   2.934   4.588   3.541  0.1837 -0.2548  0.3932
   92MOL   C16134923   2.996   4.577   3.666  0.0592  0.0404 -0.5529
   92MOL   C16234924   3.213   4.430   3.881  0.0328  0.1416  0.5812
   92MOL   H16334925   3.051   4.557   3.909 -1.3643  0.2148  1.5005
   92MOL   H16434926   2.967   4.245   3.720 -1.9891  2.1813  3.0757
   92MOL   H16534927   2.882   4.251   3.490 -0.3193 -1.9993  1.8955
   92MOL   H16634928   2.851   4.567   3.282  0.0413 -0.1342 -1.6470
   92MOL   H16734929   2.819   4.396   3.274  0.4439  1.6357 -0.8822
   92MOL   H16834930   2.715   4.486   3.365  0.3965  0.9658 -1.1116
   92MOL   H16934931   2.914   4.685   3.498 -1.5911  0.3447  2.4943
   92MOL   H17034932   3.031   4.672   3.706  1.6107 -0.0627 -1.6126
   92MOL   H17134933   3.248   4.457   3.981  2.2731 -0.1790 -0.0998
   92MOL   H17234934   3.265   4.514   3.834 -0.2481  0.9518  1.6889
   92MOL   C17334935   3.257   4.287   3.840  0.0233  0.0896  0.5644
   92MOL   C17434936   3.367   4.238   3.928 -0.5077  0.1291  0.6112
   92MOL   C17534937   3.504   4.271   3.904 -0.2189  0.6604 -0.2354
   92MOL   C17634938   3.605   4.217   3.986 -0.1554 -0.7634  0.7608
   92MOL   C17734939   3.575   4.123   4.088  0.0274 -0.3462  0.2031
   92MOL   C17834940   3.687   4.054   4.170 -0.2577 -0.4569 -0.2658
   92MOL   C17934941   3.437   4.089   4.112  0.3707 -0.4109  0.3464
   92MOL   C18034942   3.337   4.143   4.032  0.0806  0.2772  0.6203
   92MOL   C18134943   3.274   4.279   3.689 -0.1972  0.3410 -0.0913
   92MOL   H18234944   3.170   4.225   3.864 -1.5885  2.2789  0.6192
   92MOL   H18334945   3.531   4.339   3.824 -0.2099 -1.0589 -1.7161
   92MOL   H18434946   3.707   4.235   3.956 -0.4848  1.3898  0.8692
   92MOL   H18534947   3.696   4.098   4.269  1.6263  0.8072 -0.9767
   92MOL   H18634948   3.669   3.946   4.169  1.7653 -0.8146 -0.0327
   92MOL   H18734949   3.789   4.065   4.132 -0.6449 -1.4990 -1.6813
   92MOL   H18834950   3.408   4.017   4.187  0.8728 -0.0164  0.9266
   92MOL   H18934951   3.236   4.113   4.055  0.8885 -3.2128  0.0013
   92MOL   H19034952   3.376   4.314   3.671  0.2047  0.8285  2.9641
   92MOL   H19134953   3.212   4.353   3.639 -0.2103  1.6141  1.7731
   92MOL   C19234954   3.255   4.144   3.614 -0.7928  0.1923 -0.1374
   92MOL   C19334955   3.325   4.025   3.680  0.7419 -0.5514 -0.1802
   92MOL   C19434956   3.253   3.906   3.718 -0.0132 -0.7097  0.0022
   92MOL   C19534957   3.313   3.800   3.787  0.6086 -0.0386 -0.7531
   92MOL   C19634958   3.451   3.799   3.794  0.4036  0.0214 -0.0046
   92MOL   C19734959   3.525   3.684   3.851  0.0439  0.0807 -0.4352
   92MOL   C19834960   3.526   3.907   3.752 -0.2386 -0.3962 -0.3964
   92MOL   C19934961   3.461   4.032   3.707 -0.3641  0.1301  0.0919
   92MOL   C20034962   3.304   4.154   3.471  0.1619  0.9001 -0.4818
   92MOL   H20134963   3.148   4.127   3.616 -1.3548  3.1898 -1.4044
   92MOL   H20234964   3.147   3.916   3.698  0.1179  1.4625  0.3048
   92MOL   H20334965   3.248   3.717   3.812  2.1152 -0.6010  1.4689
   92MOL   H20434966   3.630   3.688   3.822  0.2156 -1.5692 -0.0620
   92MOL   H20534967   3.518   3.670   3.959 -2.9493  0.1001 -0.5738
   92MOL   H20634968   3.501   3.585   3.813  0.3618 -0.2098  0.1140
   92MOL   H20734969   3.634   3.898   3.760 -0.2865 -1.3766 -0.8360
   92MOL   H20834970   3.522   4.114   3.672 -1.8435  1.5239  0.7223
   92MOL   H20934971   3.411   4.169   3.456  0.7641 -3.0280 -0.6525
   92MOL   H21034972   3.258   4.238   3.419 -0.9428 -0.1493 -1.2226
   92MOL   C21134973   3.257   4.040   3.377 -0.1127 -0.1130  0.0922
   92MOL   C21234974   3.345   4.046   3.257 -0.1352  0.9572  1.0029
   92MOL   C21334975   3.372   4.167   3.179  0.0785  0.1514  0.6228
   92MOL   C21434976   3.460   4.170   3.068  0.1168  0.5087 -0.2541
   92MOL   C21534977   3.523   4.050   3.035 -0.7102 -0.5926  0.4841
   92MOL   C21634978   3.617   4.048   2.922 -0.3035 -0.2940  0.0804
   92MOL   C21734979   3.505   3.932   3.107  0.6498  0.5898 -0.3245
   92MOL   C21834980   3.420   3.928   3.217  0.2027 -0.4663 -0.5945
   92MOL   C21934981   3.109   4.037   3.345  0.4674 -0.1992  1.0548
   92MOL   H22034982   3.280   3.951   3.437  0.2671  1.3568  2.1801
   92MOL   H22134983   3.315   4.256   3.204 -2.4846 -0.1078 -3.7448
   92MOL   H22234984   3.482   4.265   3.021 -1.6594  0.8457 -0.4189
   92MOL   H22334985   3.717   4.038   2.963  0.0430 -2.4544 -1.2127
   92MOL   H22434986   3.593   3.976   2.844 -0.2606 -0.4009  0.1649
   92MOL   H22534987   3.634   4.145   2.876 -1.6540  1.5001  3.2226
   92MOL   H22634988   3.566   3.845   3.088  0.1945  0.0583  0.6205
   92MOL   H22734989   3.421   3.832   3.267  2.3461 -0.1076  0.1190
   92MOL   H22834990   3.090   4.107   3.263  1.7040 -0.2308  0.7332
   92MOL   H22934991   3.066   4.084   3.433 -1.2623  0.3439 -0.0460
   92MOL   C23034992   3.032   3.906   3.319 -0.5792  0.5815  0.6643
   92MOL   C23134993   3.031   3.813   3.439  0.4970  0.1313 -0.3670
   92MOL   C23234994   3.135   3.721   3.471 -0.4950  0.0126 -0.5887
   92MOL   C23334995   3.120   3.629   3.580 -0.7990 -0.3019 -0.0853
   92MOL   C23434996   3.007   3.633   3.660  0.1331 -0.6126  0.0681
   92MOL   C23534997   3.000   3.554   3.785  0.3663 -0.3615 -0.4620
   92MOL   C23634998   2.909   3.729   3.628  0.1565 -0.7888 -0.9137
   92MOL   C23734999   2.918   3.821   3.524 -0.6201 -0.4155  0.2574
   92MOL   C23835000   3.081   3.838   3.191 -0.5937  1.1893  0.0435
   92MOL   H23935001   2.928   3.924   3.292 -0.2405  0.4350 -0.7753
   92MOL   H24035002   3.230   3.719   3.420 -0.3011 -1.0184 -0.2116
   92MOL   H24135003   3.209   3.576   3.611 -2.3934 -3.5346 -0.8130
   92MOL   H24235004   3.056   3.461   3.774 -0.3752 -0.6582 -1.8389
   92MOL   H24335005   3.048   3.610   3.865  0.7387 -0.5068 -0.5819
   92MOL   H24435006   2.899   3.529   3.819  1.3279 -0.2256  2.6278
   92MOL   H24535007   2.827   3.743   3.697  1.5897 -0.2157  0.6871
   92MOL   H24635008   2.840   3.895   3.513  0.4034  1.1647  3.0238
   92MOL   H24735009   3.040   3.737   3.187 -0.0504  0.9444  0.6398
   92MOL   H24835010   3.186   3.813   3.201 -1.1293 -0.9363  0.6454
   92MOL   C24935011   3.059   3.905   3.057  0.7263 -0.0097  0.2610
   92MOL   C25035012   2.918   3.966   3.039  1.0773 -0.2319  0.2374
   92MOL   C25135013   2.814   3.873   3.032 -0.1463 -0.0100 -0.3250
   92MOL   C25235014   2.694   3.919   2.976  0.1810 -0.4930  0.0445
   92MOL   C25335015   2.666   4.059   2.973 -0.6057 -0.4967  0.3371
   92MOL   C25435016   2.527   4.101   2.924  0.9918  0.7256  0.2889
   92MOL   C25535017   2.762   4.159   3.009 -0.3459  0.1704 -0.0280
   92MOL   C25635018   2.891   4.108   3.029 -0.5983  0.4086 -0.1318
   92MOL   C25735019   3.095   3.802   2.942  0.0988  0.5220  0.4906
   92MOL   H25835020   3.126   3.990   3.043  1.2307 -0.6086 -1.0258
   92MOL   H25935021   2.830   3.767   3.042  2.3916  0.5966  2.9461
   92MOL   H26035022   2.622   3.842   2.950 -1.3930  0.5740  1.1250
   92MOL   H26135023   2.447   4.098   2.998 -0.9844  1.2216 -1.7863
   92MOL   H26235024   2.526   4.202   2.885  4.2357  0.2519 -1.1382
   92MOL   H26335025   2.495   4.035   2.844 -0.8614  0.7859  0.9511
   92MOL   H26435026   2.739   4.265   3.007 -2.9298 -0.3784 -1.2862
   92MOL   H26535027   2.972   4.178   3.044 -0.6794  0.6140 -0.6310
   92MOL   H26635028   3.030   3.715   2.946  0.3040  0.3877  0.9185
   92MOL   H26735029   3.192   3.760   2.969 -0.2530  0.5718  1.8643
   92MOL   C26835030   3.079   3.851   2.800 -0.6090 -0.1589 -0.3707
   92MOL   C26935031   3.041   3.736   2.709  0.1892 -0.3245  0.1958
   92MOL   C27035032   3.123   3.624   2.693 -0.9544 -0.7030  0.2509
   92MOL   C27135033   3.086   3.521   2.607 -0.2702  0.0886 -0.2787
   92MOL   C27235034   2.960   3.527   2.541 -0.4824 -0.7378  0.2867
   92MOL   C27335035   2.904   3.406   2.468 -0.2315 -0.3497 -0.1411
   92MOL   C27435036   2.874   3.643   2.549  0.2060  0.3285  0.6126
   92MOL   C27535037   2.924   3.754   2.628  0.5049  0.2834 -0.3094
   92MOL   C27635038   3.210   3.926   2.762 -0.8791 -0.3698 -0.2191
   92MOL   H27735039   2.993   3.918   2.801 -2.2534 -2.2516  1.2144
   92MOL   H27835040   3.219   3.618   2.743 -2.3862 -1.6478  2.9471
   92MOL   H27935041   3.154   3.437   2.602  2.6652  2.3324  0.5431
   92MOL   H28035042   2.836   3.338   2.519  0.2326 -0.1070  0.8228
   92MOL   H28135043   2.837   3.442   2.390  1.4566 -2.2794 -2.5617
   92MOL   H28235044   2.985   3.348   2.424  0.2792  0.8766 -0.8470
   92MOL   H28335045   2.782   3.659   2.496  1.3875 -0.9792 -1.9231
   92MOL   H28435046   2.868   3.846   2.638  3.0166  2.1011 -2.4232
   92MOL   H28535047   3.284   3.853   2.731 -0.1413  0.8541 -1.3924
   92MOL   H28635048   3.260   3.977   2.844 -0.0909  0.8283 -1.4192
   92MOL   C28735049   3.184   4.025   2.651 -0.0803  0.1257  0.2113
   92MOL   C28835050   3.306   4.053   2.566  0.2853  0.0154  0.1385
   92MOL   C28935051   3.301   4.035   2.427 -0.3103 -0.6231 -0.0704
   92MOL   C29035052   3.410   4.069   2.345  0.0020  0.5184  0.3943
   92MOL   C29135053   3.529   4.111   2.401 -0.2700  0.3167 -0.0011
   92MOL   C29235054   3.631   4.163   2.308  0.4001 -0.3795  0.2313
   92MOL   C29335055   3.544   4.119   2.543  0.2767 -0.7114 -0.5091
   92MOL   C29435056   3.429   4.094   2.623  0.2637  0.4159 -0.3133
   92MOL   C29535057   3.109   4.151   2.703 -0.2538  0.0915 -0.2320
   92MOL   H29635058   3.115   3.969   2.588 -0.9076 -0.1870  1.3853
   92MOL   H29735059   3.209   4.003   2.381 -0.1576 -0.8147 -0.2469
   92MOL   H29835060   3.402   4.073   2.238  0.7702 -1.5864  0.2338
   92MOL   H29935061   3.654   4.268   2.323 -0.4448 -0.2463  0.6436
   92MOL   H30035062   3.715   4.093   2.312 -0.5750 -1.5733  0.0509
   92MOL   H30135063   3.585   4.160   2.209  0.0810 -0.8205  0.3872
   92MOL   H30235064   3.627   4.148   2.605 -1.8465  1.7579  1.3123
   92MOL   H30335065   3.433   4.111   2.730 -1.0005  1.4313 -0.4261
   92MOL   H30435066   3.186   4.214   2.747  1.8460 -0.8788 -2.3934
   92MOL   H30535067   3.055   4.119   2.792  1.3315 -2.4119 -0.1316
   92MOL   C30635068   3.023   4.228   2.607  0.2706 -0.2706 -0.3026
   92MOL   C30735069   3.023   4.380   2.638  0.6425 -0.5303  0.0102
   92MOL   C30835070   2.986   4.424   2.765 -0.3682 -0.1352  0.0269
   92MOL   C30935071   2.985   4.565   2.798  0.1021 -0.2547 -0.7395
   92MOL   C31035072   3.033   4.660   2.701 -0.0098 -0.3407  0.7729
   92MOL   C31135073   3.035   4.803   2.740  0.0440 -0.0780 -0.7182
   92MOL   C31235074   3.063   4.616   2.572 -0.7359 -0.2096  0.0187
   92MOL   C31335075   3.073   4.477   2.544  0.5609  0.1078 -0.4546
   92MOL   C31435076   2.877   4.170   2.601 -0.8594 -0.0938  0.3179
   92MOL   H31535077   3.065   4.217   2.507  1.5568 -2.5039  0.4527
   92MOL   H31635078   2.956   4.350   2.837 -1.2120 -0.2983 -0.4875
   92MOL   H31735079   2.951   4.598   2.895  0.8980  0.2953 -0.6495
   92MOL   H31835080   2.983   4.866   2.668 -2.1193  0.4410  1.2640
   92MOL   H31935081   2.982   4.816   2.834 -2.6441 -0.6553 -2.1180
   92MOL   H32035082   3.139   4.837   2.748 -0.1393  0.7326 -1.7376
   92MOL   H32135083   3.096   4.675   2.488 -1.5534  1.5147  0.8951
   92MOL   H32235084   3.108   4.451   2.446  3.2099  0.2879  0.4034
   92MOL   H32335085   2.834   4.178   2.701  1.0137  2.3355  0.9626
   92MOL   H32435086   2.881   4.065   2.570 -3.2862  0.1794 -1.1006
   92MOL   C32535087   2.779   4.241   2.504 -0.1421  0.0563  0.0264
   92MOL   C32635088   2.636   4.190   2.512 -0.5428  0.0481  0.3936
   92MOL   C32735089   2.613   4.052   2.517 -0.8387 -0.2744  0.2638
   92MOL   C32835090   2.479   4.010   2.540  0.0231 -0.0657 -0.3134
   92MOL   C32935091   2.373   4.100   2.558 -0.0293 -0.5847  0.6626
   92MOL   C33035092   2.240   4.064   2.594  0.6291 -0.1116 -0.3067
   92MOL   C33135093   2.399   4.234   2.556 -0.3081 -0.7800  0.7703
   92MOL   C33235094   2.532   4.281   2.532 -0.1175  0.1795  0.6828
   92MOL   C33335095   2.834   4.243   2.357 -0.2565 -0.0866 -0.0651
   92MOL   H33435096   2.773   4.341   2.545 -0.7522 -0.2573  0.7298
   92MOL   H33535097   2.690   3.978   2.500 -1.5465 -1.2445  1.1610
   92MOL   H33635098   2.461   3.904   2.543 -1.8276  0.2223 -0.4269
   92MOL   H33735099   2.194   4.119   2.676 -1.8067 -0.9556 -1.0599
   92MOL   H33835100   2.174   4.089   2.511 -1.2218 -0.9886  0.8740
   92MOL   H33935101   2.226   3.957   2.612 -2.6423  0.1495 -1.0541
   92MOL   H34035102   2.318   4.304   2.569  0.3299  0.8653 -3.4716
   92MOL   H34135103   2.554   4.386   2.529  0.6532  0.0143  0.5590
   92MOL   H34235104   2.831   4.139   2.324  3.6358 -0.4124  0.4277
   92MOL   H34335105   2.932   4.289   2.370  0.5487 -2.2090  1.9156
   92MOL   C34435106   2.756   4.334   2.251 -0.3416  0.7640  0.0516
   92MOL   C34535107   2.833   4.304   2.118  0.1950 -0.6055  0.2447
   92MOL   C34635108   2.949   4.379   2.081  0.2877 -0.2146 -0.6446
   92MOL   C34735109   3.038   4.336   1.979  0.1430 -0.2405 -0.6403
   92MOL   C34835110   3.015   4.211   1.915  0.1655  0.0470 -0.2696
   92MOL   C34935111   3.116   4.160   1.819 -0.4429 -0.1565 -0.1531
   92MOL   C35035112   2.901   4.142   1.948 -0.2166 -0.1279 -0.3419
   92MOL   C35135113   2.815   4.180   2.052  0.5788 -0.1539 -0.5056
   92MOL   C35235114   2.757   4.481   2.291  0.8059  0.5562 -0.0033
   92MOL   H35335115   2.653   4.303   2.235 -0.8866  1.0600  2.7631
   92MOL   H35435116   2.973   4.469   2.136 -0.8604  0.3639 -1.0703
   92MOL   H35535117   3.123   4.399   1.957  0.3545 -0.0016  0.8374
   92MOL   H35635118   3.152   4.058   1.827  0.3861 -0.0788 -2.5933
   92MOL   H35735119   3.068   4.173   1.722 -0.6326 -1.4272 -0.2283
   92MOL   H35835120   3.204   4.224   1.831 -1.2674  0.5559  2.6136
   92MOL   H35935121   2.897   4.048   1.895 -1.6651 -1.1466  1.4964
   92MOL   H36035122   2.734   4.118   2.087 -2.6804  4.1803  0.0679
   92MOL   H36135123   2.862   4.502   2.312  1.1816 -0.7482 -0.5215
   92MOL   H36235124   2.707   4.496   2.386  0.5468  0.0477 -0.0609
   92MOL   C36335125   2.693   4.584   2.198  0.0164 -0.1556  0.4549
   92MOL   C36435126   2.756   4.724   2.213  0.0493  0.4096 -0.2042
   92MOL   C36535127   2.804   4.769   2.336 -0.0610 -0.8897 -0.4625
   92MOL   C36635128   2.872   4.895   2.344 -1.3120 -0.0286 -0.9690
   92MOL   C36735129   2.888   4.977   2.232  0.3562  0.3075 -0.0518
   92MOL   C36835130   2.972   5.103   2.237 -0.9546  0.7775 -0.1239
   92MOL   C36935131   2.830   4.935   2.113  0.5004  0.4539  0.0688
   92MOL   C37035132   2.760   4.811   2.105  0.0331  0.2088  0.0982
   92MOL   C37135133   2.538   4.578   2.204 -0.1024  0.2475  0.3164
   92MOL   H37235134   2.711   4.574   2.091  2.4482 -0.0442  0.8305
   92MOL   H37335135   2.805   4.711   2.427 -0.4904  1.0883  0.8447
   92MOL   H37435136   2.927   4.923   2.433 -0.5163  1.4483 -1.9215
   92MOL   H37535137   2.977   5.129   2.343 -0.3022 -0.4038  0.1456
   92MOL   H37635138   3.064   5.084   2.182 -2.4006  0.7594 -2.5973
   92MOL   H37735139   2.933   5.180   2.170 -0.3503  0.4954 -0.8110
   92MOL   H37835140   2.850   4.986   2.020  2.6116 -0.9476 -0.2714
   92MOL   H37935141   2.718   4.777   2.011 -0.3865  1.5739 -0.2240
   92MOL   H38035142   2.494   4.639   2.125  1.1336 -0.9777 -1.3352
   92MOL   H38135143   2.495   4.618   2.297  0.4822 -0.4773  0.8994
   92MOL   H38235144   2.493   4.482   2.182 -0.4333 -0.4536  3.7620
   93MOL     C135145   6.003   4.090   5.092  0.1812 -0.2196 -0.1691
   93MOL     C235146   5.927   3.958   5.075 -0.0352  0.1293  0.2395
   93MOL     C335147   5.797   3.940   5.130  0.0894  0.2202 -0.1401
   93MOL     C435148   5.737   3.812   5.132 -0.1348 -0.1072  0.4998
   93MOL     C535149   5.796   3.704   5.062 -0.1012 -0.0550  0.6534
   93MOL     C635150   5.719   3.572   5.063  0.1660  0.4970 -0.5515
   93MOL     C735151   5.918   3.724   4.998  0.6586 -0.1111  0.4910
   93MOL     C835152   5.986   3.847   5.005 -0.6763  0.1144 -0.1030
   93MOL     C935153   5.973   4.187   4.982  0.3026 -0.0122 -0.4858
   93MOL    H1035154   5.978   4.131   5.189  3.7005  1.7812  0.0005
   93MOL    H1135155   5.744   4.011   5.192  2.7185  2.5677 -0.4716
   93MOL    H1235156   5.645   3.804   5.187 -0.2720  1.4550  0.5204
   93MOL    H1335157   5.743   3.511   5.151  1.4348  0.1259 -1.1346
   93MOL    H1435158   5.612   3.588   5.064  0.2126  0.9462  2.0623
   93MOL    H1535159   5.754   3.526   4.971  1.3115 -1.8208  0.9962
   93MOL    H1635160   5.965   3.640   4.949  1.1871  0.0015  0.8030
   93MOL    H1735161   6.081   3.868   4.958 -0.3112  1.9096  1.3555
   93MOL    H1835162   5.864   4.193   4.970  0.2702  0.7021  0.1206
   93MOL    H1935163   6.011   4.141   4.891 -1.0647  1.2901 -1.7439
   93MOL    H2035164   6.110   4.067   5.100 -0.0024 -0.0397  3.1807
   93MOL    C2135165   6.032   4.329   4.993 -0.6860 -0.4087  0.1830
   93MOL    C2235166   5.943   4.427   4.916  0.2454  0.1150  0.5249
   93MOL    C2335167   5.906   4.543   4.986  0.6843 -0.2798  0.1421
   93MOL    C2435168   5.817   4.637   4.922  0.1708  0.5134  0.2545
   93MOL    C2535169   5.775   4.612   4.789 -0.1291 -0.3166  0.9578
   93MOL    C2635170   5.674   4.705   4.723 -0.5292  0.2071  0.1867
   93MOL    C2735171   5.816   4.494   4.722  0.1286  0.0416 -1.1003
   93MOL    C2835172   5.901   4.399   4.786 -0.5007  0.0494  0.2881
   93MOL    C2935173   6.177   4.356   4.936 -0.0007 -0.4101  0.4579
   93MOL    H3035174   6.036   4.363   5.097  1.4790  0.6223 -0.2189
   93MOL    H3135175   5.944   4.572   5.082  1.5129  0.9454 -0.5433
   93MOL    H3235176   5.780   4.718   4.984 -2.1067  0.3851 -0.8823
   93MOL    H3335177   5.698   4.811   4.725  3.3985 -0.5942 -1.3573
   93MOL    H3435178   5.661   4.674   4.619  2.8379 -1.6883  0.2617
   93MOL    H3535179   5.570   4.698   4.757 -0.4408  0.9768  0.6170
   93MOL    H3635180   5.795   4.471   4.619 -0.3396 -2.3344 -0.4931
   93MOL    H3735181   5.929   4.313   4.728  0.4061 -0.4867  1.5274
   93MOL    H3835182   6.193   4.464   4.941  1.2858 -0.5654  0.0572
   93MOL    H3935183   6.185   4.336   4.829  0.7051 -0.1411  0.4535
   93MOL    C4035184   6.299   4.272   4.992  0.2342 -0.5974 -0.4300
   93MOL    C4135185   6.303   4.278   5.143 -0.1708  0.3667  0.0701
   93MOL    C4235186   6.279   4.394   5.222 -0.1172  0.7348  0.4569
   93MOL    C4335187   6.299   4.394   5.357 -0.0274  0.2309 -0.2702
   93MOL    C4435188   6.324   4.274   5.425 -0.0743 -0.0362  0.3303
   93MOL    C4535189   6.344   4.274   5.578 -0.3050  0.0119  0.1125
   93MOL    C4635190   6.339   4.156   5.347 -0.1753 -0.2219  0.1026
   93MOL    C4735191   6.327   4.158   5.208 -0.7255  0.3707  0.2157
   93MOL    C4835192   6.437   4.298   4.930 -0.2830 -0.4540  0.1776
   93MOL    H4935193   6.274   4.170   4.965  0.5984 -0.3544 -1.7292
   93MOL    H5035194   6.256   4.487   5.173 -0.2513 -0.9203 -2.7709
   93MOL    H5135195   6.291   4.489   5.408 -1.8886  1.0876 -2.0840
   93MOL    H5235196   6.246   4.288   5.624 -0.4263  2.3833 -0.8324
   93MOL    H5335197   6.387   4.178   5.607 -1.2505 -0.1028  1.1961
   93MOL    H5435198   6.397   4.365   5.605  1.0498 -0.3054 -1.3948
   93MOL    H5535199   6.350   4.060   5.397 -0.1294 -0.5482 -0.5266
   93MOL    H5635200   6.334   4.067   5.150  4.0236  1.8308 -1.7045
   93MOL    H5735201   6.508   4.243   4.991 -0.1973  1.9209  2.3269
   93MOL    H5835202   6.456   4.404   4.951  1.0929 -0.6537 -0.0425
   93MOL    C5935203   6.451   4.286   4.772  0.7344 -0.3877 -0.4385
   93MOL    C6035204   6.545   4.176   4.728 -0.3493 -0.7026 -0.3596
   93MOL    C6135205   6.668   4.146   4.790  0.0929  0.2820 -0.7028
   93MOL    C6235206   6.758   4.055   4.733  0.8516  0.7616  0.2894
   93MOL    C6335207   6.721   3.987   4.612  0.8008  0.0076 -0.2820
   93MOL    C6435208   6.813   3.887   4.554 -0.1139 -0.3415  0.8768
   93MOL    C6535209   6.593   4.003   4.557 -1.0310  0.0545 -0.0424
   93MOL    C6635210   6.506   4.098   4.615  0.3039  0.3921  0.1444
   93MOL    C6735211   6.489   4.420   4.708  0.1999 -0.4298  0.1742
   93MOL    H6835212   6.356   4.249   4.733  0.8005 -0.4199 -0.5711
   93MOL    H6935213   6.703   4.208   4.871 -1.5728  1.4506 -0.8554
   93MOL    H7035214   6.853   4.041   4.782  0.7018  2.1176  0.9654
   93MOL    H7135215   6.786   3.828   4.466 -0.2180  0.9765  0.0151
   93MOL    H7235216   6.903   3.943   4.527 -0.4502  0.3312  1.1426
   93MOL    H7335217   6.834   3.822   4.639 -1.8395 -1.9581  0.0905
   93MOL    H7435218   6.567   3.940   4.474  1.4650 -1.9782  0.6756
   93MOL    H7535219   6.410   4.111   4.567 -1.2148 -1.8375  2.4131
   93MOL    H7635220   6.547   4.402   4.618  0.0699 -0.9435  0.1951
   93MOL    H7735221   6.551   4.478   4.777 -0.8447  1.9606 -0.8496
   93MOL    C7835222   6.370   4.511   4.669 -0.2432 -0.4126 -0.8948
   93MOL    C7935223   6.289   4.449   4.556 -0.4372 -0.4225 -0.2548
   93MOL    C8035224   6.349   4.371   4.450 -0.7668  0.4901 -0.3750
   93MOL    C8135225   6.270   4.318   4.343 -0.5663  1.5248 -0.4743
   93MOL    C8235226   6.130   4.337   4.355  0.4347 -0.2535 -0.1300
   93MOL    C8335227   6.041   4.294   4.244 -0.1392  0.1728 -0.1513
   93MOL    C8435228   6.069   4.409   4.460 -0.1516 -0.5100 -0.0795
   93MOL    C8535229   6.149   4.461   4.564  0.4096  0.1310  0.0248
   93MOL    C8635230   6.422   4.654   4.631  0.2411 -0.0886 -0.6411
   93MOL    H8735231   6.309   4.516   4.760 -1.6345 -1.9646 -1.7250
   93MOL    H8835232   6.455   4.363   4.431 -0.7576 -1.3343  0.4372
   93MOL    H8935233   6.320   4.260   4.267  0.6578  2.4504 -0.3887
   93MOL    H9035234   6.086   4.297   4.145 -2.0611  2.0359 -0.9898
   93MOL    H9135235   6.024   4.187   4.257  0.0179  0.4160  2.2910
   93MOL    H9235236   5.943   4.341   4.251 -0.1536  0.3226 -1.2670
   93MOL    H9335237   5.963   4.428   4.459  0.3762  2.7141 -0.3361
   93MOL    H9435238   6.096   4.523   4.635 -0.4235 -0.5793  0.0300
   93MOL    H9535239   6.354   4.700   4.559  0.4093 -0.3546 -0.9673
   93MOL    H9635240   6.508   4.643   4.565 -0.5826 -0.5416 -1.6528
   93MOL    C9735241   6.448   4.748   4.749 -0.3010  0.0484 -0.3335
   93MOL    C9835242   6.328   4.804   4.828  0.3474  0.0327 -0.2716
   93MOL    C9935243   6.335   4.835   4.965 -0.0267 -0.0612  0.6045
   93MOL   C10035244   6.226   4.878   5.040 -0.4816 -0.2765  0.5152
   93MOL   C10135245   6.100   4.889   4.977  0.4378  0.4047  0.5275
   93MOL   C10235246   5.989   4.952   5.053 -0.2554  0.6110 -0.2541
   93MOL   C10335247   6.089   4.866   4.831  0.5400 -0.4615 -0.6622
   93MOL   C10435248   6.204   4.818   4.765 -0.7819  0.7714 -0.2144
   93MOL   C10535249   6.547   4.861   4.718  0.4609  0.7944  0.0802
   93MOL   H10635250   6.501   4.690   4.826  0.8077  1.5228  0.0423
   93MOL   H10735251   6.433   4.833   5.011  0.0279  1.3458  0.5709
   93MOL   H10835252   6.246   4.892   5.145  0.3106 -2.2621  0.6566
   93MOL   H10935253   6.008   4.932   5.158 -0.2653  0.3349 -0.3037
   93MOL   H11035254   5.993   5.060   5.064 -0.8370  0.7808 -1.5760
   93MOL   H11135255   5.890   4.925   5.016 -0.3426 -0.0705  0.4461
   93MOL   H11235256   5.997   4.858   4.774  0.8583  1.0159 -1.3980
   93MOL   H11335257   6.179   4.797   4.662 -0.2989  0.4472 -0.2633
   93MOL   H11435258   6.559   4.899   4.819  0.0471 -0.3091  0.5408
   93MOL   H11535259   6.496   4.930   4.650 -1.2545 -0.3517  0.1735
   93MOL   C11635260   6.689   4.824   4.671  0.2014 -1.3613 -0.3843
   93MOL   C11735261   6.749   4.704   4.748 -0.7287 -0.1413 -0.0183
   93MOL   C11835262   6.774   4.586   4.681 -0.2586  0.6599  0.4149
   93MOL   C11935263   6.854   4.483   4.745 -0.0826 -0.4071  0.4592
   93MOL   C12035264   6.895   4.500   4.879 -0.1683  0.1617  0.0095
   93MOL   C12135265   6.939   4.372   4.950  0.2847 -0.2106 -0.2045
   93MOL   C12235266   6.860   4.619   4.948 -0.1085  0.7504  0.7337
   93MOL   C12335267   6.797   4.722   4.880 -0.0886 -0.1240  0.7606
   93MOL   C12435268   6.780   4.950   4.673 -0.0334  0.1108 -0.0802
   93MOL   H12535269   6.684   4.805   4.563 -2.6016  0.5387 -0.6479
   93MOL   H12635270   6.737   4.576   4.580  1.8245  1.3138 -0.4311
   93MOL   H12735271   6.889   4.399   4.688 -0.6116 -0.6496  0.4847
   93MOL   H12835272   6.903   4.284   4.897  0.1037 -0.2559 -0.0038
   93MOL   H12935273   7.048   4.385   4.944 -0.0634  1.8134 -3.9262
   93MOL   H13035274   6.895   4.366   5.049 -0.3087 -1.1056 -0.5232
   93MOL   H13135275   6.878   4.631   5.053  0.8276  0.3961  0.6187
   93MOL   H13235276   6.776   4.817   4.927 -0.3464 -0.5490  1.5121
   93MOL   H13335277   6.878   4.910   4.646 -0.9052 -0.5896 -2.3169
   93MOL   H13435278   6.772   4.981   4.777 -0.9933 -1.5960  0.3775
   93MOL   C13535279   6.736   5.054   4.566 -0.0570 -0.1492  0.0295
   93MOL   C13635280   6.764   5.012   4.422  0.0940  0.0266 -0.0132
   93MOL   C13735281   6.659   5.024   4.331  0.3796  0.4056  0.7714
   93MOL   C13835282   6.682   4.992   4.195  0.3868  0.8956 -0.5664
   93MOL   C13935283   6.805   4.941   4.154 -0.1615  0.3972  0.1911
   93MOL   C14035284   6.831   4.914   4.004  0.4729 -0.6897  0.1779
   93MOL   C14135285   6.906   4.915   4.248 -0.5348 -0.1970 -0.2308
   93MOL   C14235286   6.885   4.961   4.378 -0.1778 -0.2501 -0.7948
   93MOL   C14335287   6.794   5.195   4.591  0.2833 -0.5422  0.1124
   93MOL   H14435288   6.627   5.063   4.566 -0.0363  0.3755 -1.9535
   93MOL   H14535289   6.562   5.063   4.358  0.4817  0.3793  1.1744
   93MOL   H14635290   6.597   5.009   4.130  0.1257 -0.0073 -0.4682
   93MOL   H14735291   6.815   5.003   3.943  1.7817 -1.0336 -0.6998
   93MOL   H14835292   6.937   4.892   3.988  0.6834  1.5904 -1.8931
   93MOL   H14935293   6.770   4.829   3.973  1.3462 -0.1139 -3.3908
   93MOL   H15035294   7.005   4.880   4.222  0.7451  0.3402  3.5474
   93MOL   H15135295   6.973   4.965   4.441  0.6959 -0.6920 -1.9674
   93MOL   H15235296   6.764   5.258   4.507 -1.1435  1.0989  1.8032
   93MOL   H15335297   6.901   5.196   4.572  0.3811  0.1968  0.6616
   93MOL   C15435298   6.757   5.264   4.726 -0.4829  0.1420 -0.1152
   93MOL   C15535299   6.604   5.272   4.750  0.0631  0.8726  0.5495
   93MOL   C15635300   6.518   5.340   4.656  0.2576  0.2086  0.1651
   93MOL   C15735301   6.375   5.329   4.671  0.3891  0.9152  0.1349
   93MOL   C15835302   6.313   5.269   4.790  0.2516  0.1180 -0.1027
   93MOL   C15935303   6.157   5.251   4.802 -0.2471 -0.3587 -0.4346
   93MOL   C16035304   6.398   5.206   4.884  0.1447  0.8381  0.2323
   93MOL   C16135305   6.541   5.210   4.864  0.1545 -0.5114 -0.2482
   93MOL   C16235306   6.829   5.401   4.758  0.0329  0.5164  0.1699
   93MOL   H16335307   6.787   5.197   4.806 -0.7280 -1.1379 -1.0855
   93MOL   H16435308   6.564   5.380   4.567 -0.6663  0.5640 -0.1507
   93MOL   H16535309   6.316   5.369   4.590  0.0896 -2.6721 -1.4826
   93MOL   H16635310   6.104   5.294   4.717 -0.7048 -0.7799 -0.3639
   93MOL   H16735311   6.129   5.146   4.809 -0.8012 -0.1603  0.4127
   93MOL   H16835312   6.114   5.308   4.885 -0.4048 -0.5414 -0.3901
   93MOL   H16935313   6.353   5.151   4.965 -2.8989  2.4920 -0.2694
   93MOL   H17035314   6.601   5.154   4.934  0.7359  1.1695  0.6079
   93MOL   H17135315   6.789   5.437   4.853  0.2997  2.5576 -0.4595
   93MOL   H17235316   6.809   5.487   4.694  1.3143 -0.4566 -1.5848
   93MOL   C17335317   6.988   5.390   4.773  0.0906  0.8815  0.4450
   93MOL   C17435318   7.022   5.266   4.851 -0.4586 -0.2154 -0.1883
   93MOL   C17535319   7.058   5.147   4.784  0.0075 -0.0814 -0.0992
   93MOL   C17635320   7.087   5.034   4.857  0.4489  0.0904 -0.5110
   93MOL   C17735321   7.069   5.035   5.001  0.0672 -0.9559 -1.2085
   93MOL   C17835322   7.093   4.910   5.078  0.1025  0.2470 -0.5408
   93MOL   C17935323   7.020   5.149   5.066  0.4810 -0.6996  0.0246
   93MOL   C18035324   6.994   5.262   4.987 -0.2172 -0.3849  0.0251
   93MOL   C18135325   7.050   5.517   4.831  0.0530 -0.4814 -0.4458
   93MOL   H18235326   7.033   5.372   4.676 -0.7148 -1.8358  0.5264
   93MOL   H18335327   7.070   5.143   4.677 -2.0806 -0.0003 -0.3496
   93MOL   H18435328   7.131   4.945   4.814  1.5832 -0.1946  1.1661
   93MOL   H18535329   7.083   4.817   5.023 -1.5547  1.1215 -1.7783
   93MOL   H18635330   7.189   4.900   5.129 -0.7541 -0.9850  0.8462
   93MOL   H18735331   7.021   4.896   5.158 -1.0935  1.9569 -1.2808
   93MOL   H18835332   6.997   5.151   5.171  0.2924  4.0519 -0.0328
   93MOL   H18935333   6.947   5.349   5.030 -0.3069  0.9827 -2.7403
   93MOL   H19035334   7.005   5.549   4.924  0.0429  0.1781 -0.6785
   93MOL   H19135335   7.020   5.587   4.754 -0.4105 -0.2639 -0.0675
   93MOL   C19235336   7.199   5.514   4.864  0.0077  0.0798 -0.3682
   93MOL   C19335337   7.249   5.641   4.931 -0.2632  0.2012  0.4402
   93MOL   C19435338   7.330   5.641   5.049 -1.3870 -0.1548 -0.0974
   93MOL   C19535339   7.375   5.760   5.117  1.1251 -0.1258 -0.6780
   93MOL   C19635340   7.320   5.883   5.081 -0.2115  0.1192  0.0407
   93MOL   C19735341   7.352   6.010   5.157  0.2442 -0.1329  0.7405
   93MOL   C19835342   7.229   5.885   4.976  0.0380  0.5058  1.0888
   93MOL   C19935343   7.203   5.772   4.894  0.3003  0.2243 -0.1947
   93MOL   C20035344   7.290   5.474   4.745 -0.3130 -0.3014  0.4489
   93MOL   H20135345   7.209   5.437   4.940  0.6075 -0.8478 -1.3793
   93MOL   H20235346   7.369   5.545   5.080  0.1723  0.2049 -0.8409
   93MOL   H20335347   7.443   5.753   5.201 -0.1353  0.4396  0.4000
   93MOL   H20435348   7.419   6.070   5.095 -0.4282 -0.2206 -0.0915
   93MOL   H20535349   7.260   6.064   5.177  0.6718  1.9194 -2.3753
   93MOL   H20635350   7.386   5.996   5.259 -0.9374  0.3052  1.1968
   93MOL   H20735351   7.197   5.980   4.935  0.5708  0.4413  0.5287
   93MOL   H20835352   7.137   5.790   4.810  0.3408 -1.8154 -0.6861
   93MOL   H20935353   7.343   5.567   4.722 -1.0810  0.2544  0.8880
   93MOL   H21035354   7.235   5.448   4.655 -0.3924 -0.4995  0.5547
   93MOL   C21135355   7.385   5.352   4.778 -0.4221 -0.1613 -0.1219
   93MOL   C21235356   7.476   5.366   4.900 -0.1299  0.1089  0.1305
   93MOL   C21335357   7.568   5.473   4.904 -0.0192 -0.1845 -0.2902
   93MOL   C21435358   7.632   5.508   5.018 -0.8965  0.7331 -0.0661
   93MOL   C21535359   7.626   5.426   5.133  0.0375  0.3698  0.5158
   93MOL   C21635360   7.688   5.465   5.264  0.7946  0.0134 -0.6509
   93MOL   C21735361   7.551   5.312   5.128  0.5265  0.3374 -0.3098
   93MOL   C21835362   7.471   5.282   5.014  0.0590 -0.0622 -0.2592
   93MOL   C21935363   7.464   5.307   4.647  0.2132  0.4982 -0.1477
   93MOL   H22035364   7.317   5.269   4.800  1.1269 -1.9491 -1.8178
   93MOL   H22135365   7.571   5.540   4.819 -0.4935  1.6125  1.0711
   93MOL   H22235366   7.697   5.594   5.025  0.6029 -0.3184 -0.8215
   93MOL   H22335367   7.748   5.387   5.310  1.4595  0.8524 -0.0790
   93MOL   H22435368   7.763   5.543   5.251  2.4799 -1.4425  0.1510
   93MOL   H22535369   7.618   5.509   5.335  1.2276 -1.2628  0.5938
   93MOL   H22635370   7.540   5.242   5.209 -0.2130  2.3645  1.3994
   93MOL   H22735371   7.410   5.192   5.023  0.5001 -0.3671 -0.3237
   93MOL   H22835372   7.524   5.396   4.628  1.3849  0.0896  1.4740
   93MOL   H22935373   7.392   5.297   4.566 -2.5891 -0.5618  2.3761
   93MOL   C23035374   7.549   5.175   4.661  0.2492  0.4181 -0.3566
   93MOL   C23135375   7.647   5.168   4.538 -0.3616 -0.3132 -0.4259
   93MOL   C23235376   7.592   5.129   4.413  0.0922 -0.3304  0.3978
   93MOL   C23335377   7.674   5.140   4.297  0.0549  0.5021 -0.1641
   93MOL   C23435378   7.804   5.187   4.303  0.3199 -0.5741  0.4517
   93MOL   C23535379   7.887   5.204   4.186  0.4202  0.3208 -0.1002
   93MOL   C23635380   7.861   5.214   4.429  0.0533  0.3606  0.3311
   93MOL   C23735381   7.782   5.213   4.544 -0.6569 -0.1567  0.8265
   93MOL   C23835382   7.465   5.050   4.680 -0.7704  0.2534 -0.7773
   93MOL   H23935383   7.611   5.193   4.749  0.4314 -0.9902 -0.1898
   93MOL   H24035384   7.490   5.094   4.407  0.3488 -1.4949  2.4984
   93MOL   H24135385   7.623   5.119   4.204  0.1731  2.1291 -0.6183
   93MOL   H24235386   7.979   5.147   4.183  0.8634  1.0400 -0.2106
   93MOL   H24335387   7.835   5.180   4.093 -1.7590 -0.5746  1.3112
   93MOL   H24435388   7.908   5.310   4.170 -1.6342  1.0635  1.7686
   93MOL   H24535389   7.963   5.246   4.445  0.5808  0.0816 -2.2451
   93MOL   H24635390   7.820   5.240   4.642  2.1135 -2.9115  0.5946
   93MOL   H24735391   7.399   5.032   4.595 -1.2657  0.7282 -0.4979
   93MOL   H24835392   7.389   5.063   4.757 -0.6339  2.0856 -0.9168
   93MOL   C24935393   7.541   4.911   4.698 -0.7606  0.3975  0.5269
   93MOL   C25035394   7.443   4.798   4.679  0.2863 -0.3004  0.4201
   93MOL   C25135395   7.451   4.716   4.564 -0.6730  0.2015 -0.9549
   93MOL   C25235396   7.355   4.619   4.532  0.5849 -0.4872 -0.3045
   93MOL   C25335397   7.249   4.599   4.620  0.0058 -0.6747  1.1471
   93MOL   C25435398   7.147   4.502   4.571  0.4596  1.2331  0.2083
   93MOL   C25535399   7.229   4.686   4.731  0.5838 -0.0824  0.1041
   93MOL   C25635400   7.323   4.783   4.756  0.4292  0.2510 -0.2885
   93MOL   C25735401   7.628   4.893   4.822 -0.5070 -0.5341 -0.2754
   93MOL   H25835402   7.605   4.911   4.610 -1.0713  0.1318  0.2958
   93MOL   H25935403   7.538   4.728   4.502 -0.9285 -0.1132 -1.3769
   93MOL   H26035404   7.367   4.571   4.436 -0.1952 -1.7209  0.2044
   93MOL   H26135405   7.191   4.435   4.496 -0.0832  0.8590  0.2244
   93MOL   H26235406   7.115   4.431   4.648  2.2695  1.6054  1.3399
   93MOL   H26335407   7.067   4.562   4.528 -0.4406  0.6128  0.9905
   93MOL   H26435408   7.136   4.687   4.785  1.1903 -0.1686  1.1745
   93MOL   H26535409   7.301   4.848   4.840 -0.1609  1.3283 -1.2722
   93MOL   H26635410   7.585   4.804   4.867 -1.7302  1.2188  2.2002
   93MOL   H26735411   7.586   4.970   4.888 -1.6837  1.1373 -2.8854
   93MOL   C26835412   7.784   4.896   4.802 -0.2754  0.0358  0.7840
   93MOL   C26935413   7.822   4.789   4.703 -0.1736  0.0781  0.1537
   93MOL   C27035414   7.878   4.833   4.584  0.5947 -0.3371  0.2498
   93MOL   C27135415   7.926   4.742   4.489 -0.0428 -0.1904  0.1122
   93MOL   C27235416   7.913   4.608   4.520  0.2743  0.1212  0.3420
   93MOL   C27335417   7.971   4.506   4.415 -0.4720 -0.2061  0.3713
   93MOL   C27435418   7.827   4.564   4.626 -0.2571  0.0381 -0.1142
   93MOL   C27535419   7.781   4.655   4.716 -0.6218 -0.1157  0.0235
   93MOL   C27635420   7.853   4.860   4.932 -0.5394 -0.6587 -0.3367
   93MOL   H27735421   7.809   4.997   4.769  0.1245  0.1898  1.5347
   93MOL   H27835422   7.894   4.938   4.564  2.3428 -0.0541  2.7679
   93MOL   H27935423   7.975   4.768   4.396  1.1269  1.5293  1.1721
   93MOL   H28035424   7.934   4.534   4.316 -0.0317  0.2358  0.3291
   93MOL   H28135425   8.079   4.511   4.398 -1.0029  0.3612 -3.2413
   93MOL   H28235426   7.937   4.404   4.434 -0.2580 -0.0609  1.5367
   93MOL   H28335427   7.798   4.462   4.644  1.3113 -0.0977  1.7378
   93MOL   H28435428   7.731   4.612   4.802 -0.8660  0.9570  0.4178
   93MOL   H28535429   7.960   4.849   4.911 -0.2692  2.7602 -1.1157
   93MOL   H28635430   7.814   4.773   4.984 -1.3713 -1.3517 -2.0935
   93MOL   C28735431   7.843   4.963   5.046  0.1714 -0.3165  0.2025
   93MOL   C28835432   7.916   5.090   5.012 -0.2654  0.2965  0.3882
   93MOL   C28935433   8.058   5.092   5.011  0.0372 -0.1952  0.5350
   93MOL   C29035434   0.061   5.191   4.950  1.1567  0.2692  0.3865
   93MOL   C29135435   8.074   5.302   4.891  0.5464 -0.8301 -0.3778
   93MOL   C29235436   0.074   5.411   4.820  0.1765 -0.0339  0.4198
   93MOL   C29335437   7.929   5.308   4.895 -0.0526 -0.7038 -1.1770
   93MOL   C29435438   7.855   5.198   4.951 -0.7257 -0.0903 -0.6151
   93MOL   C29535439   7.882   4.901   5.184 -0.9833 -0.1588  0.3444
   93MOL   H29635440   7.739   4.996   5.049 -0.7778 -3.1821 -0.1947
   93MOL   H29735441   0.031   5.004   5.044 -0.0593 -0.5871 -0.3477
   93MOL   H29835442   0.168   5.172   4.947  0.8368 -1.5371 -0.5056
   93MOL   H29935443   0.041   5.511   4.848  0.6818  1.0176 -2.5133
   93MOL   H30035444   0.181   5.410   4.842  1.1847  0.6673 -3.8207
   93MOL   H30135445   0.079   5.414   4.711 -0.5000  0.7287  0.4003
   93MOL   H30235446   7.879   5.393   4.850  0.9920  0.9853  0.7760
   93MOL   H30335447   7.748   5.211   4.945 -0.6711 -0.1124 -1.6864
   93MOL   H30435448   7.989   4.881   5.189 -0.5151  1.4884 -2.3759
   93MOL   H30535449   7.839   4.802   5.195 -0.0903 -0.6524 -0.5358
   93MOL   C30635450   7.843   4.992   5.303  0.6515  0.4439  0.2764
   93MOL   C30735451   7.923   4.969   5.424  0.6995  0.1057 -0.1744
   93MOL   C30835452   7.963   4.840   5.472 -0.3078  0.0261  0.2856
   93MOL   C30935453   8.022   4.831   5.602 -0.8289 -0.3054 -0.5513
   93MOL   C31035454   8.056   4.948   5.674  0.0011 -0.9322 -0.2627
   93MOL   C31135455   0.041   4.947   5.813 -0.5836  0.4115 -0.3216
   93MOL   C31235456   8.015   5.074   5.628  1.2997 -0.7006 -0.1840
   93MOL   C31335457   7.954   5.085   5.501 -0.2448  0.7340 -0.2091
   93MOL   C31435458   7.691   5.012   5.328 -0.3270  0.2186 -0.8616
   93MOL   H31535459   7.868   5.089   5.260 -1.8877  0.9201 -0.2110
   93MOL   H31635460   7.930   4.751   5.421  2.1948 -0.1782 -1.0466
   93MOL   H31735461   8.046   4.737   5.650 -1.3460  0.1395  0.6119
   93MOL   H31835462   0.144   4.985   5.813  0.5232 -2.3995  1.6943
   93MOL   H31935463   8.070   5.016   5.880 -0.5655  1.6863 -1.6006
   93MOL   H32035464   0.058   4.849   5.858  0.5509  0.5983 -0.3113
   93MOL   H32135465   8.030   5.168   5.679  0.9231 -0.8999  0.2932
   93MOL   H32235466   7.939   5.185   5.463 -0.9721  1.2137  1.3210
   93MOL   H32335467   7.634   5.034   5.237  2.7337  2.0081 -2.4450
   93MOL   H32435468   7.679   5.107   5.381  1.4996  0.1539 -0.3089
   93MOL   C32535469   7.625   4.894   5.401  0.0261  0.1661  0.7156
   93MOL   C32635470   7.613   4.774   5.310  0.1920 -0.3796 -0.0410
   93MOL   C32735471   7.517   4.781   5.202 -0.1945 -0.0077  0.3745
   93MOL   C32835472   7.505   4.672   5.115 -0.9235 -0.6601 -0.4190
   93MOL   C32935473   7.576   4.554   5.130  0.3676  0.2184  0.3622
   93MOL   C33035474   7.562   4.442   5.038  0.0232  0.0541 -0.4741
   93MOL   C33135475   7.665   4.548   5.241 -0.0693  0.2261  0.0808
   93MOL   C33235476   7.682   4.654   5.328 -0.7001 -1.2563 -0.6045
   93MOL   C33335477   7.487   4.934   5.459  0.4265  1.3639 -0.6766
   93MOL   H33435478   7.696   4.871   5.481  0.3462  1.3581  0.7804
   93MOL   H33535479   7.459   4.870   5.186  1.0198  0.6535 -0.4308
   93MOL   H33635480   7.448   4.679   5.023  1.1529 -1.1144 -1.7794
   93MOL   H33735481   7.651   4.443   4.975 -0.3593 -3.0554 -1.1243
   93MOL   H33835482   7.552   4.349   5.094 -0.5551 -0.6729 -1.7624
   93MOL   H33935483   7.470   4.456   4.981 -1.7631  0.2893  2.3264
   93MOL   H34035484   7.731   4.464   5.252 -0.1369 -0.0621 -1.5498
   93MOL   H34135485   7.745   4.645   5.415 -1.3646  1.3275  0.1943
   93MOL   H34235486   7.427   4.980   5.380  0.9207 -1.0310 -2.4732
   93MOL   H34335487   7.492   5.019   5.527 -1.7799  2.3897 -1.7286
   93MOL   C34435488   7.405   4.820   5.517 -0.0155 -0.0539 -0.1280
   93MOL   C34535489   7.260   4.859   5.520  0.1384 -0.8564 -0.5187
   93MOL   C34635490   7.211   4.947   5.619  0.1077  1.0986 -0.0581
   93MOL   C34735491   7.090   5.016   5.608 -0.1028 -0.3395 -0.0376
   93MOL   C34835492   7.004   4.970   5.508 -0.3861 -0.3368 -0.2556
   93MOL   C34935493   6.876   5.029   5.480  0.5826  0.8512  0.2059
   93MOL   C35035494   7.035   4.859   5.427  0.0259  0.0297 -0.9180
   93MOL   C35135495   7.170   4.814   5.424  0.7436  0.0111  0.4316
   93MOL   C35235496   7.474   4.773   5.647  0.6311  0.4631  0.2175
   93MOL   H35335497   7.419   4.742   5.442 -0.6326  0.3701 -0.7007
   93MOL   H35435498   7.265   4.985   5.704  0.3757  1.6495 -0.4748
   93MOL   H35535499   7.057   5.091   5.679 -0.9032  0.4047 -1.1723
   93MOL   H35635500   6.873   5.101   5.397 -0.9301 -0.1159 -0.6060
   93MOL   H35735501   6.798   4.954   5.486  0.9413  0.4735  0.2059
   93MOL   H35835502   6.851   5.089   5.567  1.5017  0.3510  0.8244
   93MOL   H35935503   6.959   4.826   5.357  0.5549 -2.4457 -0.3949
   93MOL   H36035504   7.212   4.747   5.351  0.9427 -0.3220  0.8462
   93MOL   H36135505   7.465   4.861   5.710  1.4167  0.8792 -0.2355
   93MOL   H36235506   7.579   4.746   5.632  0.0650 -2.6623  1.3945
   93MOL   C36335507   7.410   4.657   5.733  0.1366 -0.2599 -0.2702
   93MOL   C36435508   7.475   4.646   5.865 -0.1968 -0.0778 -0.8783
   93MOL   C36535509   7.396   4.659   5.980  0.2182 -0.2193  0.2463
   93MOL   C36635510   7.460   4.646   6.107  0.1709 -0.3534 -0.5223
   93MOL   C36735511   7.596   4.614   6.120 -0.0651  0.0977 -0.1909
   93MOL   C36835512   7.650   4.592   6.263  0.1701 -0.4058  0.2573
   93MOL   C36935513   7.677   4.606   6.005  0.1247  0.9170  0.2382
   93MOL   C37035514   7.615   4.623   5.875 -0.2048  0.1176 -0.0907
   93MOL   C37135515   7.418   4.524   5.655 -0.0612  0.0890 -0.3670
   93MOL   H37235516   7.305   4.686   5.743  0.3296 -0.0511  1.3741
   93MOL   H37335517   7.289   4.663   5.970  0.3230 -1.7370 -1.6198
   93MOL   H37435518   7.398   4.655   6.195  1.5245 -1.9690  0.6230
   93MOL   H37535519   7.714   4.677   6.286 -2.3503  0.9829  2.3430
   93MOL   H37635520   7.573   4.587   6.339  0.2797  1.0272  0.4669
   93MOL   H37735521   7.713   4.503   6.251 -1.8198 -1.7387 -0.4799
   93MOL   H37835522   7.781   4.585   6.022 -0.2854  0.2951  2.0456
   93MOL   H37935523   7.673   4.612   5.784 -0.5870 -0.2790 -0.2894
   93MOL   H38035524   7.521   4.511   5.620 -0.5428 -2.7082 -0.8786
   93MOL   H38135525   7.358   4.538   5.565 -0.1712  0.1250 -0.2874
   93MOL   H38235526   7.376   4.440   5.710 -1.2743  1.2292  0.4763
   94MOL     C135527   3.708   3.163   7.148  0.3000 -0.3187 -0.1723
   94MOL     C235528   3.789   3.037   7.126  0.8243 -0.2207  0.1195
   94MOL     C335529   3.782   2.930   7.219 -0.5282  1.3352 -0.3854
   94MOL     C435530   3.870   2.818   7.205  1.2096  0.1783  0.2783
   94MOL     C535531   3.964   2.819   7.097 -0.1125 -0.1631 -0.6049
   94MOL     C635532   4.053   2.699   7.078  0.5529  0.0979 -0.5153
   94MOL     C735533   3.972   2.929   7.014 -0.1598  0.2286 -0.0677
   94MOL     C835534   3.887   3.034   7.028 -0.1848  0.7959  0.0564
   94MOL     C935535   3.574   3.155   7.065  0.4529  0.3846 -0.2619
   94MOL    H1035536   3.688   3.176   7.254 -1.4919  0.8052 -0.6425
   94MOL    H1135537   3.711   2.926   7.300  2.2561 -1.6559  2.0568
   94MOL    H1235538   3.855   2.733   7.270  0.2786  0.1569  0.0357
   94MOL    H1335539   4.091   2.658   7.171  0.6427 -0.6517 -0.8806
   94MOL    H1435540   4.011   2.617   7.019  0.9995  0.1600 -0.9245
   94MOL    H1535541   4.138   2.723   7.015  0.3472 -1.2391 -1.3153
   94MOL    H1635542   4.053   2.931   6.942  3.2840  0.6893  3.6646
   94MOL    H1735543   3.892   3.111   6.952  0.1437  0.7119 -0.0043
   94MOL    H1835544   3.557   3.048   7.062  0.1638  0.3741  1.0819
   94MOL    H1935545   3.581   3.196   6.965 -0.1230 -2.8975 -1.6908
   94MOL    H2035546   3.777   3.235   7.105  2.3764 -1.9192  0.3703
   94MOL    C2135547   3.450   3.216   7.144 -0.5785  0.2318  0.2647
   94MOL    C2235548   3.316   3.182   7.079 -0.8872 -0.0173  0.3163
   94MOL    C2335549   3.308   3.127   6.950 -0.3059 -0.4149 -0.2511
   94MOL    C2435550   3.179   3.083   6.901 -0.7265  0.6798  0.1974
   94MOL    C2535551   3.064   3.115   6.974 -0.4000 -0.1370  0.1508
   94MOL    C2635552   2.921   3.082   6.926 -0.2962 -0.8691 -0.8257
   94MOL    C2735553   3.075   3.186   7.095  0.3196  0.5219  0.1117
   94MOL    C2835554   3.201   3.222   7.146  0.3331 -0.0165 -0.1723
   94MOL    C2935555   3.466   3.365   7.186 -0.5275 -0.2770  0.4908
   94MOL    H3035556   3.447   3.171   7.243 -0.5158  1.7987  1.0069
   94MOL    H3135557   3.391   3.098   6.887  1.1279  1.1771  0.8484
   94MOL    H3235558   3.176   3.036   6.803 -2.8226 -1.8510  1.4090
   94MOL    H3335559   2.923   3.063   6.819 -0.8336 -1.2920 -0.7603
   94MOL    H3435560   2.886   2.991   6.974 -0.6158 -0.7652 -0.8587
   94MOL    H3535561   2.868   3.173   6.956  0.4856 -0.5343 -0.4223
   94MOL    H3635562   2.985   3.210   7.149  0.2220  1.6256 -0.5246
   94MOL    H3735563   3.212   3.279   7.237 -1.0845 -0.4106  0.2561
   94MOL    H3835564   3.568   3.380   7.222 -0.2273 -0.2300 -0.3769
   94MOL    H3935565   3.403   3.381   7.274 -0.9691  0.0181  0.1224
   94MOL    C4035566   3.432   3.479   7.085 -0.4073  0.7450 -0.0263
   94MOL    C4135567   3.522   3.489   6.964 -0.1980  0.5040  0.2475
   94MOL    C4235568   3.461   3.495   6.835  0.7292 -0.2713  0.9667
   94MOL    C4335569   3.539   3.515   6.719  0.4825 -0.0581  0.4189
   94MOL    C4435570   3.681   3.525   6.734  0.5507  0.3977  0.4016
   94MOL    C4535571   3.768   3.519   6.606  0.4606 -0.0004  0.1819
   94MOL    C4635572   3.738   3.524   6.857  0.0566 -0.3134  0.5329
   94MOL    C4735573   3.655   3.509   6.966  0.0763 -0.0447 -0.2537
   94MOL    C4835574   3.424   3.616   7.158  0.3434 -0.6146  0.5851
   94MOL    H4935575   3.333   3.450   7.050 -0.9797  2.0115  0.4951
   94MOL    H5035576   3.353   3.493   6.828  0.7238 -0.0027  0.9679
   94MOL    H5135577   3.492   3.519   6.622  0.8367 -0.7245  0.2209
   94MOL    H5235578   3.721   3.496   6.510  0.0516  2.0424 -0.1175
   94MOL    H5335579   3.826   3.610   6.592 -0.3937  0.4903 -0.2472
   94MOL    H5435580   3.833   3.436   6.632 -1.6706 -2.0967 -0.8917
   94MOL    H5535581   3.844   3.544   6.858 -0.2716  1.8123 -1.8725
   94MOL    H5635582   3.715   3.518   7.056  0.5634  2.0635 -0.7657
   94MOL    H5735583   3.523   3.647   7.194 -0.8312  1.3497  2.2600
   94MOL    H5835584   3.367   3.592   7.248 -1.8913  0.2232 -0.5798
   94MOL    C5935585   3.361   3.743   7.081  0.0515  0.6031  0.0047
   94MOL    C6035586   3.380   3.877   7.151 -0.3682  0.3007 -0.1480
   94MOL    C6135587   3.465   3.966   7.083 -0.6583 -0.4537 -0.9649
   94MOL    C6235588   3.487   4.096   7.143 -0.6051  0.0174  0.4084
   94MOL    C6335589   3.426   4.128   7.265 -0.4469 -0.0173  0.6570
   94MOL    C6435590   3.449   4.266   7.316 -0.3509 -0.2159 -0.2059
   94MOL    C6535591   3.354   4.033   7.342 -0.4825  0.2813 -0.6384
   94MOL    C6635592   3.323   3.907   7.277  0.8232 -0.7604 -0.6790
   94MOL    C6735593   3.217   3.718   7.047  0.0308  0.2445  0.0075
   94MOL    H6835594   3.410   3.760   6.985  0.6657  0.7846  0.3413
   94MOL    H6935595   3.512   3.952   6.986 -0.3321 -0.0028 -0.8717
   94MOL    H7035596   3.552   4.166   7.094  1.4631 -2.5509 -0.6303
   94MOL    H7135597   3.374   4.321   7.259 -0.3374  1.2553  1.1376
   94MOL    H7235598   3.421   4.275   7.421  2.9380 -1.2219  0.8185
   94MOL    H7335599   3.550   4.306   7.306  0.1948 -1.2097  1.2067
   94MOL    H7435600   3.334   4.054   7.446  1.0098 -0.8492 -0.1079
   94MOL    H7535601   3.267   3.829   7.327 -1.9781  0.0605 -2.4163
   94MOL    H7635602   3.165   3.705   7.142 -0.3494 -0.4693 -0.2925
   94MOL    H7735603   3.194   3.618   7.009  1.1268 -0.2104  0.5223
   94MOL    C7835604   3.143   3.834   6.980  0.6562  0.1900 -0.1907
   94MOL    C7935605   2.994   3.809   6.999  0.0494 -0.4690  0.5434
   94MOL    C8035606   2.924   3.712   6.934 -0.1535 -0.0616  0.3698
   94MOL    C8135607   2.784   3.696   6.958 -0.4385  0.1805 -0.7587
   94MOL    C8235608   2.719   3.785   7.043 -0.0479 -0.1983 -0.3908
   94MOL    C8335609   2.568   3.766   7.071 -0.2306  0.5252  0.0757
   94MOL    C8435610   2.786   3.895   7.101  0.0131  0.0224  0.1284
   94MOL    C8535611   2.927   3.901   7.077  0.0526 -0.8198  0.7288
   94MOL    C8635612   3.176   3.858   6.836 -0.0733 -0.5391 -0.1211
   94MOL    H8735613   3.173   3.921   7.037  0.9284  0.7533 -1.1778
   94MOL    H8835614   2.971   3.638   6.870  1.1255  0.3971  0.7584
   94MOL    H8935615   2.729   3.617   6.908 -0.3470 -0.5207  0.2360
   94MOL    H9035616   2.554   3.743   7.177  0.0151 -1.7433 -0.3704
   94MOL    H9135617   2.520   3.862   7.049 -2.1706 -1.0938 -3.0632
   94MOL    H9235618   2.522   3.688   7.011  0.4095  1.2557 -1.3960
   94MOL    H9335619   2.740   3.977   7.152  1.3700  0.5041  0.5934
   94MOL    H9435620   2.990   3.979   7.117  0.5671 -0.6011 -0.4913
   94MOL    H9535621   3.142   3.774   6.775  2.7962 -1.6562 -0.3001
   94MOL    H9635622   3.285   3.857   6.842 -0.0951  0.5279  0.4822
   94MOL    C9735623   3.143   3.996   6.779 -0.5386  0.0838 -0.3358
   94MOL    C9835624   3.131   3.983   6.631 -0.8770  0.2763  0.3304
   94MOL    C9935625   3.247   3.962   6.555 -0.7598  0.6290  0.1967
   94MOL   C10035626   3.244   3.947   6.413  0.1865 -0.8898 -0.6342
   94MOL   C10135627   3.123   3.946   6.348 -0.5799 -0.3303 -0.3479
   94MOL   C10235628   3.117   3.936   6.197  0.2498  0.3787 -0.0170
   94MOL   C10335629   3.004   3.964   6.421 -0.6309  0.0188 -0.1909
   94MOL   C10435630   3.007   3.979   6.563 -0.1739  0.7909 -0.5956
   94MOL   C10535631   3.233   4.108   6.834 -0.3630  0.2202  0.5443
   94MOL   H10635632   3.046   4.022   6.822 -0.0267 -0.0633  0.9245
   94MOL   H10735633   3.340   3.962   6.609 -0.2693 -0.3091 -0.6186
   94MOL   H10835634   3.321   3.914   6.345  0.9501 -0.9057  0.2259
   94MOL   H10935635   3.030   3.872   6.185  0.3996  0.1468  0.1319
   94MOL   H11035636   3.104   4.037   6.159  0.9872  2.0488  3.9140
   94MOL   H11135637   3.202   3.889   6.147  0.1569 -1.2445  1.3080
   94MOL   H11235638   2.913   3.964   6.363  1.3454  0.8886 -3.3943
   94MOL   H11335639   2.921   4.000   6.625 -1.7983 -1.0040 -2.1727
   94MOL   H11435640   3.333   4.088   6.793 -0.5464 -1.7306  0.9943
   94MOL   H11535641   3.244   4.112   6.942  0.2642 -2.6145  0.6450
   94MOL   C11635642   3.191   4.250   6.792 -0.0210  0.1784 -0.0345
   94MOL   C11735643   3.311   4.350   6.788  0.3091 -0.0061 -0.7240
   94MOL   C11835644   3.384   4.363   6.911 -0.2830  0.6356  0.3538
   94MOL   C11935645   3.503   4.438   6.909 -0.2493 -0.7133 -0.9955
   94MOL   C12035646   3.543   4.511   6.803  0.1749 -0.5307  0.3057
   94MOL   C12135647   3.662   4.608   6.810  1.2102  0.2451 -0.2549
   94MOL   C12235648   3.469   4.503   6.682  0.1506 -0.0872 -0.5221
   94MOL   C12335649   3.349   4.424   6.673  0.5839 -0.1190  0.7064
   94MOL   C12435650   3.075   4.309   6.873 -0.2659 -0.5945 -0.0074
   94MOL   H12535651   3.165   4.243   6.686  1.7493  0.5551 -0.5188
   94MOL   H12635652   3.360   4.305   6.999  1.0228  0.4370  0.6013
   94MOL   H12735653   3.562   4.438   6.999 -1.4113  1.0612 -0.2134
   94MOL   H12835654   3.715   4.614   6.714  1.2617  0.0594 -0.2377
   94MOL   H12935655   3.621   4.709   6.819 -0.9800 -0.5910 -0.5879
   94MOL   H13035656   3.729   4.596   6.895  1.0734  1.8603  0.0937
   94MOL   H13135657   3.486   4.567   6.597 -0.5060  0.2446 -0.4124
   94MOL   H13235658   3.291   4.435   6.582 -0.8840 -0.2076  1.6295
   94MOL   H13335659   3.109   4.378   6.951  0.9485 -1.1837 -0.0030
   94MOL   H13435660   3.027   4.225   6.923 -3.2026  1.0683  0.1173
   94MOL   C13535661   2.967   4.371   6.784 -0.1025 -0.4812  0.9459
   94MOL   C13635662   3.014   4.495   6.708 -1.1309 -0.3577  0.2374
   94MOL   C13735663   2.987   4.509   6.574  0.5566  0.0680 -0.0647
   94MOL   C13835664   3.029   4.623   6.494 -0.7466  0.0033 -0.0914
   94MOL   C13935665   3.095   4.725   6.566  0.5996 -0.3250  0.0111
   94MOL   C14035666   3.139   4.852   6.495 -0.8922 -0.4950 -0.6971
   94MOL   C14135667   3.126   4.706   6.701 -0.2687 -0.1179 -0.7101
   94MOL   C14235668   3.094   4.589   6.767  0.0771 -0.0904 -0.6024
   94MOL   C14335669   2.844   4.411   6.867  0.1549  0.0160 -0.1622
   94MOL   H14435670   2.938   4.289   6.717  3.6906 -1.1173 -0.0086
   94MOL   H14535671   2.938   4.424   6.529  0.9446 -0.7675  1.1101
   94MOL   H14635672   3.001   4.627   6.389 -1.5248  0.5164  0.1292
   94MOL   H14735673   3.055   4.891   6.438 -2.2723 -1.6412  0.5068
   94MOL   H14835674   3.174   4.929   6.564  1.4352 -0.0561 -2.3076
   94MOL   H14935675   3.211   4.827   6.417 -0.3736 -3.0403  0.5693
   94MOL   H15035676   3.176   4.785   6.755 -0.3028 -0.8420  0.4000
   94MOL   H15135677   3.135   4.580   6.867  1.0808 -0.6854 -1.0577
   94MOL   H15235678   2.845   4.501   6.928 -0.5366 -0.3477  0.4045
   94MOL   H15335679   2.842   4.341   6.950  0.3213 -0.6204 -0.6888
   94MOL   C15435680   2.711   4.396   6.785 -0.6552 -0.0650 -0.6096
   94MOL   C15535681   2.698   4.263   6.705  0.0240  0.0248 -0.1221
   94MOL   C15635682   2.672   4.258   6.566  0.0910  0.0436  0.1837
   94MOL   C15735683   2.657   4.135   6.494 -0.7208  0.4024  0.2113
   94MOL   C15835684   2.649   4.013   6.567  0.6770  0.7792  0.7812
   94MOL   C15935685   2.587   3.893   6.506 -0.3991 -0.7327  0.1495
   94MOL   C16035686   2.665   4.019   6.705 -0.6567  0.1033  0.0553
   94MOL   C16135687   2.706   4.137   6.769  0.4267 -0.6020  0.3521
   94MOL   C16235688   2.667   4.525   6.702 -0.5800 -0.3632 -0.3922
   94MOL   H16335689   2.625   4.393   6.852 -1.6180  1.6854 -1.7194
   94MOL   H16435690   2.657   4.345   6.502  1.1995 -0.7009 -1.1205
   94MOL   H16535691   2.636   4.131   6.388 -1.6321  1.6707  0.3344
   94MOL   H16635692   2.660   3.813   6.495 -0.7418 -1.3260  1.9851
   94MOL   H16735693   2.506   3.857   6.569 -2.0793  0.3093 -1.3726
   94MOL   H16835694   2.548   3.907   6.405  0.1398  1.6736  0.2501
   94MOL   H16935695   2.647   3.928   6.761  0.8503  0.6846  1.5549
   94MOL   H17035696   2.727   4.138   6.875 -0.4447  2.2753  0.5506
   94MOL   H17135697   2.576   4.512   6.644 -0.7892  1.8551 -0.5871
   94MOL   H17235698   2.752   4.560   6.644 -1.4304  1.0628 -0.7873
   94MOL   C17335699   2.623   4.643   6.786  0.2747 -0.8220 -0.0793
   94MOL   C17435700   2.491   4.616   6.855  0.1988  0.0298  0.1736
   94MOL   C17535701   2.382   4.558   6.789  0.2264  0.4754 -0.1195
   94MOL   C17635702   2.258   4.551   6.854 -0.4938  0.3511  0.2843
   94MOL   C17735703   2.238   4.604   6.987  0.0577 -0.4159  0.6431
   94MOL   C17835704   2.095   4.605   7.049  0.2945 -0.7279 -0.4787
   94MOL   C17935705   2.347   4.665   7.048 -0.2466 -0.0281  0.3327
   94MOL   C18035706   2.469   4.678   6.982  0.3515  0.3445 -0.2043
   94MOL   C18135707   2.626   4.785   6.718 -0.5856  0.0079  0.5749
   94MOL   H18235708   2.695   4.643   6.868  1.9795  1.4655 -1.5011
   94MOL   H18335709   2.379   4.520   6.688 -1.0157 -0.3139  0.2063
   94MOL   H18435710   2.185   4.499   6.793  1.2929 -2.5519  0.5106
   94MOL   H18535711   2.021   4.563   6.981 -0.2002 -0.9099  0.1769
   94MOL   H18635712   2.079   4.548   7.140 -2.3018  2.1065  0.9481
   94MOL   H18735713   2.057   4.707   7.060  0.3186 -0.6977 -0.6788
   94MOL   H18835714   2.333   4.722   7.139 -1.4878 -1.0398  0.7915
   94MOL   H18935715   2.552   4.717   7.039  0.1583 -0.2646  0.5079
   94MOL   H19035716   2.725   4.822   6.691 -0.2568 -0.0578  1.6747
   94MOL   H19135717   2.607   4.862   6.793  0.0562  1.6039 -0.8749
   94MOL   C19235718   2.548   4.807   6.588  0.3600 -0.1928 -0.2887
   94MOL   C19335719   2.628   4.754   6.465 -0.1188 -0.0350  0.1696
   94MOL   C19435720   2.739   4.833   6.430  0.6265  0.2108  0.2500
   94MOL   C19535721   2.805   4.807   6.309 -0.3145  0.0262 -0.4915
   94MOL   C19635722   2.775   4.694   6.227 -0.3969  0.1233 -0.2415
   94MOL   C19735723   2.851   4.659   6.102  0.3173  0.2411  0.6091
   94MOL   C19835724   2.661   4.620   6.265 -0.7176  0.3425  0.1662
   94MOL   C19935725   2.592   4.645   6.383 -0.5051  0.0080  0.3877
   94MOL   C20035726   2.494   4.949   6.574 -0.2492  0.2909 -1.1086
   94MOL   H20135727   2.458   4.746   6.583  1.0487 -1.4857  2.2242
   94MOL   H20235728   2.782   4.912   6.490 -0.9933  0.4860  1.0722
   94MOL   H20335729   2.885   4.868   6.268  0.0450 -0.8357 -1.1037
   94MOL   H20435730   2.829   4.553   6.086 -0.9280  0.8337 -1.9180
   94MOL   H20535731   2.816   4.713   6.014  3.0920  2.0046  0.5196
   94MOL   H20635732   2.959   4.664   6.111  0.3565 -0.1784  0.3664
   94MOL   H20735733   2.634   4.527   6.216 -1.9939  1.5938 -1.5614
   94MOL   H20835734   2.502   4.593   6.410 -0.9298  1.5599  2.0554
   94MOL   H20935735   2.574   5.021   6.560  0.0537  1.1255  3.8321
   94MOL   H21035736   2.448   4.986   6.666  0.5184 -1.3790 -0.0267
   94MOL   C21135737   2.394   4.985   6.464  0.1375  0.1067  0.5652
   94MOL   C21235738   2.445   4.970   6.318 -0.2924 -0.3085 -0.6085
   94MOL   C21335739   2.388   4.879   6.225 -1.2273  0.0679  0.0523
   94MOL   C21435740   2.446   4.861   6.098  0.0169 -0.4480  0.1272
   94MOL   C21535741   2.552   4.939   6.052 -0.9910  0.7745 -0.3467
   94MOL   C21635742   2.613   4.914   5.915  0.3418 -1.0297 -0.1608
   94MOL   C21735743   2.608   5.032   6.146 -0.1583 -0.1885  0.1089
   94MOL   C21835744   2.551   5.044   6.276 -0.4164 -0.2268  0.6813
   94MOL   C21935745   2.348   5.129   6.483 -0.0613 -0.4169  0.4614
   94MOL   H22035746   2.313   4.913   6.481  0.6235 -0.8116 -0.8776
   94MOL   H22135747   2.302   4.820   6.253 -0.2649 -0.6980  1.4239
   94MOL   H22235748   2.403   4.785   6.034  0.8866 -1.3173  0.5584
   94MOL   H22335749   2.714   4.950   5.897  0.2564 -0.4749  0.4477
   94MOL   H22435750   2.619   4.805   5.907  1.0715 -0.9159 -1.2585
   94MOL   H22535751   2.551   4.953   5.834  0.1380 -0.9038  0.0576
   94MOL   H22635752   2.697   5.090   6.124 -2.3817  3.3565  0.0642
   94MOL   H22735753   2.594   5.114   6.346  0.2450  1.9514 -1.8229
   94MOL   H22835754   2.428   5.202   6.474  1.1267 -1.7891 -0.2180
   94MOL   H22935755   2.298   5.143   6.579  0.8687  1.9993  0.6378
   94MOL   C23035756   2.236   5.185   6.390 -0.1027 -0.6439 -0.3426
   94MOL   C23135757   2.209   5.333   6.395 -0.6258  0.3453  0.0876
   94MOL   C23235758   2.197   5.399   6.518  0.0591 -0.8542 -0.8499
   94MOL   C23335759   2.186   5.540   6.519 -0.4083  0.0522  0.1274
   94MOL   C23435760   2.170   5.616   6.399  0.3516 -0.4377 -0.0429
   94MOL   C23535761   2.159   5.767   6.416 -0.4391  0.0502 -0.8578
   94MOL   C23635762   2.168   5.550   6.272  0.2328 -0.2262 -0.3369
   94MOL   C23735763   2.194   5.408   6.274  0.1845 -1.1156  0.2162
   94MOL   C23835764   2.111   5.093   6.364  0.3675  0.1812 -0.2919
   94MOL   H23935765   2.279   5.177   6.290  0.0956  2.4854 -0.5538
   94MOL   H24035766   2.219   5.339   6.605 -2.8686 -0.9201 -0.1218
   94MOL   H24135767   2.207   5.592   6.611 -1.5088  1.8869 -0.6267
   94MOL   H24235768   2.224   5.813   6.342  2.1601 -0.9680  0.7212
   94MOL   H24335769   2.058   5.803   6.395 -0.7887 -1.0084 -1.0334
   94MOL   H24435770   2.195   5.804   6.512 -0.0513  0.6005 -1.2155
   94MOL   H24535771   2.143   5.599   6.179 -0.0344  0.2370 -0.0223
   94MOL   H24635772   2.191   5.349   6.183 -2.5594  0.0439 -0.4757
   94MOL   H24735773   2.150   4.993   6.347 -2.0173 -0.8843  0.2363
   94MOL   H24835774   2.065   5.115   6.267 -3.2164 -0.4614  1.1889
   94MOL   C24935775   1.995   5.097   6.475  0.1091 -0.0796  0.0227
   94MOL   C25035776   2.056   5.082   6.617  0.2817 -0.3383  0.2867
   94MOL   C25135777   2.125   4.964   6.646 -0.0918 -0.1474  0.6541
   94MOL   C25235778   2.195   4.944   6.766 -0.7629 -0.4055 -0.1451
   94MOL   C25335779   2.197   5.052   6.857  0.4010 -0.9318  0.1021
   94MOL   C25435780   2.271   5.026   6.983 -1.1088  0.1254  0.3190
   94MOL   C25535781   2.134   5.171   6.823  0.6183  0.5552 -0.4036
   94MOL   C25635782   2.049   5.181   6.707 -0.1634 -0.4281 -0.1216
   94MOL   C25735783   1.894   4.978   6.456 -0.3945  0.0338  0.4683
   94MOL   H25835784   1.939   5.190   6.463 -0.9372 -0.7637 -0.5286
   94MOL   H25935785   2.116   4.879   6.579  0.3197 -1.5881  2.4084
   94MOL   H26035786   2.240   4.849   6.790  1.0765  0.0518 -1.6919
   94MOL   H26135787   2.331   4.934   6.980 -1.4804 -0.1944  2.2913
   94MOL   H26235788   2.322   5.107   7.035  0.2395  0.7672 -1.9266
   94MOL   H26335789   2.199   4.977   7.047 -1.0378 -2.9022 -1.8065
   94MOL   H26435790   2.147   5.251   6.894  0.1231  0.7501 -0.5309
   94MOL   H26535791   1.994   5.272   6.691  1.7117  0.5873 -0.9629
   94MOL   H26635792   1.880   4.943   6.558  0.3801  1.5871  1.1213
   94MOL   H26735793   1.948   4.900   6.402 -0.7406  0.2646 -0.2126
   94MOL   C26835794   1.749   4.997   6.395  0.6492 -0.7886  0.6136
   94MOL   C26935795   1.675   5.111   6.454 -0.0526 -0.7300  0.2477
   94MOL   C27035796   1.586   5.175   6.368 -0.4665 -0.0455  0.7172
   94MOL   C27135797   1.508   5.284   6.412  0.1009  0.2273 -0.4777
   94MOL   C27235798   1.510   5.321   6.550  0.1344  0.0594  0.3225
   94MOL   C27335799   1.453   5.452   6.589 -0.2066 -0.0900  0.7102
   94MOL   C27435800   1.594   5.255   6.639 -0.5093 -0.3950 -0.5235
   94MOL   C27535801   1.675   5.154   6.591 -0.1749  0.3409 -0.1419
   94MOL   C27635802   1.666   4.866   6.423  0.8312 -0.9381 -1.3443
   94MOL   H27735803   1.755   5.017   6.288 -0.1862 -0.5283  0.6123
   94MOL   H27835804   1.578   5.149   6.263  0.8044  1.3162  0.2664
   94MOL   H27935805   1.456   5.341   6.336 -0.6413 -0.6944 -0.6654
   94MOL   H28035806   1.498   5.491   6.680 -0.3917  0.3878  0.5977
   94MOL   H28135807   1.469   5.525   6.509 -2.8009  0.2202  0.4334
   94MOL   H28235808   1.347   5.440   6.612 -0.4149 -0.5472 -0.4318
   94MOL   H28335809   1.595   5.296   6.738 -0.8400 -1.1118 -0.2213
   94MOL   H28435810   1.751   5.118   6.658  1.9326  2.1466 -1.5271
   94MOL   H28535811   1.558   4.880   6.420  0.6709 -1.6912  0.4447
   94MOL   H28635812   1.685   4.822   6.521 -0.0343  1.5233 -0.0275
   94MOL   C28735813   1.670   4.752   6.321 -0.0142  0.3837 -0.4337
   94MOL   C28835814   1.807   4.686   6.324 -0.6051 -0.0914  0.6766
   94MOL   C28935815   1.910   4.706   6.225 -0.3209 -0.7468 -0.0121
   94MOL   C29035816   2.038   4.640   6.230 -0.3449  0.3809 -0.7878
   94MOL   C29135817   2.068   4.563   6.344 -0.0237  0.3738  0.5186
   94MOL   C29235818   2.205   4.498   6.346 -0.1959  0.3165 -0.8192
   94MOL   C29335819   1.966   4.525   6.431  0.9707 -0.1111  0.4324
   94MOL   C29435820   1.838   4.589   6.425 -0.0922  0.1801 -0.2557
   94MOL   C29535821   1.618   4.788   6.177 -0.4264 -0.7911 -0.1980
   94MOL   H29635822   1.604   4.677   6.365 -1.5923  2.5117  0.9133
   94MOL   H29735823   1.905   4.779   6.146  2.1324  1.6824  2.0037
   94MOL   H29835824   2.116   4.648   6.156  1.6739  2.5229  1.4592
   94MOL   H29935825   2.212   4.409   6.283 -2.1415 -0.6572  0.3122
   94MOL   H30035826   2.277   4.574   6.314 -0.0848  0.7295  0.3931
   94MOL   H30135827   2.219   4.465   6.449  0.0503  1.4422 -0.4885
   94MOL   H30235828   1.983   4.443   6.499  2.2929  0.4616  0.8339
   94MOL   H30335829   1.761   4.562   6.495 -0.0423  2.3523  0.6726
   94MOL   H30435830   1.683   4.864   6.134 -1.0788  1.2601  2.3396
   94MOL   H30535831   1.517   4.824   6.195 -0.0045  0.0492  0.5316
   94MOL   C30635832   1.613   4.668   6.082  0.5231  0.1877  0.1159
   94MOL   C30735833   1.578   4.718   5.945 -0.3029  0.4281  0.0248
   94MOL   C30835834   1.459   4.795   5.922  0.3053  1.1751  0.1762
   94MOL   C30935835   1.431   4.849   5.792 -0.4277  0.8020 -0.7073
   94MOL   C31035836   1.518   4.822   5.685 -0.5466  0.0469  0.2879
   94MOL   C31135837   1.483   4.877   5.548 -0.6740 -1.1653 -0.2941
   94MOL   C31235838   1.639   4.756   5.711  0.0558  0.6651 -0.6562
   94MOL   C31335839   1.663   4.696   5.839  0.4546 -0.3310  0.2470
   94MOL   C31435840   1.518   4.551   6.125  0.5401  0.0296  0.1906
   94MOL   H31535841   1.715   4.631   6.070 -0.1611 -1.3015 -1.2855
   94MOL   H31635842   1.382   4.818   5.994 -0.9333  1.5926 -1.2462
   94MOL   H31735843   1.338   4.901   5.773 -0.3644  0.6740 -1.3583
   94MOL   H31835844   1.565   4.926   5.496 -0.5227  0.6593  1.5933
   94MOL   H31935845   1.430   4.808   5.483 -1.7663 -0.8864  0.2919
   94MOL   H32035846   1.417   4.963   5.558 -0.9778 -1.2781 -1.2727
   94MOL   H32135847   1.710   4.731   5.634 -1.1395 -1.1524 -1.2206
   94MOL   H32235848   1.760   4.655   5.866  2.1728  2.4934 -1.4212
   94MOL   H32335849   1.462   4.514   6.038  0.2568  1.1684 -0.1205
   94MOL   H32435850   1.442   4.585   6.195  1.0482 -1.6725  1.5923
   94MOL   C32535851   1.581   4.426   6.179 -0.3516 -0.0118  0.8477
   94MOL   C32635852   1.687   4.366   6.084 -0.1797 -0.9213  0.4052
   94MOL   C32735853   1.820   4.371   6.134  0.2384 -0.9186  0.6135
   94MOL   C32835854   1.923   4.346   6.042 -0.4863 -0.0863 -1.1833
   94MOL   C32935855   1.902   4.313   5.903  0.0005  0.0797  0.2662
   94MOL   C33035856   2.018   4.277   5.808  0.2622  0.1026 -0.3625
   94MOL   C33135857   1.765   4.318   5.856  0.0657 -0.2968  0.1594
   94MOL   C33235858   1.664   4.348   5.948  0.6167 -0.7347  0.6883
   94MOL   C33335859   1.469   4.317   6.205 -0.0005  0.0021 -0.1970
   94MOL   H33435860   1.621   4.449   6.278 -0.8743  2.9910  0.4163
   94MOL   H33535861   1.842   4.394   6.237  0.5688  1.1801  0.1061
   94MOL   H33635862   2.026   4.358   6.069 -0.2118 -1.1787 -1.7131
   94MOL   H33735863   1.994   4.178   5.770 -0.0873 -0.1110  0.3982
   94MOL   H33835864   2.036   4.347   5.726 -0.6020 -2.2742 -2.6613
   94MOL   H33935865   2.106   4.263   5.870 -0.7526 -0.3530  0.9814
   94MOL   H34035866   1.742   4.303   5.752 -1.0169  0.6774  0.2391
   94MOL   H34135867   1.566   4.375   5.911  1.4301 -0.5719 -1.4624
   94MOL   H34235868   1.506   4.224   6.249 -1.6440  0.8218  3.1187
   94MOL   H34335869   1.425   4.295   6.108 -1.6874 -1.6263  0.9024
   94MOL   C34435870   1.362   4.355   6.309  0.2478 -0.6027  0.6918
   94MOL   C34535871   1.426   4.404   6.439 -0.1116 -0.1961 -0.3126
   94MOL   C34635872   1.529   4.338   6.508  0.2616  0.1434 -0.8512
   94MOL   C34735873   1.579   4.388   6.630  0.5602 -0.4008  0.6347
   94MOL   C34835874   1.522   4.502   6.679 -0.4972  0.1557 -0.2584
   94MOL   C34935875   1.578   4.559   6.812  0.9456 -0.7452 -0.7515
   94MOL   C35035876   1.414   4.566   6.611 -0.1588  0.4910 -0.1802
   94MOL   C35135877   1.366   4.523   6.486  0.1941  0.3378 -0.3182
   94MOL   C35235878   1.271   4.235   6.347  0.3437  0.0369  0.1565
   94MOL   H35335879   1.293   4.429   6.269 -0.9854 -1.4026  1.3051
   94MOL   H35435880   1.565   4.241   6.479  2.0353  0.5057  0.0428
   94MOL   H35535881   1.655   4.331   6.682  1.0319 -1.1758 -0.8784
   94MOL   H35635882   1.687   4.564   6.803  0.9314 -1.1464 -1.2302
   94MOL   H35735883   1.547   4.663   6.812  1.0648 -0.7096  0.4653
   94MOL   H35835884   1.544   4.503   6.899  0.3719  2.2723  1.0179
   94MOL   H35935885   1.384   4.663   6.647  0.8047  0.6115  0.3216
   94MOL   H36035886   1.287   4.572   6.431  0.0689 -1.9157 -2.2141
   94MOL   H36135887   1.203   4.271   6.424  0.4264 -1.0453  0.7421
   94MOL   H36235888   1.333   4.159   6.393  2.5920 -0.4137 -3.4167
   94MOL   C36335889   1.184   4.171   6.233 -0.1455 -0.0041  0.4863
   94MOL   C36435890   1.086   4.267   6.168 -0.2040  0.5927 -0.2638
   94MOL   C36535891   1.012   4.366   6.244  0.5599  0.6078 -0.0951
   94MOL   C36635892   0.909   4.448   6.183 -0.2922 -0.1033 -0.3466
   94MOL   C36735893   0.890   4.438   6.046 -0.1002  0.0181  0.3757
   94MOL   C36835894   0.786   4.533   5.976 -0.2621  0.0893 -0.5009
   94MOL   C36935895   0.970   4.352   5.972  0.1518 -0.6093 -0.4153
   94MOL   C37035896   1.067   4.265   6.031 -0.1824 -0.6350  0.1027
   94MOL   C37135897   1.101   4.046   6.275 -0.7904 -0.2813  0.3499
   94MOL   H37235898   1.261   4.134   6.165  1.0731  0.3411  1.6599
   94MOL   H37335899   1.028   4.379   6.350 -0.2014 -0.7181  0.1931
   94MOL   H37435900   0.847   4.510   6.246 -0.4064 -1.4014  0.8556
   94MOL   H37535901   0.695   4.564   6.028 -0.5833  0.5382 -1.3264
   94MOL   H37635902   0.840   4.623   5.947 -0.6332  1.3098  2.3603
   94MOL   H37735903   0.759   4.475   5.888 -1.8000 -0.9105  0.5860
   94MOL   H37835904   0.946   4.344   5.867  1.8315  2.2730 -1.0714
   94MOL   H37935905   1.106   4.184   5.971 -0.2212 -0.1331 -0.5985
   94MOL   H38035906   1.037   4.065   6.361  1.1630 -1.0983  2.0083
   94MOL   H38135907   1.177   3.980   6.317  0.0374  1.2916  1.3418
   94MOL   H38235908   1.061   3.991   6.190  0.7203  0.0455 -0.5970
   95MOL     C135909   2.611   7.258   7.381  0.1936 -0.0558  0.2690
   95MOL     C235910   2.466   7.212   7.371 -0.0298  0.6850  0.2902
   95MOL     C335911   2.353   7.289   7.405  0.0594  0.3327 -0.2284
   95MOL     C435912   2.222   7.240   7.407 -0.2057 -0.6304 -0.2910
   95MOL     C535913   2.201   7.117   7.347  0.9559 -0.6494 -0.2368
   95MOL     C635914   2.057   7.063   7.337 -0.4426 -0.2288  0.0091
   95MOL     C735915   2.309   7.040   7.306  0.2641  0.5426 -0.9998
   95MOL     C835916   2.439   7.083   7.315 -0.2859 -0.3717  0.7039
   95MOL     C935917   2.690   7.169   7.473 -0.3020  0.1162  0.2304
   95MOL    H1035918   2.660   7.283   7.287  1.4198 -1.1141  0.6004
   95MOL    H1135919   2.377   7.384   7.451  1.2322  1.0275 -2.2150
   95MOL    H1235920   2.137   7.301   7.435  0.1683  0.4796 -1.5295
   95MOL    H1335921   1.987   7.144   7.357 -1.3895 -0.8832 -0.6279
   95MOL    H1435922   2.037   7.048   7.231  0.2692  2.6047 -0.5622
   95MOL    H1535923   2.041   6.965   7.382 -0.3308 -0.4407 -0.4137
   95MOL    H1635924   2.283   6.947   7.258  1.6950  0.7543 -2.2070
   95MOL    H1735925   2.524   7.025   7.285 -0.2865 -0.2415  0.4461
   95MOL    H1835926   2.794   7.201   7.466  0.0368 -0.6068  1.5587
   95MOL    H1935927   2.685   7.062   7.452 -0.3964  0.4370 -1.4369
   95MOL    H2035928   2.605   7.358   7.424 -1.6617  0.6752 -1.5910
   95MOL    C2135929   2.656   7.194   7.620  0.7722  0.0628 -0.3561
   95MOL    C2235930   2.673   7.340   7.658  0.2235  0.2265 -0.2479
   95MOL    C2335931   2.558   7.413   7.694 -0.1337  0.4388 -0.1267
   95MOL    C2435932   2.572   7.554   7.705  0.3306 -0.2997  0.1129
   95MOL    C2535933   2.693   7.621   7.703 -0.2896  0.0457 -0.7104
   95MOL    C2635934   2.690   7.767   7.712  0.2998 -0.8225 -1.0886
   95MOL    C2735935   2.809   7.545   7.689  0.0002  0.2763  0.0780
   95MOL    C2835936   2.798   7.404   7.660 -0.8430 -0.6618  0.2541
   95MOL    C2935937   2.723   7.095   7.721 -0.2516  0.6163 -0.0517
   95MOL    H3035938   2.550   7.171   7.626  0.1437  2.7834 -0.2138
   95MOL    H3135939   2.455   7.383   7.704 -0.6412  2.1077 -0.2236
   95MOL    H3235940   2.479   7.606   7.725  0.2631 -0.2383 -0.3401
   95MOL    H3335941   2.716   7.779   7.817  1.6646 -2.2976 -1.2417
   95MOL    H3435942   2.775   7.818   7.665  1.4394 -1.9256 -0.2622
   95MOL    H3535943   2.599   7.826   7.707 -0.1105 -0.9795  2.8006
   95MOL    H3635944   2.904   7.593   7.673 -0.5941  1.1696 -0.8552
   95MOL    H3735945   2.888   7.355   7.626  1.1608  1.0034  3.0291
   95MOL    H3835946   2.832   7.104   7.719 -0.0801 -1.1052  0.4643
   95MOL    H3935947   2.693   6.993   7.698 -2.3048  1.2129 -0.1238
   95MOL    C4035948   2.685   7.127   7.868  0.1636 -0.0975  0.2302
   95MOL    C4135949   2.794   7.085   7.967  0.1383 -0.1595 -0.1810
   95MOL    C4235950   2.837   6.953   7.969 -0.7797 -0.3026 -0.3812
   95MOL    C4335951   2.940   6.916   8.059 -0.7229  0.9141 -0.9407
   95MOL    C4435952   3.003   7.009   0.061 -0.3230 -0.1145 -0.4189
   95MOL    C4535953   3.108   6.961   0.166 -0.6123  0.5647 -0.0862
   95MOL    C4635954   2.966   7.147   0.054  0.1541 -0.5683 -0.0001
   95MOL    C4735955   2.863   7.190   8.042 -0.4134 -0.3794 -0.8901
   95MOL    C4835956   2.549   7.058   7.902  0.3464  0.3528  0.3089
   95MOL    H4935957   2.670   7.234   7.883 -0.3027 -0.4059  2.0302
   95MOL    H5035958   2.802   6.870   7.910  0.4286 -1.0087 -0.1200
   95MOL    H5135959   2.969   6.812   8.055 -0.0344  0.9464  2.1257
   95MOL    H5235960   3.201   6.922   0.123  0.3718  2.0039  0.6772
   95MOL    H5335961   3.134   7.032   0.245 -1.4265 -0.1673  0.8521
   95MOL    H5435962   3.070   6.875   0.221 -2.8373  1.8131  0.3565
   95MOL    H5535963   3.002   7.227   0.118 -0.8952  0.3805 -0.5667
   95MOL    H5635964   2.836   7.294   8.043 -0.8167 -0.4834 -0.8689
   95MOL    H5735965   2.579   6.955   7.921 -1.3847 -0.1453  0.3991
   95MOL    H5835966   2.484   7.069   7.815 -0.5572 -1.3341  0.7493
   95MOL    C5935967   2.493   7.116   8.034 -0.7266 -0.5469 -0.4699
   95MOL    C6035968   2.394   7.023   0.026 -0.1433 -0.4287  0.1891
   95MOL    C6135969   2.308   6.937   8.037 -0.1517  0.6123  0.6039
   95MOL    C6235970   2.205   6.860   0.020 -0.1013 -0.1649  0.8159
   95MOL    C6335971   2.195   6.868   0.159 -0.2413 -0.1414 -0.2882
   95MOL    C6435972   2.099   6.777   0.229  0.4106 -0.1386  0.4149
   95MOL    C6535973   2.279   6.956   0.226  0.2970 -0.4319 -0.5885
   95MOL    C6635974   2.369   7.035   0.165 -0.7182 -0.0928 -0.1933
   95MOL    C6735975   2.420   7.249   8.014  0.8148  0.3369  0.9271
   95MOL    H6835976   2.581   7.126   0.018 -1.8606 -0.6903  1.1298
   95MOL    H6935977   2.311   6.934   7.929 -3.7528  0.5362  0.4437
   95MOL    H7035978   2.148   6.795   8.035  2.8005 -0.5204 -1.4911
   95MOL    H7135979   2.086   6.812   0.331  2.6602 -0.7946  0.9642
   95MOL    H7235980   2.000   6.770   0.183  0.4200 -0.1501  0.3962
   95MOL    H7335981   2.137   6.678   0.257 -1.1101 -0.1595  2.5260
   95MOL    H7435982   2.275   6.966   0.333  1.1524 -1.7561 -0.4197
   95MOL    H7535983   2.422   7.109   0.222  1.3310 -0.7533 -1.1744
   95MOL    H7635984   2.314   7.231   7.997  0.7053  1.4079  0.4471
   95MOL    H7735985   2.447   7.293   7.918 -0.4324 -2.3706 -0.7144
   95MOL    C7835986   2.435   7.363   0.045 -0.8137  0.0836 -0.1814
   95MOL    C7935987   2.332   7.473   0.032 -0.1913 -0.5825 -0.2225
   95MOL    C8035988   2.345   7.565   7.999  0.2547  0.0982  0.4607
   95MOL    C8135989   2.260   7.677   7.991 -0.3882 -0.6049  0.3024
   95MOL    C8235990   2.154   7.692   8.078  0.1302 -0.3067  0.2356
   95MOL    C8335991   2.048   7.801   8.056 -0.0043  0.0769  0.1298
   95MOL    C8435992   2.129   7.593   0.098 -0.0559  0.1285 -0.3968
   95MOL    C8535993   2.228   7.494   0.124 -0.1793 -0.4448  0.6879
   95MOL    C8635994   2.578   7.413   0.054  0.1474 -0.6943  0.2470
   95MOL    H8735995   2.407   7.323   0.143 -2.7607 -0.5406 -0.9693
   95MOL    H8835996   2.418   7.551   7.920 -1.0022 -0.2986 -0.6474
   95MOL    H8935997   2.265   7.731   7.897  1.5174  3.1824  2.4671
   95MOL    H9035998   2.005   7.839   0.068 -1.5423  0.6347 -0.8031
   95MOL    H9135999   2.093   7.877   7.992 -0.6448 -0.0724 -0.5069
   95MOL    H9236000   1.980   7.753   7.986 -0.0863  0.9956 -0.4260
   95MOL    H9336001   2.040   7.602   0.158 -1.2830 -2.1449 -1.7974
   95MOL    H9436002   2.203   7.418   0.197  1.9082  0.6434  2.5664
   95MOL    H9536003   2.599   7.450   8.034 -0.5968 -0.4386  0.1892
   95MOL    H9636004   2.642   7.327   0.076  1.8376 -0.1307 -2.2703
   95MOL    C9736005   2.615   7.534   0.143  0.7413  0.4722 -0.3552
   95MOL    C9836006   2.743   7.591   0.092 -0.5064 -0.3773 -0.1438
   95MOL    C9936007   2.737   7.717   0.028  0.3304 -0.7992  0.4937
   95MOL   C10036008   2.852   7.770   8.044 -0.4816  0.5456 -0.5839
   95MOL   C10136009   2.976   7.695   8.052 -0.1558 -0.1248  0.3095
   95MOL   C10236010   3.097   7.757   7.998 -0.1634  0.0274 -0.4519
   95MOL   C10336011   2.985   7.571   0.032 -0.5595  0.5587  0.3244
   95MOL   C10436012   2.871   7.523   0.103 -0.0995 -0.6654  0.2021
   95MOL   C10536013   2.621   7.489   0.292 -0.3745  0.6201 -0.0039
   95MOL   H10636014   2.537   7.611   0.145  0.2966  0.0162 -0.1596
   95MOL   H10736015   2.640   7.763   0.037  1.4475  1.5029  1.1744
   95MOL   H10836016   2.849   7.872   8.009 -1.0282  0.5757 -0.4561
   95MOL   H10936017   3.080   7.780   7.893  1.4174 -1.8555 -1.1472
   95MOL   H11036018   3.135   7.843   8.054  0.5579 -0.2256 -0.5435
   95MOL   H11136019   3.182   7.689   7.990 -0.6248 -0.3702 -2.2450
   95MOL   H11236020   3.078   7.515   0.039 -1.3863 -1.2815 -2.6005
   95MOL   H11336021   2.883   7.431   0.159  2.5668  1.5529  3.5166
   95MOL   H11436022   2.723   7.456   0.307 -0.1606  0.9779 -0.6398
   95MOL   H11536023   2.561   7.403   0.321  2.3626 -1.8055 -1.2887
   95MOL   C11636024   2.583   7.601   0.392  0.4066 -0.2267 -0.5615
   95MOL   C11736025   2.637   7.564   0.529  0.3157 -0.2258  0.6856
   95MOL   C11836026   2.712   7.660   0.607  0.0672 -0.0938  0.1925
   95MOL   C11936027   2.745   7.634   0.742  0.6573  0.1382  0.1689
   95MOL   C12036028   2.725   7.502   0.785  0.0949 -0.2201 -0.6595
   95MOL   C12136029   2.784   7.463   0.920  0.7448 -0.1245 -0.1080
   95MOL   C12236030   2.667   7.401   0.703  1.0851  0.0803  0.3107
   95MOL   C12336031   2.605   7.436   0.582 -0.6182 -0.1682  0.1268
   95MOL   C12436032   2.431   7.628   0.393 -0.2734 -0.5948  0.3921
   95MOL   H12536033   2.642   7.686   0.358 -0.2860 -0.0834 -1.4023
   95MOL   H12636034   2.746   7.753   0.563  0.0149  0.3326  1.0348
   95MOL   H12736035   2.799   7.710   0.797 -1.1380  1.6389 -0.0613
   95MOL   H12836036   2.785   7.354   0.927 -1.9369 -0.0422  2.3358
   95MOL   H12936037   2.886   7.495   0.942  1.2357 -1.7547  0.0802
   95MOL   H13036038   2.715   7.503   0.994  1.0094  0.6327 -0.2658
   95MOL   H13136039   2.660   7.299   0.737  1.0882 -1.0014 -2.8027
   95MOL   H13236040   2.559   7.357   0.526 -2.8198 -0.2371  1.9744
   95MOL   H13336041   2.392   7.529   0.415 -0.8021 -0.6573 -0.7758
   95MOL   H13436042   2.396   7.647   0.291  2.4532  1.4295 -0.2371
   95MOL   C13536043   2.386   7.737   0.489  0.0302  0.5817 -0.4361
   95MOL   C13636044   2.246   7.713   0.539 -0.0401  0.0022 -0.4395
   95MOL   C13736045   2.214   7.690   0.680 -0.3445 -0.1282  0.1770
   95MOL   C13836046   2.083   7.676   0.730  0.5811 -0.9629  0.2196
   95MOL   C13936047   1.973   7.676   0.639  0.0439 -0.4002 -0.3493
   95MOL   C14036048   1.835   7.657   0.694  0.3515  0.4569  0.3276
   95MOL   C14136049   2.002   7.695   0.500  0.5424 -0.0967 -0.1732
   95MOL   C14236050   2.135   7.724   0.453 -0.0407  0.2183 -0.2760
   95MOL   C14336051   2.413   7.877   0.421  0.3811 -0.3194 -0.1690
   95MOL   H14436052   2.450   7.730   0.578 -0.4079  2.2278  0.0316
   95MOL   H14536053   2.295   7.674   0.750 -0.8591 -0.9661  0.5850
   95MOL   H14636054   2.063   7.651   0.833  0.1271 -0.3129  0.2909
   95MOL   H14736055   1.836   7.628   0.799  0.2158  1.1639  0.5254
   95MOL   H14836056   1.787   7.755   0.684  0.1584  0.4093  0.7871
   95MOL   H14936057   1.776   7.584   0.639  0.1762  0.1582  0.9039
   95MOL   H15036058   1.924   7.669   0.430 -0.0527 -2.4103  1.2814
   95MOL   H15136059   2.147   7.751   0.350  1.2639 -0.8336 -0.4122
   95MOL   H15236060   2.326   7.894   0.358 -2.0393 -2.0261  2.5693
   95MOL   H15336061   2.502   7.864   0.359 -0.4183  2.1492 -1.9241
   95MOL   C15436062   2.411   7.991   0.519 -0.5411  0.0754  0.1396
   95MOL   C15536063   2.368   0.042   0.443  0.5197 -0.5665  0.1575
   95MOL   C15636064   2.245   0.098   0.464  0.1553 -0.0444  0.0081
   95MOL   C15736065   2.202   0.223   0.416 -0.0366  0.6058  0.4308
   95MOL   C15836066   2.288   0.291   0.334  0.3148 -0.2388  1.0167
   95MOL   C15936067   2.258   0.430   0.291  0.1157 -0.0701 -0.5739
   95MOL   C16036068   2.414   0.237   0.304 -0.7754 -0.7828  0.7006
   95MOL   C16136069   2.450   0.118   0.362 -0.3626 -0.0514 -0.1266
   95MOL   C16236070   2.552   8.006   0.581  0.1061 -0.1596  0.7497
   95MOL   H16336071   2.345   7.969   0.603 -0.3294 -0.8764  0.0634
   95MOL   H16436072   2.178   0.049   0.532 -0.8932  1.2044 -0.1097
   95MOL   H16536073   2.104   0.258   0.445  0.1304  0.7851  0.7927
   95MOL   H16636074   2.200   0.418   0.200 -0.6148 -0.0078 -0.1230
   95MOL   H16736075   2.191   0.479   0.362 -0.1686 -1.5906  0.2234
   95MOL   H16836076   2.345   0.494   0.270  0.8794 -0.5764  0.9376
   95MOL   H16936077   2.476   0.287   0.232 -0.2178  1.1934  2.4926
   95MOL   H17036078   2.553   0.089   0.346 -0.3258 -1.0680  1.8634
   95MOL   H17136079   2.623   7.997   0.499  0.2020  0.5838  0.7457
   95MOL   H17236080   2.572   7.915   0.638  2.8002 -1.9111 -2.8404
   95MOL   C17336081   2.591   0.055   0.666 -0.9023 -0.2080  0.2727
   95MOL   C17436082   2.735   0.026   0.716  0.3084 -0.0652  0.4200
   95MOL   C17536083   2.770   7.998   0.796 -0.7353  0.8743  0.0518
   95MOL   C17636084   2.905   7.981   0.835 -0.0638  0.3060 -0.5718
   95MOL   C17736085   3.004   8.069   0.794 -0.4323 -0.1066  0.3026
   95MOL   C17836086   3.142   8.055   0.845  0.0685 -0.4415  0.3309
   95MOL   C17936087   2.966   0.100   0.722 -0.4449 -0.5014 -0.6639
   95MOL   C18036088   2.834   0.121   0.689 -0.2594  0.7468  0.0099
   95MOL   C18136089   2.503   0.099   0.782  0.1822 -0.1190 -0.5469
   95MOL   H18236090   2.592   0.132   0.588 -0.1102 -1.1757 -0.6859
   95MOL   H18336091   2.701   7.926   0.835 -0.0286  1.9094  3.4284
   95MOL   H18436092   2.922   7.892   0.894  0.6743  1.3786  0.8537
   95MOL   H18536093   3.209   8.028   0.763 -1.5821  0.2688 -1.2916
   95MOL   H18636094   3.173   0.075   0.875 -1.5965  0.1394  0.1471
   95MOL   H18736095   3.151   7.985   0.928  0.5972 -1.5744 -0.6697
   95MOL   H18836096   3.040   0.175   0.697 -1.1759  1.4267  2.6378
   95MOL   H18936097   2.814   0.208   0.628 -1.1352 -0.6210 -1.7153
   95MOL   H19036098   2.504   0.021   0.857 -0.3416  0.6140  0.2276
   95MOL   H19136099   2.398   0.098   0.753 -0.0832  2.0404  0.2309
   95MOL   C19236100   2.515   0.242   0.842  0.0945  0.4702  0.2288
   95MOL   C19336101   2.475   0.357   0.752 -0.3908  0.1108  0.0096
   95MOL   C19436102   2.533   0.381   0.622 -0.4047  0.2894  0.1487
   95MOL   C19536103   2.490   0.491   0.540  0.3823  0.2250 -0.3363
   95MOL   C19636104   2.408   0.590   0.594 -0.1346  0.7911 -0.5325
   95MOL   C19736105   2.371   0.705   0.511 -0.8495 -0.1161 -0.2550
   95MOL   C19836106   2.353   0.573   0.721  0.0464  0.2131 -0.3696
   95MOL   C19936107   2.390   0.459   0.799 -0.1726  0.4763 -0.0895
   95MOL   C20036108   2.647   0.274   0.925 -0.0210 -0.2869 -0.7312
   95MOL   H20136109   2.444   0.252   0.923 -0.1410  0.2436  0.0499
   95MOL   H20236110   2.606   0.319   0.574 -1.6111 -0.3959 -0.8247
   95MOL   H20336111   2.522   0.491   0.437  1.9978 -0.3354  0.1473
   95MOL   H20436112   2.435   0.791   0.533  0.8889 -2.0447  2.5433
   95MOL   H20536113   2.391   0.688   0.406 -2.1823 -0.4237 -0.4687
   95MOL   H20636114   2.265   0.726   0.530 -1.2242 -2.0783 -0.0565
   95MOL   H20736115   2.300   0.655   0.768  0.2821  0.2349 -0.1415
   95MOL   H20836116   2.352   0.444   0.899  0.0308  0.0691 -0.0708
   95MOL   H20936117   2.710   0.338   0.863 -0.8710  0.7630 -0.5386
   95MOL   H21036118   2.711   0.188   0.944  1.4115  1.5139  3.1729
   95MOL   C21136119   2.632   0.353   1.052 -0.7197 -0.4527  0.3181
   95MOL   C21236120   2.737   0.462   1.072 -0.3580 -0.3609 -0.1206
   95MOL   C21336121   2.710   0.580   1.003  0.5575 -0.1139 -1.0796
   95MOL   C21436122   2.798   0.691   1.018 -0.5794 -0.1055 -0.0060
   95MOL   C21536123   2.916   0.683   1.092 -0.3328 -0.4057  0.2587
   95MOL   C21636124   3.018   0.801   1.099  0.4294  0.6636  0.7711
   95MOL   C21736125   2.944   0.566   1.166 -0.0400 -0.3924  0.1040
   95MOL   C21836126   2.858   0.453   1.152  0.0807  0.3014  0.8546
   95MOL   C21936127   2.609   0.253   1.174 -0.5728 -0.3464  0.1213
   95MOL   H22036128   2.543   0.416   1.048  2.0867  3.7853  1.3864
   95MOL   H22136129   2.616   0.597   0.953 -0.1694 -0.5632  0.1027
   95MOL   H22236130   2.785   0.782   0.962 -1.1141  1.4539  2.5900
   95MOL   H22336131   3.065   0.807   1.001 -1.4282 -1.7362 -0.3037
   95MOL   H22436132   2.982   0.897   1.136 -2.0377 -0.4811  1.4695
   95MOL   H22536133   3.095   0.765   1.168  0.5954 -1.6861 -0.5888
   95MOL   H22636134   3.035   0.571   1.223 -0.8555 -1.0601  1.4717
   95MOL   H22736135   2.878   0.361   1.205  2.1347  0.2466  0.0285
   95MOL   H22836136   2.710   0.228   1.207 -0.7083 -2.2222 -0.8436
   95MOL   H22936137   2.557   0.163   1.143 -2.6134  0.9924 -0.4447
   95MOL   C23036138   2.546   0.317   1.303 -0.2421  0.7630  0.0844
   95MOL   C23136139   2.612   0.249   1.421  0.1921  0.9780 -0.0892
   95MOL   C23236140   2.688   0.318   1.514 -0.1671  0.1070  0.4535
   95MOL   C23336141   2.745   0.248   1.626  0.1553  0.4988  0.0417
   95MOL   C23436142   2.723   0.111   1.636  0.1730  0.4368  0.2063
   95MOL   C23536143   2.761   0.030   1.763  0.0943 -0.0079 -0.5395
   95MOL   C23636144   2.647   0.039   1.543 -0.8635 -0.7052  0.3019
   95MOL   C23736145   2.599   0.107   1.425  0.5197  0.1209  0.1133
   95MOL   C23836146   2.392   0.306   1.320  0.0753  0.1408  0.7609
   95MOL   H23936147   2.575   0.421   1.294  1.3385  0.2943 -0.5168
   95MOL   H24036148   2.708   0.424   1.504  0.4845  0.1018  1.6357
   95MOL   H24136149   2.806   0.312   1.688  1.3643  0.2154 -0.8403
   95MOL   H24236150   2.760   8.001   1.755 -2.1137  0.1132 -2.6429
   95MOL   H24336151   2.858   0.072   1.789 -0.5112  0.2586  1.3689
   95MOL   H24436152   2.698   0.053   1.849  0.6366  0.3091 -0.2282
   95MOL   H24536153   2.625   8.014   1.552 -1.7980 -0.5509 -0.0562
   95MOL   H24636154   2.538   0.057   1.351  0.7307 -0.9105  0.6267
   95MOL   H24736155   2.361   0.330   1.422 -2.3019  1.4200 -0.2341
   95MOL   H24836156   2.361   0.204   1.300 -3.7599  1.0408  1.7118
   95MOL   C24936157   2.310   0.402   1.235 -0.1380  0.2110  0.3039
   95MOL   C25036158   2.350   0.549   1.267  0.0874  0.2079 -0.5763
   95MOL   C25136159   2.345   0.596   1.401 -0.3242 -0.3119 -0.1551
   95MOL   C25236160   2.354   0.728   1.433  0.0421 -0.1751  0.1239
   95MOL   C25336161   2.379   0.827   1.338 -0.0571 -0.4788  1.0012
   95MOL   C25436162   2.379   0.970   1.389 -0.2456  0.5387 -0.2561
   95MOL   C25536163   2.388   0.782   1.199  0.2461  0.0139  0.5674
   95MOL   C25636164   2.369   0.645   1.164  0.4837  0.1811  0.1310
   95MOL   C25736165   2.154   0.387   1.263 -0.0595  0.4230 -0.1397
   95MOL   H25836166   2.330   0.385   1.129 -4.0241  2.5715 -0.9054
   95MOL   H25936167   2.333   0.533   1.488 -0.7311 -1.7158 -1.2249
   95MOL   H26036168   2.331   0.762   1.532  3.4760 -0.5378  1.1026
   95MOL   H26136169   2.447   1.045   1.349 -0.1625  0.6004 -0.0014
   95MOL   H26236170   2.282   1.019   1.389 -0.7061 -0.3497  0.7681
   95MOL   H26336171   2.415   0.962   1.492 -1.3055  1.2620  0.1848
   95MOL   H26436172   2.417   0.856   1.127 -0.6221  0.0224  0.2157
   95MOL   H26536173   2.369   0.615   1.060  0.5264  0.7660 -0.0386
   95MOL   H26636174   2.141   0.391   1.371  1.4401  1.9133  0.0011
   95MOL   H26736175   2.122   0.282   1.259  1.0771 -0.1267  3.4090
   95MOL   C26836176   2.062   0.493   1.200 -0.1789  0.4109  0.2213
   95MOL   C26936177   1.925   0.486   1.274 -0.4140  0.3931  0.9624
   95MOL   C27036178   1.824   0.389   1.244 -0.3521 -0.1510 -0.0345
   95MOL   C27136179   1.708   0.380   1.324  0.5212  0.7527 -0.6643
   95MOL   C27236180   1.697   0.465   1.439  0.5747  0.1137  0.1076
   95MOL   C27336181   1.580   0.448   1.533 -0.0958  0.3853  0.0334
   95MOL   C27436182   1.794   0.561   1.468  0.2660  0.0356 -0.1261
   95MOL   C27536183   1.908   0.567   1.391  0.5933 -0.3917  0.7808
   95MOL   C27636184   2.058   0.480   1.041 -0.0010  0.4593  0.1253
   95MOL   H27736185   2.093   0.596   1.215  1.4693 -0.1392  0.6861
   95MOL   H27836186   1.843   0.313   1.170  0.3750 -0.2445  0.2371
   95MOL   H27936187   1.632   0.305   1.314  2.9202 -1.5704 -1.9756
   95MOL   H28036188   1.493   0.489   1.481  1.5950  1.2276 -2.2346
   95MOL   H28136189   1.545   0.345   1.541  1.3930 -0.2298 -1.0994
   95MOL   H28236190   1.591   0.504   1.626 -0.0189  0.3997  0.0152
   95MOL   H28336191   1.787   0.617   1.560 -1.5869  2.2306 -1.5413
   95MOL   H28436192   1.987   0.627   1.432  2.3157 -0.2581 -2.5079
   95MOL   H28536193   2.010   0.384   1.020 -0.1227  0.2370  1.3669
   95MOL   H28636194   2.154   0.472   0.990  0.0898  0.2924  0.3248
   95MOL   C28736195   1.967   0.585   0.972  0.3412 -0.3101 -0.5273
   95MOL   C28836196   1.920   0.534   0.834  0.8366  0.4078 -0.3476
   95MOL   C28936197   2.006   0.545   0.725  0.4419  0.3603 -0.4869
   95MOL   C29036198   1.965   0.506   0.594 -0.2876  0.4876 -0.3070
   95MOL   C29136199   1.837   0.452   0.581 -0.3611 -0.2343 -0.9280
   95MOL   C29236200   1.780   0.426   0.442  0.1721 -0.3891 -0.4747
   95MOL   C29336201   1.755   0.433   0.693 -0.3694  0.5136 -0.4682
   95MOL   C29436202   1.793   0.473   0.820 -0.5593 -0.5630  0.0451
   95MOL   C29536203   2.035   0.726   0.967 -0.2304  0.5579 -0.1754
   95MOL   H29636204   1.877   0.595   1.033  1.0108  0.8858  0.2948
   95MOL   H29736205   2.101   0.594   0.738  1.1707 -1.8707  3.1238
   95MOL   H29836206   2.034   0.541   0.519 -0.2908  1.9692  0.3652
   95MOL   H29936207   1.797   0.507   0.371  0.8818  0.1525  0.3039
   95MOL   H30036208   1.821   0.343   0.384  0.2022  0.9583 -2.4105
   95MOL   H30136209   1.671   0.429   0.443  0.1980  0.9727 -1.1922
   95MOL   H30236210   1.653   0.401   0.681 -0.4658  1.1273 -1.2802
   95MOL   H30336211   1.728   0.463   0.905  1.1070  1.2237  1.5862
   95MOL   H30436212   2.126   0.708   0.910 -1.4425 -2.1556 -1.3509
   95MOL   H30536213   2.083   0.762   1.058 -1.3197  0.7877  0.3197
   95MOL   C30636214   1.962   0.844   0.899 -0.2347  0.4322  0.4084
   95MOL   C30736215   2.068   0.941   0.844  0.2155 -0.3143 -0.0922
   95MOL   C30836216   2.142   1.014   0.937  0.0628 -0.0216  0.2986
   95MOL   C30936217   2.237   1.107   0.905 -0.1867  0.5827 -0.2291
   95MOL   C31036218   2.256   1.130   0.763 -0.3603 -0.1961  0.6246
   95MOL   C31136219   2.361   1.232   0.721  0.3035  0.1705  0.3306
   95MOL   C31236220   2.192   1.057   0.663  0.0477 -0.5472 -0.3023
   95MOL   C31336221   2.095   0.961   0.707 -0.3017 -0.5266  0.0350
   95MOL   C31436222   1.851   0.919   0.980  0.2969 -0.5552  0.0297
   95MOL   H31536223   1.915   0.809   0.808  2.1494 -0.6956 -0.4247
   95MOL   H31636224   2.122   0.998   1.042 -2.5253  0.9924 -0.0124
   95MOL   H31736225   2.291   1.173   0.971  0.0719  0.6697 -0.5256
   95MOL   H31836226   2.450   1.231   0.784  2.6264 -1.7755 -2.8402
   95MOL   H31936227   2.408   1.215   0.625  0.5684 -1.0824  0.6760
   95MOL   H32036228   2.325   1.334   0.712  0.0931  0.0651 -0.0394
   95MOL   H32136229   2.201   1.071   0.556  1.3646 -0.4472 -0.1918
   95MOL   H32236230   2.053   0.890   0.637  0.6499 -1.6778  0.6202
   95MOL   H32336231   1.901   0.960   1.067  1.8467 -0.1999 -1.0183
   95MOL   H32436232   1.775   0.853   1.022 -0.1133  0.1279  0.3578
   95MOL   C32536233   1.780   1.030   0.893  0.0014  0.1947 -0.2402
   95MOL   C32636234   1.734   1.146   0.980  0.1037  0.3104  0.1383
   95MOL   C32736235   1.781   1.280   0.961 -0.3846 -0.2378  0.1981
   95MOL   C32836236   1.733   1.390   1.038  0.3777 -0.1351 -0.2967
   95MOL   C32936237   1.648   1.363   1.146  0.0554  0.4906  0.3415
   95MOL   C33036238   1.605   1.472   1.238  0.4202  0.3735  0.3408
   95MOL   C33136239   1.605   1.231   1.173 -0.5617 -0.1022  0.0350
   95MOL   C33236240   1.639   1.127   1.084 -0.3626 -0.2866 -0.3962
   95MOL   C33336241   1.673   0.966   0.812 -0.2175 -0.3421 -0.0952
   95MOL   H33436242   1.850   1.075   0.823  1.4206 -0.5265  0.6885
   95MOL   H33536243   1.851   1.300   0.881 -0.7542  1.4384  0.2780
   95MOL   H33636244   1.772   1.490   1.027  3.1598 -1.0833  0.5558
   95MOL   H33736245   1.608   1.434   1.340  3.8589 -0.3552  0.0288
   95MOL   H33836246   1.672   1.558   1.225 -1.1042  1.5329 -0.0405
   95MOL   H33936247   1.502   1.501   1.218  0.3166 -1.4142 -1.9176
   95MOL   H34036248   1.546   1.204   1.259 -1.3210  0.0802 -0.4241
   95MOL   H34136249   1.606   1.027   1.108  1.2368 -0.6901  0.1800
   95MOL   H34236250   1.579   0.977   0.866 -0.3930 -0.0767 -0.4471
   95MOL   H34336251   1.697   0.860   0.804 -2.3374 -0.9854  1.3925
   95MOL   C34436252   1.646   1.037   0.677  0.3362  0.2421  0.2091
   95MOL   C34536253   1.603   1.183   0.679 -0.5059 -0.7844  0.1942
   95MOL   C34636254   1.679   1.275   0.608  0.0333 -0.2029 -0.4588
   95MOL   C34736255   1.660   1.410   0.634  0.0013  0.1496 -0.7748
   95MOL   C34836256   1.564   1.452   0.731 -0.2026 -0.0284 -0.3318
   95MOL   C34936257   1.550   1.596   0.754  0.9572 -0.1753 -0.5117
   95MOL   C35036258   1.489   1.362   0.797  0.1999  0.4252  0.0457
   95MOL   C35136259   1.504   1.223   0.768  0.0239 -1.3500  0.0882
   95MOL   C35236260   1.538   0.960   0.603 -0.0878 -0.8721 -0.1523
   95MOL   H35336261   1.743   1.039   0.628  0.0086  0.5365 -0.4298
   95MOL   H35436262   1.745   1.246   0.527 -0.7866  1.6761 -1.8430
   95MOL   H35536263   1.718   1.487   0.585  1.6798 -0.1416  0.7301
   95MOL   H35636264   1.478   1.606   0.835  0.3473  0.0751 -1.0767
   95MOL   H35736265   1.644   1.631   0.797  0.2014  1.5677 -0.2309
   95MOL   H35836266   1.509   1.647   0.667 -0.9072 -1.2825 -0.3072
   95MOL   H35936267   1.415   1.389   0.871 -0.9632 -2.6368  0.0608
   95MOL   H36036268   1.452   1.151   0.831 -0.7211  1.8862  3.3315
   95MOL   H36136269   1.493   1.028   0.530 -0.6287 -0.9674  0.0880
   95MOL   H36236270   1.462   0.929   0.675 -0.1116  0.8683  0.5969
   95MOL   C36336271   1.580   0.827   0.533  0.7519  0.2630 -0.0543
   95MOL   C36436272   1.683   0.863   0.419  0.9077 -0.1389  0.4487
   95MOL   C36536273   1.814   0.807   0.426  0.4156 -0.7615  0.5366
   95MOL   C36636274   1.895   0.839   0.316 -0.6229 -0.9228  0.3504
   95MOL   C36736275   1.847   0.905   0.199  0.0379 -0.0750 -0.0447
   95MOL   C36836276   1.943   0.941   0.087 -0.2333 -0.0286 -0.0767
   95MOL   C36936277   1.713   0.941   0.189 -0.0071  0.0631 -0.4300
   95MOL   C37036278   1.633   0.929   0.299  0.7133 -0.4350 -0.3352
   95MOL   C37136279   1.455   0.752   0.483 -0.6900 -0.1943 -0.2518
   95MOL   H37236280   1.636   0.765   0.603  0.2825  1.1998  1.1638
   95MOL   H37336281   1.835   0.745   0.513 -3.1569  0.3472  2.2636
   95MOL   H37436282   1.994   0.797   0.305  0.3328  1.8374 -2.0949
   95MOL   H37536283   1.913   1.039   0.051  0.2000  0.6182  1.2900
   95MOL   H37636284   2.051   0.952   0.094 -0.2410  0.3047 -0.4596
   95MOL   H37736285   1.928   0.865   0.010  1.0436 -0.0815 -0.2822
   95MOL   H37836286   1.669   0.995   0.106  0.3450 -1.7107 -1.8021
   95MOL   H37936287   1.531   0.964   0.308  0.6555 -0.3753 -1.2125
   95MOL   H38036288   1.403   0.705   0.566  1.6179  1.0668  1.9697
   95MOL   H38136289   1.474   0.678   0.404  2.7625 -1.7424  1.8728
   95MOL   H38236290   1.393   0.827   0.435  0.4400  0.2033 -1.1232
   96MOL     C136291   7.628   6.919   4.202 -0.1100 -0.1073 -0.0841
   96MOL     C236292   7.558   6.822   4.295  0.4916  0.2038  0.4700
   96MOL     C336293   7.617   6.708   4.351 -0.1942 -0.2960  0.7995
   96MOL     C436294   7.539   6.616   4.429  0.1882 -0.3197  0.2998
   96MOL     C536295   7.406   6.641   4.455  0.8597 -0.4156 -0.7302
   96MOL     C636296   7.325   6.537   4.526  0.3186 -0.2872  0.4519
   96MOL     C736297   7.348   6.760   4.412  0.0106  0.5432 -0.4720
   96MOL     C836298   7.424   6.852   4.334  0.3499  0.1141 -0.2980
   96MOL     C936299   7.692   7.029   4.286  0.1221  0.3361 -0.3778
   96MOL    H1036300   7.701   6.866   4.142 -1.8775 -0.0256 -2.3638
   96MOL    H1136301   7.724   6.697   4.342 -0.3720 -0.6643 -1.0727
   96MOL    H1236302   7.587   6.526   4.465  0.0465 -0.5266 -0.0326
   96MOL    H1336303   7.227   6.539   4.478  0.4972 -1.3329  0.0328
   96MOL    H1436304   7.373   6.440   4.516  2.0669  0.6027  0.0318
   96MOL    H1536305   7.326   6.566   4.631  1.7535 -2.3698  1.0477
   96MOL    H1636306   7.246   6.787   4.438  0.3300  1.3035  0.0219
   96MOL    H1736307   7.366   6.934   4.295 -0.2963 -0.5281 -0.6882
   96MOL    H1836308   7.769   6.982   4.348  0.6089  1.7887  0.1626
   96MOL    H1936309   7.621   7.078   4.352  1.4031  0.9085  0.6162
   96MOL    H2036310   7.562   6.960   4.125 -0.2403 -1.2310 -0.5793
   96MOL    C2136311   7.745   7.149   4.198  0.1776 -0.0466  0.7452
   96MOL    C2236312   7.865   7.218   4.265  0.1956  0.2127  0.4637
   96MOL    C2336313   7.865   7.238   4.405  0.7133 -0.7398  0.7319
   96MOL    C2436314   7.981   7.264   4.475  0.1030 -0.4359  0.1439
   96MOL    C2536315   0.016   7.290   4.403 -0.4076  0.5609 -0.0114
   96MOL    C2636316   0.144   7.338   4.472 -0.4677  0.7447 -0.1444
   96MOL    C2736317   0.019   7.278   4.264 -0.2986 -1.0456 -0.3689
   96MOL    C2836318   7.981   7.249   4.190 -0.0664 -0.2307  0.7360
   96MOL    C2936319   7.634   7.260   4.171 -0.5775  0.3115  0.2754
   96MOL    H3036320   7.778   7.111   4.102  1.6178 -1.6860  1.8601
   96MOL    H3136321   7.776   7.215   4.461 -1.1160  0.2242 -1.7116
   96MOL    H3236322   7.975   7.273   4.582  0.7206 -1.0150  0.2283
   96MOL    H3336323   0.217   7.258   4.463 -0.6666  0.2620  2.2109
   96MOL    H3436324   0.171   7.437   4.436  0.1029 -0.1517 -2.2719
   96MOL    H3536325   0.129   7.359   4.578  0.2639  1.5940 -0.2089
   96MOL    H3636326   0.103   7.293   4.197 -1.2840  0.1461 -1.3704
   96MOL    H3736327   7.987   7.234   4.083  3.1753  1.4047  0.6301
   96MOL    H3836328   7.639   7.340   4.245 -0.7558 -0.7363  1.4343
   96MOL    H3936329   7.536   7.213   4.170 -0.3693 -0.1270  0.2397
   96MOL    C4036330   7.633   7.343   4.040 -0.3882  0.6437 -0.4354
   96MOL    C4136331   7.565   7.484   4.049 -0.2359 -0.2776 -0.2979
   96MOL    C4236332   7.445   7.505   4.124  0.8335  0.7511  0.4221
   96MOL    C4336333   7.378   7.630   4.127 -0.6633  0.1359 -0.3396
   96MOL    C4436334   7.433   7.733   4.055  0.1376  0.2756  0.4405
   96MOL    C4536335   7.357   7.865   4.049 -0.3679  0.3518 -0.0592
   96MOL    C4636336   7.555   7.715   3.990  1.1381 -0.2115  0.0546
   96MOL    C4736337   7.628   7.592   3.985  0.3155  1.1390  0.2446
   96MOL    C4836338   7.561   7.261   3.926 -0.2448  0.2145 -0.2857
   96MOL    H4936339   7.740   7.362   4.024 -0.5296  1.9579  0.0949
   96MOL    H5036340   7.402   7.419   4.172  0.6227  0.6554  0.0617
   96MOL    H5136341   7.289   7.642   4.187 -1.6336 -2.1994 -1.2590
   96MOL    H5236342   7.253   7.848   4.074 -1.0198  3.5722 -0.2775
   96MOL    H5336343   7.392   7.923   4.135  0.3609 -1.1156  0.6378
   96MOL    H5436344   7.380   7.927   3.962  2.9565 -0.7435 -0.0415
   96MOL    H5536345   7.592   7.799   3.932  0.2203  0.7499  0.8511
   96MOL    H5636346   7.727   7.587   3.942  0.6051 -1.0020  1.0981
   96MOL    H5736347   7.548   7.339   3.851 -0.4883  0.5506  0.0983
   96MOL    H5836348   7.460   7.230   3.954  1.0468 -1.8721  2.2460
   96MOL    C5936349   7.631   7.148   3.851 -0.1174 -0.5177  0.2906
   96MOL    C6036350   7.780   7.172   3.824  0.1455  0.2613  0.3667
   96MOL    C6136351   7.872   7.074   3.875  0.8676 -0.1660 -0.2952
   96MOL    C6236352   8.005   7.088   3.825  0.8070 -0.4562  0.2386
   96MOL    C6336353   8.049   7.192   3.738 -0.2487 -0.5990 -0.2046
   96MOL    C6436354   0.113   7.218   3.709  0.4718  0.1602 -1.0293
   96MOL    C6536355   7.957   7.283   3.690  0.0504 -0.2235  0.3662
   96MOL    C6636356   7.823   7.272   3.730 -0.1811 -0.6360 -0.3327
   96MOL    C6736357   7.562   7.124   3.708 -0.2200 -0.1661 -0.1507
   96MOL    H6836358   7.626   7.057   3.910 -2.4803  0.0107  0.9701
   96MOL    H6936359   7.826   6.995   3.933 -0.7245 -1.0489 -2.6767
   96MOL    H7036360   8.078   7.017   3.862 -0.2147 -0.5393  2.1329
   96MOL    H7136361   0.149   7.284   3.788 -2.0929  0.8560 -0.3766
   96MOL    H7236362   0.179   7.133   3.692  1.1661 -0.0648  2.3447
   96MOL    H7336363   0.130   7.281   3.622  0.3153  0.8092 -0.5990
   96MOL    H7436364   7.993   7.365   3.631  0.0190 -0.2258  0.3440
   96MOL    H7536365   7.755   7.346   3.691  0.3031  0.5013  0.9754
   96MOL    H7636366   7.634   7.074   3.644  1.5408  0.8675  0.9992
   96MOL    H7736367   7.533   7.222   3.671 -0.1219  0.9320  2.6159
   96MOL    C7836368   7.437   7.032   3.703  0.2711  0.7605 -0.3409
   96MOL    C7936369   7.456   6.895   3.769 -0.3463  0.3896  0.0090
   96MOL    C8036370   7.583   6.828   3.765  0.0209  0.0296  0.2450
   96MOL    C8136371   7.588   6.704   3.830 -0.3914 -0.2016  0.1508
   96MOL    C8236372   7.478   6.641   3.894  0.1971  0.0856  0.0200
   96MOL    C8336373   7.485   6.506   3.966  0.2292  0.2219  1.0783
   96MOL    C8436374   7.362   6.714   3.905  1.0677 -0.4790  0.3965
   96MOL    C8536375   7.348   6.840   3.842  0.1095 -0.0022 -0.1335
   96MOL    C8636376   7.372   7.010   3.570 -0.2390 -0.0045 -0.3781
   96MOL    H8736377   7.374   7.088   3.773  1.2462 -1.5041  2.4953
   96MOL    H8836378   7.664   6.883   3.721  0.9666  0.6715  2.7509
   96MOL    H8936379   7.680   6.651   3.810  0.7758  1.8128  0.1548
   96MOL    H9036380   7.476   6.423   3.897  0.8904  0.9011  0.1649
   96MOL    H9136381   7.588   6.500   4.000  0.4124  0.1933  0.5195
   96MOL    H9236382   7.417   6.494   4.050 -0.0835  0.7431  0.9063
   96MOL    H9336383   7.286   6.689   3.978  0.1002  3.4430  0.8528
   96MOL    H9436384   7.250   6.883   3.851 -0.8068 -1.3113 -3.0794
   96MOL    H9536385   7.293   6.936   3.583  0.9401 -1.2426 -0.2838
   96MOL    H9636386   7.446   6.965   3.504  0.1438  1.2152 -0.8033
   96MOL    C9736387   7.342   7.137   3.491  0.3753  0.6707  0.1843
   96MOL    C9836388   7.250   7.227   3.567 -0.4521 -0.1519 -0.3088
   96MOL    C9936389   7.283   7.364   3.585 -0.1236 -0.4321 -1.1136
   96MOL   C10036390   7.197   7.449   3.655 -0.5654  0.4607 -0.2636
   96MOL   C10136391   7.081   7.389   3.709 -1.1515 -0.8221  0.5140
   96MOL   C10236392   6.984   7.480   3.784  0.3559 -0.2838 -0.4881
   96MOL   C10336393   7.048   7.256   3.691 -0.3363  0.1691  0.1224
   96MOL   C10436394   7.130   7.173   3.620  0.1835  0.2731 -0.1316
   96MOL   C10536395   7.275   7.098   3.359  0.0366 -0.8543 -0.0622
   96MOL   H10636396   7.433   7.194   3.474 -1.8405  3.7634 -1.9082
   96MOL   H10736397   7.381   7.401   3.559  0.2986 -0.3868  0.4984
   96MOL   H10836398   7.216   7.552   3.680  0.3758  0.7845 -2.2306
   96MOL   H10936399   6.990   7.494   3.892 -0.8475  0.4410 -0.5075
   96MOL   H11036400   6.991   7.581   3.743 -2.4739  0.6954  1.2659
   96MOL   H11136401   6.881   7.448   3.770  1.3285 -2.7626 -2.3551
   96MOL   H11236402   6.958   7.214   3.733 -0.4203 -2.0439 -2.1230
   96MOL   H11336403   7.103   7.070   3.601  1.2830 -0.1555  0.5727
   96MOL   H11436404   7.254   7.191   3.306  0.8490 -0.2772  0.6184
   96MOL   H11536405   7.174   7.061   3.374 -0.8777  1.2177 -0.8992
   96MOL   C11636406   7.362   7.019   3.250 -0.2946  0.4122  0.4803
   96MOL   C11736407   7.498   7.072   3.214 -0.3646 -0.1419  1.3319
   96MOL   C11836408   7.606   6.976   3.198  0.2313 -0.2500 -0.1830
   96MOL   C11936409   7.740   7.019   3.182  0.6600  0.8160  0.1717
   96MOL   C12036410   7.768   7.155   3.175 -0.2824 -0.2387  0.4040
   96MOL   C12136411   7.910   7.200   3.149 -0.4167  0.2659 -0.0915
   96MOL   C12236412   7.663   7.249   3.178  0.1061  0.5538 -0.9669
   96MOL   C12336413   7.530   7.210   3.197  0.2727 -0.1484  0.1778
   96MOL   C12436414   7.283   6.974   3.123  0.0835 -0.2890 -0.3091
   96MOL   H12536415   7.386   6.921   3.291  2.0007 -0.1648 -2.0561
   96MOL   H12636416   7.587   6.870   3.200  3.4859 -0.8644  0.1282
   96MOL   H12736417   7.824   6.953   3.166  0.0140 -0.2955  1.2410
   96MOL   H12836418   7.972   7.191   3.239 -0.7508 -0.1665  0.0963
   96MOL   H12936419   7.938   7.133   3.068  1.6619  0.9058  0.0567
   96MOL   H13036420   7.932   7.299   3.109 -1.1899  2.5783  4.8026
   96MOL   H13136421   7.683   7.354   3.160  1.8222  0.3525 -0.3039
   96MOL   H13236422   7.453   7.285   3.209  1.9045  1.3931  1.2828
   96MOL   H13336423   7.344   6.917   3.053 -0.4563 -1.4983  0.1863
   96MOL   H13436424   7.261   7.064   3.066  1.6613  0.9007  0.9172
   96MOL   C13536425   7.151   6.890   3.136 -0.1464 -0.4959 -0.3944
   96MOL   C13636426   7.149   6.800   3.255 -0.0565  0.6448  0.6068
   96MOL   C13736427   7.075   6.835   3.370  0.2465  0.5128 -0.0434
   96MOL   C13836428   7.082   6.757   3.488  0.7913 -0.7305 -0.1340
   96MOL   C13936429   7.150   6.634   3.488 -0.8348  0.1135  0.5783
   96MOL   C14036430   7.154   6.536   3.607 -0.1756 -0.0634  0.1395
   96MOL   C14136431   7.217   6.598   3.374  0.3725 -0.1013  0.7341
   96MOL   C14236432   7.226   6.678   3.261  0.5081 -0.1480  0.3468
   96MOL   C14336433   7.108   6.810   3.009  0.4640 -0.0103 -0.0364
   96MOL   H14436434   7.077   6.968   3.153  2.3545  1.8862  0.1284
   96MOL   H14536435   7.013   6.923   3.356  0.7635  0.6818 -1.3779
   96MOL   H14636436   7.030   6.799   3.572 -0.5651 -0.5792 -1.0352
   96MOL   H14736437   7.200   6.442   3.577 -1.3868 -0.7006  0.2507
   96MOL   H14836438   7.206   6.589   3.687  2.2176 -0.3638 -1.1478
   96MOL   H14936439   7.055   6.504   3.639  0.0865 -1.5324 -0.4795
   96MOL   H15036440   7.279   6.510   3.378 -1.7519 -1.7299 -1.0731
   96MOL   H15136441   7.292   6.647   3.182 -0.2948  1.1800 -0.8588
   96MOL   H15236442   7.037   6.732   3.038 -0.5711  0.5310 -1.0579
   96MOL   H15336443   7.193   6.754   2.971  0.3300 -1.5039  1.7429
   96MOL   C15436444   7.051   6.905   2.898  0.4614 -0.0022  0.3500
   96MOL   C15536445   6.924   6.980   2.948 -0.0418  0.5542  0.2916
   96MOL   C15636446   6.812   6.911   2.992 -0.2464  0.6662  0.6910
   96MOL   C15736447   6.691   6.969   3.036 -0.1905 -0.1855 -0.4143
   96MOL   C15836448   6.687   7.112   3.021 -0.1858  0.4247  0.6689
   96MOL   C15936449   6.561   7.186   3.041 -0.5739  0.1509 -0.1239
   96MOL   C16036450   6.802   7.184   2.991 -0.6795 -0.9497  0.3150
   96MOL   C16136451   6.924   7.122   2.954  0.1062  0.0512 -1.2494
   96MOL   C16236452   7.030   6.821   2.767  0.5176 -0.3554  0.3395
   96MOL   H16336453   7.127   6.975   2.864 -0.1381  0.0797 -0.8395
   96MOL   H16436454   6.815   6.803   2.999  0.1551  0.4416 -2.2960
   96MOL   H16536455   6.607   6.912   3.072  0.6802 -1.1638  0.0666
   96MOL   H16636456   6.484   7.122   3.084 -0.1870  1.0466  1.9615
   96MOL   H16736457   6.567   7.273   3.106  1.4734  2.0193 -2.7240
   96MOL   H16836458   6.524   7.233   2.950  1.2144  3.8420  0.9732
   96MOL   H16936459   6.804   7.292   2.995  2.9600 -0.9415  0.4091
   96MOL   H17036460   7.018   7.175   2.944  0.2821 -0.3770 -1.8951
   96MOL   H17136461   6.956   6.744   2.787 -1.0106  0.6362 -1.3996
   96MOL   H17236462   7.128   6.776   2.746  0.4076 -0.7631  0.6842
   96MOL   C17336463   7.005   6.905   2.634  0.0248 -0.0757  0.0355
   96MOL   C17436464   7.105   7.021   2.614  0.7425  0.2876  0.0580
   96MOL   C17536465   7.076   7.154   2.670  1.1768  0.0791 -0.8230
   96MOL   C17636466   7.170   7.264   2.649  0.6197  0.2185 -0.0867
   96MOL   C17736467   7.289   7.245   2.578  0.4584  0.2485 -0.0143
   96MOL   C17836468   7.398   7.351   2.554 -0.1027 -0.9388 -0.3502
   96MOL   C17936469   7.311   7.118   2.523 -0.2484 -0.4598  0.9579
   96MOL   C18036470   7.221   7.013   2.535 -0.7734  0.2796 -0.0694
   96MOL   C18136471   6.860   6.942   2.582  0.8276  0.3716  0.0558
   96MOL   H18236472   7.029   6.836   2.554  0.3909  0.6724 -0.5114
   96MOL   H18336473   6.983   7.173   2.721  1.1047 -1.5784 -0.3134
   96MOL   H18436474   7.140   7.357   2.695 -0.0195 -0.8102  1.5895
   96MOL   H18536475   7.357   7.452   2.547 -0.4427 -0.9440  1.4003
   96MOL   H18636476   7.477   7.348   2.629  0.5385 -1.4801 -1.0327
   96MOL   H18736477   7.434   7.325   2.455 -0.0222 -0.6682 -0.3928
   96MOL   H18836478   7.403   7.106   2.467 -0.3372 -1.0196  0.9338
   96MOL   H18936479   7.237   6.912   2.500 -1.8804  0.2956 -0.6572
   96MOL   H19036480   6.873   6.987   2.484  1.1618 -0.4876 -0.2983
   96MOL   H19136481   6.820   7.034   2.626  0.3758 -0.9000  2.3932
   96MOL   C19236482   6.748   6.834   2.569 -0.6451  0.4308 -0.4530
   96MOL   C19336483   6.645   6.872   2.461 -0.5790 -0.5831 -0.1788
   96MOL   C19436484   6.560   6.977   2.489 -0.2103  0.5319 -1.0490
   96MOL   C19536485   6.468   7.029   2.387  0.0691 -0.1512 -0.3585
   96MOL   C19636486   6.461   6.962   2.271  0.0878  0.3701  0.3986
   96MOL   C19736487   6.366   6.995   2.161 -0.6853  0.5606 -0.6464
   96MOL   C19836488   6.548   6.854   2.242 -0.3394  0.3800 -0.0109
   96MOL   C19936489   6.640   6.807   2.337 -0.3141  0.0819 -0.3413
   96MOL   C20036490   6.678   6.797   2.696 -0.0857  0.3088  0.4267
   96MOL   H20136491   6.794   6.740   2.540 -1.3925 -0.1818  0.3538
   96MOL   H20236492   6.558   7.029   2.583 -0.2198  1.6946 -1.6759
   96MOL   H20336493   6.406   7.117   2.394 -0.9934 -0.9094 -0.0022
   96MOL   H20436494   6.336   6.905   2.107 -0.2127  0.0835 -0.1269
   96MOL   H20536495   6.273   7.030   2.206 -0.6806 -0.0401 -0.1658
   96MOL   H20636496   6.398   7.072   2.091  2.4312 -0.4207 -0.3689
   96MOL   H20736497   6.534   6.791   2.155  0.0214  0.7113 -0.3072
   96MOL   H20836498   6.707   6.725   2.312 -2.4194 -1.7213 -0.2274
   96MOL   H20936499   6.630   6.884   2.740 -0.5690 -0.3464  1.2166
   96MOL   H21036500   6.757   6.771   2.766  1.3269  2.5525 -0.2845
   96MOL   C21136501   6.565   6.689   2.685 -0.2726 -0.4832  0.0105
   96MOL   C21236502   6.509   6.653   2.822  0.2890 -0.3554 -0.0827
   96MOL   C21336503   6.369   6.682   2.847 -0.2766  0.1549 -0.0341
   96MOL   C21436504   6.318   6.656   2.975  0.3066 -0.6936  0.0321
   96MOL   C21536505   6.400   6.612   3.079 -0.2702  0.1842  0.0007
   96MOL   C21636506   6.347   6.605   3.223  0.0754 -0.2091 -0.2151
   96MOL   C21736507   6.534   6.595   3.060  0.1847 -0.6529  0.6832
   96MOL   C21836508   6.592   6.615   2.930  0.1025 -0.1610 -0.7168
   96MOL   C21936509   6.609   6.554   2.618  0.1981 -0.6488 -0.5396
   96MOL   H22036510   6.492   6.740   2.623  0.7468  1.7648  0.5747
   96MOL   H22136511   6.307   6.729   2.771 -0.8663  0.0532  0.3782
   96MOL   H22236512   6.216   6.685   2.993  1.3014  1.4387  2.7399
   96MOL   H22336513   6.240   6.628   3.223 -0.0831 -0.9100  0.0586
   96MOL   H22436514   6.364   6.512   3.278 -1.1267 -0.5587 -0.4208
   96MOL   H22536515   6.405   6.670   3.288  0.5333  1.1524 -1.9773
   96MOL   H22636516   6.598   6.574   3.144  1.9930 -1.2166 -0.8022
   96MOL   H22736517   6.696   6.604   2.904  0.5731 -2.3157  1.8168
   96MOL   H22836518   6.673   6.492   2.681  0.6270  0.2165 -0.1280
   96MOL   H22936519   6.680   6.559   2.536 -0.6110  0.5459 -1.1892
   96MOL   C23036520   6.487   6.485   2.556 -0.0440 -0.4239 -0.2698
   96MOL   C23136521   6.509   6.331   2.566  0.0487  0.0174  0.6918
   96MOL   C23236522   6.447   6.260   2.671  0.1889 -0.0274  0.2458
   96MOL   C23336523   6.474   6.124   2.679 -1.1420 -0.4789 -0.1362
   96MOL   C23436524   6.545   6.051   2.581  0.6955 -0.3472  0.4842
   96MOL   C23536525   6.567   5.901   2.607 -0.0352  0.1579  0.4470
   96MOL   C23636526   6.596   6.124   2.476  0.4081 -0.2438 -0.4678
   96MOL   C23736527   6.588   6.264   2.475  0.0018  0.4591 -0.0989
   96MOL   C23836528   6.427   6.534   2.419  0.7240 -0.8970  0.2759
   96MOL   H23936529   6.415   6.496   2.638  0.3184  1.5144 -0.2037
   96MOL   H24036530   6.396   6.305   2.755 -0.1603  1.2457 -0.6455
   96MOL   H24136531   6.447   6.065   2.766  1.2035  2.2080  2.5402
   96MOL   H24236532   6.502   5.835   2.550 -0.9847  0.6485  0.9430
   96MOL   H24336533   6.672   5.878   2.590 -0.2207  1.1998 -2.3794
   96MOL   H24436534   6.550   5.887   2.713  1.6166 -0.8905  0.5837
   96MOL   H24536535   6.665   6.074   2.410 -2.0854 -2.4654 -1.4807
   96MOL   H24636536   6.634   6.315   2.392 -0.4875  0.0271 -0.6369
   96MOL   H24736537   6.506   6.547   2.345 -0.8136 -2.0347 -1.6228
   96MOL   H24836538   6.381   6.632   2.430 -0.6179 -0.9625 -3.9965
   96MOL   C24936539   6.322   6.438   2.350 -0.6113 -0.0006  0.0734
   96MOL   C25036540   6.299   6.484   2.206 -0.3530 -0.3339  0.3872
   96MOL   C25136541   6.260   6.613   2.183 -0.1141  0.7687 -0.4480
   96MOL   C25236542   6.213   6.654   2.057  1.1149 -0.3278 -0.6876
   96MOL   C25336543   6.225   6.566   1.955  0.8073  0.2139  0.0792
   96MOL   C25436544   6.195   6.595   1.813 -0.0916  0.2965  0.1617
   96MOL   C25536545   6.266   6.435   1.978  0.1674 -0.8399  0.0526
   96MOL   C25636546   6.310   6.387   2.102 -0.1190  0.2957  0.2984
   96MOL   C25736547   6.190   6.438   2.430 -0.0569  0.4536  0.2233
   96MOL   H25836548   6.362   6.336   2.347 -0.0032  0.2710 -2.3220
   96MOL   H25936549   6.255   6.673   2.272  2.3381 -0.9090  0.8855
   96MOL   H26036550   6.179   6.756   2.042 -1.5992 -1.5095 -3.1028
   96MOL   H26136551   6.127   6.522   1.768  3.7801 -1.4172 -3.2163
   96MOL   H26236552   6.148   6.693   1.805 -0.8367 -0.2497 -3.2742
   96MOL   H26336553   6.294   6.587   1.768  1.3586  1.2240  3.0911
   96MOL   H26436554   6.273   6.358   1.902  4.1803 -1.2647  0.7209
   96MOL   H26536555   6.340   6.284   2.100 -3.2198 -0.6226 -1.6588
   96MOL   H26636556   6.141   6.535   2.418 -0.5010  0.2003 -0.0230
   96MOL   H26736557   6.202   6.440   2.539 -0.2923 -1.3519  0.2940
   96MOL   C26836558   6.096   6.330   2.370 -0.1978  0.2633  0.5135
   96MOL   C26936559   5.951   6.370   2.386 -0.6417  0.3555  0.5582
   96MOL   C27036560   5.884   6.445   2.282  0.7406 -0.0277 -0.1931
   96MOL   C27136561   5.744   6.469   2.295 -0.1818  0.2944 -0.2975
   96MOL   C27236562   5.671   6.430   2.412  0.6295 -0.7894 -0.1305
   96MOL   C27336563   5.522   6.455   2.430  0.2122  0.5982  0.7060
   96MOL   C27436564   5.740   6.359   2.514  0.3683  0.1745  0.2011
   96MOL   C27536565   5.879   6.338   2.497  0.5332 -0.8996  0.4859
   96MOL   C27636566   6.129   6.190   2.419  0.7669 -0.1258  0.3609
   96MOL   H27736567   6.099   6.311   2.263 -0.7577 -1.8916  0.8453
   96MOL   H27836568   5.948   6.481   2.202  1.3395 -2.5842 -0.9241
   96MOL   H27936569   5.689   6.515   2.215 -2.3904 -2.0106 -0.1714
   96MOL   H28036570   5.455   6.388   2.376 -0.5486  1.6869  0.2655
   96MOL   H28136571   5.484   6.476   2.530  0.5721  0.7121  0.8204
   96MOL   H28236572   5.503   6.558   2.399  0.3676  1.6751  3.9530
   96MOL   H28336573   5.690   6.335   2.607  1.1925  1.5777  1.0243
   96MOL   H28436574   5.925   6.285   2.580  0.5836 -0.8927  0.4623
   96MOL   H28536575   6.129   6.206   2.527  0.3602  0.4771  0.2733
   96MOL   H28636576   6.233   6.176   2.389  0.4931 -1.5669  0.0580
   96MOL   C28736577   6.045   6.069   2.378 -0.4164 -0.6638  0.2841
   96MOL   C28836578   6.055   5.956   2.487 -0.6381  0.0897 -0.0216
   96MOL   C28936579   6.179   5.926   2.546 -0.6640 -0.4250  0.7527
   96MOL   C29036580   6.197   5.823   2.638 -0.0065 -0.0756  0.0090
   96MOL   C29136581   6.083   5.747   2.676  0.2545  0.5693 -0.4846
   96MOL   C29236582   6.096   5.635   2.772 -0.2430  0.2054  0.0797
   96MOL   C29336583   5.958   5.783   2.627  0.3820 -0.6576  0.3066
   96MOL   C29436584   5.943   5.884   2.530  0.4484  0.3525 -0.1605
   96MOL   C29536585   6.084   6.005   2.238  0.2942 -0.8923 -0.4618
   96MOL   H29636586   5.941   6.100   2.376 -0.1236  0.3405  0.4189
   96MOL   H29736587   6.262   5.986   2.511 -0.1390 -0.4467  1.9341
   96MOL   H29836588   6.295   5.792   2.672  0.9465  0.3912 -2.2852
   96MOL   H29936589   6.030   5.639   2.858 -1.7134  0.6750 -1.0388
   96MOL   H30036590   6.082   5.542   2.716  1.2016 -0.3077  0.5540
   96MOL   H30136591   6.197   5.634   2.812 -0.0209 -2.2768 -0.4544
   96MOL   H30236592   5.871   5.729   2.662 -0.9914  2.4750  1.9101
   96MOL   H30336593   5.846   5.890   2.483  0.3552  2.8424  0.2788
   96MOL   H30436594   6.063   5.900   2.256  2.7055 -1.3630 -0.2899
   96MOL   H30536595   6.190   6.003   2.214  0.7920  2.3260  1.1178
   96MOL   C30636596   6.002   6.057   2.117  0.4471 -0.0533 -0.3426
   96MOL   C30736597   5.857   6.038   2.132 -0.0232  0.5328 -0.2706
   96MOL   C30836598   5.769   6.148   2.141 -0.2265 -0.4971 -0.3922
   96MOL   C30936599   5.640   6.129   2.194  0.2719 -0.8180  0.0437
   96MOL   C31036600   5.596   6.000   2.230  0.4299  0.0510  0.2293
   96MOL   C31136601   5.452   5.978   2.261 -0.1993  0.6155 -0.1616
   96MOL   C31236602   5.681   5.890   2.217  0.2905 -0.3230 -0.8166
   96MOL   C31336603   5.813   5.907   2.170  0.9882 -0.1897 -0.3815
   96MOL   C31436604   6.058   5.979   1.994 -0.0567 -0.4743  0.6127
   96MOL   H31536605   6.026   6.162   2.100  0.9259 -0.3354 -1.4850
   96MOL   H31636606   5.813   6.246   2.135  1.0474 -0.9326  1.5458
   96MOL   H31736607   5.588   6.222   2.209 -0.4097 -1.0642 -0.7288
   96MOL   H31836608   5.407   6.070   2.299  0.0143  0.6857 -0.0784
   96MOL   H31936609   5.394   5.928   2.185 -1.6611 -1.2238  2.1067
   96MOL   H32036610   5.444   5.906   2.342  0.7310 -0.5463 -1.0915
   96MOL   H32136611   5.646   5.794   2.253 -0.2908  1.1119  2.6893
   96MOL   H32236612   5.872   5.817   2.152 -0.4535 -1.0351 -0.9605
   96MOL   H32336613   6.061   5.872   2.015  3.0676 -0.7500 -1.0025
   96MOL   H32436614   6.165   5.997   1.985 -0.5426  1.6743 -1.1978
   96MOL   C32536615   5.995   6.002   1.851  0.1710  0.3880  0.0674
   96MOL   C32636616   6.074   5.918   1.749  0.2304  0.1610 -0.2522
   96MOL   C32736617   6.028   5.792   1.726  0.5783 -0.3097 -0.1840
   96MOL   C32836618   6.105   5.719   1.639  0.0650 -0.1103  0.0652
   96MOL   C32936619   6.227   5.769   1.581  0.4026  0.8997 -0.0541
   96MOL   C33036620   6.290   5.687   1.473  0.2362 -0.0991  0.2710
   96MOL   C33136621   6.278   5.896   1.608  0.3328  0.1400 -0.5008
   96MOL   C33236622   6.199   5.969   1.698 -0.5040 -0.4253  0.1217
   96MOL   C33336623   5.976   6.149   1.810  0.4827 -0.0688  0.9800
   96MOL   H33436624   5.890   5.973   1.852  0.5081 -0.8722  0.4101
   96MOL   H33536625   5.933   5.760   1.767 -0.4552  0.8720 -1.5580
   96MOL   H33636626   6.076   5.618   1.616  1.0524 -0.8557  1.9849
   96MOL   H33736627   6.392   5.656   1.494  0.2952  0.6235  1.0385
   96MOL   H33836628   6.233   5.596   1.452 -1.1284  0.7958  0.0428
   96MOL   H33936629   6.301   5.750   1.385  0.9353 -1.0755 -0.3573
   96MOL   H34036630   6.362   5.943   1.560  0.2809 -1.4079 -2.1211
   96MOL   H34136631   6.241   6.066   1.725  1.7402 -0.9920 -1.2035
   96MOL   H34236632   6.070   6.203   1.817  0.0521  1.0261 -1.3067
   96MOL   H34336633   5.917   6.214   1.875 -2.0623 -0.5972 -0.7054
   96MOL   C34436634   5.936   6.173   1.664 -0.0418  0.0807 -0.1762
   96MOL   C34536635   5.943   6.320   1.621  0.8804 -0.2239  0.2210
   96MOL   C34636636   6.036   6.359   1.525  0.3997 -0.5450  0.0818
   96MOL   C34736637   6.039   6.492   1.479  0.3247 -0.4212  0.5654
   96MOL   C34836638   5.949   6.587   1.523 -0.0338 -0.4119  0.1901
   96MOL   C34936639   5.956   6.730   1.475  0.1753 -0.2340  0.7700
   96MOL   C35036640   5.864   6.551   1.630 -0.6537 -0.0212 -0.4832
   96MOL   C35136641   5.865   6.422   1.682 -0.2040 -0.6506  0.0689
   96MOL   C35236642   5.793   6.125   1.627  0.3298 -0.1913  0.0438
   96MOL   H35336643   6.012   6.119   1.607  0.5688  1.2134 -0.4567
   96MOL   H35436644   6.103   6.291   1.475 -3.6842 -3.1052 -2.2507
   96MOL   H35536645   6.108   6.515   1.399 -1.7777  1.8664 -0.6815
   96MOL   H35636646   5.857   6.771   1.454  0.5072 -0.5097 -1.4592
   96MOL   H35736647   5.997   6.800   1.548 -1.0569 -0.8411  2.0760
   96MOL   H35836648   6.027   6.741   1.393  0.1281  0.5551  0.8306
   96MOL   H35936649   5.790   6.625   1.656 -4.2526 -3.4259 -0.5745
   96MOL   H36036650   5.796   6.391   1.759 -1.9074 -0.0749 -1.1970
   96MOL   H36136651   5.712   6.196   1.644  1.1171  0.7714 -0.1620
   96MOL   H36236652   5.773   6.041   1.694  1.1444 -1.6281 -1.4867
   96MOL   C36336653   5.768   6.070   1.488 -0.8187 -0.1140 -0.2656
   96MOL   C36436654   5.806   6.163   1.367  0.3701  0.0521 -0.0989
   96MOL   C36536655   5.717   6.262   1.319 -0.1261 -0.3311 -0.4536
   96MOL   C36636656   5.750   6.346   1.212  0.1856 -0.2350 -0.1807
   96MOL   C36736657   5.864   6.335   1.134 -0.4369 -0.5639 -0.8612
   96MOL   C36836658   5.896   6.432   1.024 -0.2173  0.1931 -0.1280
   96MOL   C36936659   5.949   6.230   1.169 -0.3827  0.8950  0.0681
   96MOL   C37036660   5.927   6.146   1.286  0.6210  0.1479 -0.3364
   96MOL   C37136661   5.626   6.019   1.470 -0.0418 -0.4860  0.2516
   96MOL   H37236662   5.834   5.985   1.469 -1.4760 -0.6756 -0.0680
   96MOL   H37336663   5.634   6.295   1.379 -0.8388  0.0271 -1.6206
   96MOL   H37436664   5.681   6.426   1.189 -1.1874 -1.3273  0.0342
   96MOL   H37536665   5.971   6.394   0.956 -0.6936 -0.7222 -0.1628
   96MOL   H37636666   5.807   6.448   0.962 -0.7067 -2.9149 -0.3182
   96MOL   H37736667   5.923   6.532   1.057  2.0465 -0.0859 -1.0936
   96MOL   H37836668   6.041   6.221   1.113  1.2655  2.8262  2.3571
   96MOL   H37936669   6.007   6.075   1.303 -1.1584 -2.2103 -1.4789
   96MOL   H38036670   5.614   5.955   1.383 -1.6573  0.4945 -0.2680
   96MOL   H38136671   5.554   6.101   1.464  1.1505  0.4457 -2.0306
   96MOL   H38236672   5.600   5.964   1.561 -0.0688  0.8217  1.0532
   97MOL     C136673   1.029   2.029   5.319  0.4851 -0.4237  0.1732
   97MOL     C236674   1.113   1.913   5.282 -0.7931 -0.0429 -0.1046
   97MOL     C336675   1.124   1.793   5.349 -0.2345  0.5834  0.0938
   97MOL     C436676   1.182   1.675   5.293  0.0420  0.0770  0.8843
   97MOL     C536677   1.244   1.678   5.165  0.1529  0.1901 -0.8281
   97MOL     C636678   1.302   1.553   5.105 -0.6329 -0.2409 -0.3442
   97MOL     C736679   1.233   1.801   5.095  0.2216 -0.3221 -0.7942
   97MOL     C836680   1.168   1.915   5.153 -0.2207  0.6329 -0.5361
   97MOL     C936681   0.878   1.988   5.337 -0.1476 -0.2497 -0.0697
   97MOL    H1036682   1.087   2.072   5.401  1.4248 -1.0608 -0.1542
   97MOL    H1136683   1.082   1.788   5.449 -1.0565 -0.6137 -0.2891
   97MOL    H1236684   1.192   1.583   5.349 -0.5312 -0.7494 -0.3646
   97MOL    H1336685   1.271   1.463   5.158 -1.3529 -1.0506 -2.1231
   97MOL    H1436686   1.272   1.535   5.002 -2.1505 -1.9019  0.3629
   97MOL    H1536687   1.410   1.569   5.102 -0.6732  0.9781  2.8042
   97MOL    H1636688   1.275   1.815   4.996  1.2019 -2.5720 -0.7148
   97MOL    H1736689   1.172   2.005   5.093 -2.9182  1.2332  0.1303
   97MOL    H1836690   0.859   1.934   5.429 -0.5585  1.2275  0.7243
   97MOL    H1936691   0.870   1.912   5.259  1.8187  1.0399 -1.5952
   97MOL    H2036692   1.038   2.103   5.239  0.4204 -2.2917 -1.5947
   97MOL    C2136693   0.781   2.108   5.318  0.5681 -0.2703  0.0139
   97MOL    C2236694   0.801   2.201   5.432 -0.2640  0.1922 -0.3004
   97MOL    C2336695   0.768   2.156   5.562 -0.5961  0.0938  0.5751
   97MOL    C2436696   0.781   2.247   5.672  0.1937 -0.0166 -0.1111
   97MOL    C2536697   0.831   2.377   5.651 -0.4057 -0.2174  0.7777
   97MOL    C2636698   0.842   2.476   5.772  0.5062  0.3427 -0.1369
   97MOL    C2736699   0.864   2.424   5.520 -0.1887  0.4643 -0.1493
   97MOL    C2836700   0.855   2.332   5.414  0.0925 -0.1294  0.1104
   97MOL    C2936701   0.633   2.064   5.313  0.3758 -0.1322 -0.0471
   97MOL    H3036702   0.803   2.158   5.223 -0.1561 -0.3051 -0.1756
   97MOL    H3136703   0.721   2.060   5.575  0.7167 -0.6987 -0.3625
   97MOL    H3236704   0.743   2.210   5.765 -2.1692  1.0500 -0.6271
   97MOL    H3336705   0.757   2.544   5.771 -0.2452 -0.5736  0.0745
   97MOL    H3436706   0.825   2.424   5.867 -4.1062  0.8317 -0.5825
   97MOL    H3536707   0.929   2.542   5.778 -1.0473  2.5623 -1.5588
   97MOL    H3636708   0.899   2.524   5.502 -1.3150  0.8411 -0.2975
   97MOL    H3736709   0.877   2.370   5.315  0.7735 -1.0282 -0.0965
   97MOL    H3836710   0.568   2.149   5.332 -0.3137  0.1480 -3.3758
   97MOL    H3936711   0.618   1.982   5.383  0.2083 -0.6700 -0.7080
   97MOL    C4036712   0.603   2.009   5.177 -0.0504  1.1404  0.2243
   97MOL    C4136713   0.611   2.113   5.064 -0.3861  0.4519  0.5919
   97MOL    C4236714   0.691   2.095   4.956 -0.2316 -0.1791  0.1514
   97MOL    C4336715   0.670   2.181   4.851  0.4845  0.3515  0.3758
   97MOL    C4436716   0.587   2.300   4.849 -0.6792 -0.3358  0.2012
   97MOL    C4536717   0.580   2.389   4.730  0.3012 -0.5205 -0.2856
   97MOL    C4636718   0.507   2.319   4.964  0.5621  0.6057 -0.4835
   97MOL    C4736719   0.516   2.223   5.071  0.8240  0.4400  0.3881
   97MOL    C4836720   0.470   1.933   5.161  0.2036  0.1141 -0.4491
   97MOL    H4936721   0.685   1.941   5.157 -2.0213 -1.2409  0.0256
   97MOL    H5036722   0.768   2.020   4.959 -1.0611 -0.9994  1.0327
   97MOL    H5136723   0.726   2.162   4.760 -2.2349 -1.0510 -1.0714
   97MOL    H5236724   0.630   2.483   4.753  2.2374 -1.6402  0.1980
   97MOL    H5336725   0.617   2.349   4.635 -1.3490  0.7165 -1.4695
   97MOL    H5436726   0.473   2.405   4.717  0.1707 -0.0434  1.2944
   97MOL    H5536727   0.443   2.406   4.968  2.3023  1.8166  3.2131
   97MOL    H5636728   0.462   2.229   5.165  1.5615 -1.0255  0.9082
   97MOL    H5736729   0.393   1.994   5.208  0.2955  0.6485 -0.9839
   97MOL    H5836730   0.479   1.845   5.225  1.5370 -0.3724 -1.2855
   97MOL    C5936731   0.410   1.901   5.025  0.5824  0.3199 -0.1381
   97MOL    C6036732   0.257   1.905   5.034 -0.0281 -1.0395  0.1110
   97MOL    C6136733   0.195   2.017   4.981 -0.4777 -0.9500 -0.6512
   97MOL    C6236734   0.053   2.028   4.977  0.0141 -0.1269  0.4640
   97MOL    C6336735   8.057   1.924   5.027  0.0252 -0.0945  0.0291
   97MOL    C6436736   7.906   1.935   5.028 -0.7220 -0.4346 -0.0496
   97MOL    C6536737   0.038   1.813   5.092  0.3061  0.5339  0.3673
   97MOL    C6636738   0.178   1.807   5.096  0.4102 -1.0118  0.0318
   97MOL    C6736739   0.465   1.770   4.975  0.4532  0.5334  0.1723
   97MOL    H6836740   0.428   1.982   4.955  0.7570  0.3128 -0.1023
   97MOL    H6936741   0.253   2.088   4.924 -0.2526 -0.6500 -0.0571
   97MOL    H7036742   0.002   2.119   4.948  0.6055  0.1564  0.3006
   97MOL    H7136743   7.877   2.040   5.034  0.5158 -0.1326  1.0733
   97MOL    H7236744   7.856   1.873   4.955 -0.1824 -0.4562 -0.4029
   97MOL    H7336745   7.878   1.896   5.126  3.3331 -0.7881  1.0640
   97MOL    H7436746   8.068   1.726   5.132  2.6622 -0.0542  2.1725
   97MOL    H7536747   0.229   1.721   5.137  0.5806  0.0418  2.0931
   97MOL    H7636748   0.442   1.688   5.042 -1.4027  0.4298 -0.5782
   97MOL    H7736749   0.573   1.769   4.995  0.4479  1.1530  0.2531
   97MOL    C7836750   0.425   1.730   4.825 -0.1214 -0.0258 -0.5757
   97MOL    C7936751   0.412   1.575   4.807 -0.3190  0.3508  0.2751
   97MOL    C8036752   0.288   1.525   4.760  0.6310  0.1771 -0.3234
   97MOL    C8136753   0.272   1.384   4.753 -0.1990 -0.6457 -0.0374
   97MOL    C8236754   0.381   1.295   4.787  0.6765  0.3943  0.0457
   97MOL    C8336755   0.367   1.141   4.773 -0.1677  0.0909 -0.1681
   97MOL    C8436756   0.503   1.346   4.834  0.0004 -0.0403 -0.2243
   97MOL    C8536757   0.519   1.486   4.843 -0.8654 -0.1452  0.0296
   97MOL    C8636758   0.529   1.785   4.717  0.4735 -0.1817  0.2768
   97MOL    H8736759   0.323   1.767   4.815 -0.7559 -0.7964  2.4162
   97MOL    H8836760   0.206   1.591   4.735  1.0471  1.3317  1.2425
   97MOL    H8936761   0.179   1.346   4.712  0.6323 -2.7299 -0.0697
   97MOL    H9036762   0.425   1.084   4.845 -0.1730  0.1242 -0.1375
   97MOL    H9136763   0.263   1.111   4.783 -0.5556  1.5979  0.5012
   97MOL    H9236764   0.398   1.103   4.676 -1.2934 -0.1038 -0.4597
   97MOL    H9336765   0.588   1.286   4.860  1.6085  2.1212 -0.3067
   97MOL    H9436766   0.612   1.519   4.888 -1.1069 -0.3916  0.7105
   97MOL    H9536767   0.621   1.728   4.710  0.4275 -0.2212 -0.0010
   97MOL    H9636768   0.574   1.881   4.742 -0.0984 -0.0809  0.9497
   97MOL    C9736769   0.471   1.801   4.571  0.0160  0.2416  0.2740
   97MOL    C9836770   0.582   1.776   4.468  0.0436 -0.4090  0.0029
   97MOL    C9936771   0.710   1.841   4.471 -0.0374  0.5075  0.0610
   97MOL   C10036772   0.800   1.822   4.364  0.0104  0.2248 -0.3234
   97MOL   C10136773   0.771   1.733   4.257  0.0335  0.7830  0.3201
   97MOL   C10236774   0.877   1.712   4.152 -0.0474  0.2547 -0.1931
   97MOL   C10336775   0.651   1.664   4.254 -0.1596  0.1898 -0.7445
   97MOL   C10436776   0.560   1.688   4.359  1.1497  0.2612 -0.4694
   97MOL   C10536777   0.410   1.938   4.544 -0.5101  0.0786  0.8091
   97MOL   H10636778   0.390   1.731   4.553 -1.6176  1.4486  2.6664
   97MOL   H10736779   0.735   1.912   4.548 -1.0671  0.5706  0.3377
   97MOL   H10836780   0.900   1.860   4.374  0.6061 -1.3137 -0.3648
   97MOL   H10936781   0.929   1.619   4.175 -0.8647 -0.8771 -2.6862
   97MOL   H11036782   0.834   1.706   4.051 -1.0596  0.7270  0.2014
   97MOL   H11136783   0.934   1.804   4.155  0.1190  0.1482 -0.0967
   97MOL   H11236784   0.623   1.599   4.172 -0.3576 -0.5907 -0.0590
   97MOL   H11336785   0.471   1.628   4.349  0.5648  0.8329  1.1901
   97MOL   H11436786   0.387   1.941   4.437 -1.9757 -0.9219  1.0735
   97MOL   H11536787   0.485   2.012   4.571  0.1143  0.4451 -1.8054
   97MOL   C11636788   0.272   1.961   4.619 -0.4804 -0.0348  0.1911
   97MOL   C11736789   0.165   1.856   4.584  0.3206 -0.2187 -0.0887
   97MOL   C11836790   0.150   1.794   4.458  0.3547  0.7442 -0.4775
   97MOL   C11936791   0.060   1.692   4.430  0.2426 -0.8684 -0.7937
   97MOL   C12036792   8.057   1.648   4.535  0.2717  0.4836  0.2992
   97MOL   C12136793   7.950   1.541   4.508  0.5408  0.3608  0.2319
   97MOL   C12236794   8.066   1.704   4.662  0.0632 -0.8193 -0.6291
   97MOL   C12336795   0.069   1.815   4.682  0.1375 -0.2549 -0.1261
   97MOL   C12436796   0.210   2.098   4.576 -0.0038 -0.5570  0.7892
   97MOL   H12536797   0.282   1.956   4.728 -0.5405 -0.5401  0.1713
   97MOL   H12636798   0.224   1.815   4.382 -0.9033 -1.6967 -2.4736
   97MOL   H12736799   0.064   1.642   4.334  1.2990 -1.7287 -0.3217
   97MOL   H12836800   7.950   1.478   4.597 -2.1372  0.0363  0.0365
   97MOL   H12936801   7.851   1.587   4.501 -0.3306 -0.6895  4.1818
   97MOL   H13036802   7.988   1.479   4.426  1.6334 -0.2049  1.1467
   97MOL   H13136803   7.997   1.672   4.739  0.5211  2.7148  1.3545
   97MOL   H13236804   0.065   1.881   4.768  1.3231  1.7592 -1.5541
   97MOL   H13336805   0.279   2.165   4.627  0.8419 -1.1709  0.4554
   97MOL   H13436806   0.111   2.096   4.623 -1.4091  2.2953 -1.8844
   97MOL   C13536807   0.211   2.140   4.427  0.2053 -0.7259  0.0494
   97MOL   C13636808   0.330   2.228   4.375  1.1645  0.0054 -0.4522
   97MOL   C13736809   0.419   2.181   4.274 -0.3727  0.3528  0.2891
   97MOL   C13836810   0.527   2.259   4.234  0.4681  1.1082 -0.0070
   97MOL   C13936811   0.555   2.383   4.284  0.1994  0.2067 -0.0347
   97MOL   C14036812   0.667   2.475   4.246 -0.5112 -0.2715  0.5504
   97MOL   C14136813   0.464   2.434   4.380 -0.1723  0.2706  0.1919
   97MOL   C14236814   0.351   2.361   4.430 -0.0597  0.7044  0.0815
   97MOL   C14336815   0.073   2.195   4.387 -0.1467  0.0336  0.8934
   97MOL   H14436816   0.222   2.044   4.376 -2.3541 -2.1547  2.0242
   97MOL   H14536817   0.401   2.084   4.230 -0.3137  0.6235 -0.3405
   97MOL   H14636818   0.590   2.217   4.157 -0.7308  0.5296 -0.6888
   97MOL   H14736819   0.690   2.451   4.142  0.5866  0.7719  0.5492
   97MOL   H14836820   0.638   2.581   4.248 -2.5207 -0.7494 -1.0413
   97MOL   H14936821   0.756   2.459   4.306 -0.6072  0.3767  0.8713
   97MOL   H15036822   0.474   2.536   4.415 -0.3883  1.2913 -2.6396
   97MOL   H15136823   0.292   2.421   4.497 -0.9872 -0.2358  0.1247
   97MOL   H15236824   0.065   2.285   4.448 -0.6330  0.8719 -0.3891
   97MOL   H15336825   8.064   2.138   4.417 -1.0026  0.1570 -1.3196
   97MOL   C15436826   0.062   2.231   4.236 -0.1296 -0.3469 -0.4611
   97MOL   C15536827   8.074   2.368   4.224  0.7397 -0.1543  0.1969
   97MOL   C15636828   7.953   2.393   4.287  0.9755  0.5283 -0.2752
   97MOL   C15736829   7.890   2.518   4.272  0.2052  0.4476 -0.3638
   97MOL   C15836830   7.949   2.619   4.200 -0.7258 -0.0156 -0.3691
   97MOL   C15936831   7.896   2.760   4.189 -0.5394 -0.4248  0.1677
   97MOL   C16036832   8.069   2.595   4.131  0.7265  0.2315  0.1216
   97MOL   C16136833   0.051   2.468   4.143 -0.3511  0.2521 -0.0917
   97MOL   C16236834   0.004   2.117   4.153  0.3429  0.3570 -0.7167
   97MOL   H16336835   0.161   2.237   4.192 -0.4511 -0.1119 -1.1575
   97MOL   H16436836   7.911   2.316   4.350  1.3689 -0.3407 -1.0691
   97MOL   H16536837   7.797   2.536   4.324  0.6581  0.4698  0.4461
   97MOL   H16636838   7.797   2.761   4.235  0.7473  1.5107  3.0710
   97MOL   H16736839   7.958   2.828   4.248  0.1274  0.2955 -1.3250
   97MOL   H16836840   7.884   2.802   4.089 -0.8169  0.0865  0.4114
   97MOL   H16936841   0.039   2.671   4.072  0.4466 -0.2224 -0.7082
   97MOL   H17036842   0.143   2.445   4.092 -0.8667  1.4744 -1.6283
   97MOL   H17136843   7.988   2.091   4.199  1.9064  0.0386  2.5084
   97MOL   H17236844   0.059   2.025   4.171  2.0427  0.7377 -3.6401
   97MOL   C17336845   8.066   2.133   4.006  0.5165  0.7233  0.5731
   97MOL   C17436846   7.948   2.046   3.960 -1.2116 -0.4488  0.7800
   97MOL   C17536847   7.949   1.908   4.000 -0.5206 -0.1142  0.3960
   97MOL   C17636848   7.860   1.815   3.939 -0.7428  0.9987  0.3512
   97MOL   C17736849   7.768   1.862   3.842  1.3460 -0.8168 -0.1027
   97MOL   C17836850   7.676   1.778   3.766 -0.3807  0.0571  0.3994
   97MOL   C17936851   7.772   1.996   3.799  0.0664  0.3626 -0.5272
   97MOL   C18036852   7.856   2.094   3.863  0.1528  0.3310  0.0923
   97MOL   C18136853   0.128   2.121   3.937  0.4563 -0.3341 -0.2978
   97MOL   H18236854   8.027   2.235   3.997 -1.5742  0.0832  1.8883
   97MOL   H18336855   8.024   1.866   4.065  0.0997 -0.4174 -0.5092
   97MOL   H18436856   7.865   1.711   3.969 -2.7524 -0.0111 -2.5746
   97MOL   H18536857   7.575   1.784   3.808 -0.4522 -1.0417  0.4100
   97MOL   H18636858   7.679   1.800   3.659 -1.3650 -0.5388  0.2379
   97MOL   H18736859   7.698   1.671   3.761  0.2987  0.2624 -1.6114
   97MOL   H18836860   7.705   2.018   3.717 -2.0097 -0.1189  1.0160
   97MOL   H18936861   7.869   2.193   3.822 -0.3503  0.2608 -0.2404
   97MOL   H19036862   0.130   2.018   3.900  0.7861 -1.2273  2.1102
   97MOL   H19136863   0.213   2.128   4.005  0.0572 -1.9661  0.4066
   97MOL   C19236864   0.153   2.209   3.820  1.0664  0.4626 -0.0719
   97MOL   C19336865   0.041   2.222   3.717 -0.5707 -0.0863  0.3407
   97MOL   C19436866   0.013   2.112   3.631 -0.4345 -0.5660  0.3570
   97MOL   C19536867   7.993   2.122   3.528  0.8530 -0.9966 -0.3526
   97MOL   C19636868   7.936   2.250   3.503  1.2021  1.0422 -0.4494
   97MOL   C19736869   7.839   2.269   3.380  0.0948 -0.6002 -0.5004
   97MOL   C19836870   7.981   2.364   3.574 -0.1717 -0.6061  0.0697
   97MOL   C19936871   8.063   2.344   3.688 -0.5003  0.2763 -0.2310
   97MOL   C20036872   0.284   2.180   3.741  0.4781 -0.3519 -0.5982
   97MOL   H20136873   0.164   2.306   3.867  1.8366 -0.1595  1.0476
   97MOL   H20236874   0.073   2.022   3.632  2.0242  1.0364  0.6915
   97MOL   H20336875   7.969   2.043   3.459 -0.5069 -1.4012  0.5657
   97MOL   H20436876   7.785   2.176   3.361 -1.1194  0.0887 -0.5140
   97MOL   H20536877   7.765   2.345   3.406  1.3637  0.8367 -1.0861
   97MOL   H20636878   7.900   2.290   3.293 -0.9094  0.2317 -1.0142
   97MOL   H20736879   7.932   2.460   3.563 -0.3555 -0.4552  2.0118
   97MOL   H20836880   8.072   2.429   3.754 -0.0678  0.7822 -0.9340
   97MOL   H20936881   0.282   2.250   3.658  1.2643  0.1204 -0.2252
   97MOL   H21036882   0.278   2.077   3.705  0.7877 -0.8487  0.7487
   97MOL   C21136883   0.417   2.204   3.815  0.4813  0.2372 -0.4781
   97MOL   C21236884   0.436   2.355   3.828  0.4111 -0.4437 -0.7858
   97MOL   C21336885   0.388   2.426   3.938  0.2387  0.1947  0.1908
   97MOL   C21436886   0.397   2.566   3.945 -0.2524  0.5361 -0.1536
   97MOL   C21536887   0.456   2.642   3.842 -0.3619  0.4568 -0.9957
   97MOL   C21636888   0.466   2.789   3.856 -0.1990  0.2820  0.3067
   97MOL   C21736889   0.505   2.572   3.732  0.1104 -0.0848 -0.7887
   97MOL   C21836890   0.490   2.431   3.721 -0.0210  0.6175  0.3002
   97MOL   C21936891   0.538   2.133   3.747  0.0556  0.3451  1.0559
   97MOL   H22036892   0.404   2.175   3.919  1.0502 -1.1636 -0.7850
   97MOL   H22136893   0.351   2.378   4.028  2.5702 -0.7509  0.6771
   97MOL   H22236894   0.351   2.621   4.025  0.3730 -0.0054  0.5800
   97MOL   H22336895   0.520   2.839   3.775  0.1062 -0.0633  0.3004
   97MOL   H22436896   0.363   2.827   3.853 -0.0509  0.8212  1.8408
   97MOL   H22536897   0.505   2.814   3.954 -2.4117  2.5067  0.6899
   97MOL   H22636898   0.543   2.628   3.648 -2.0525 -0.8621 -2.3052
   97MOL   H22736899   0.524   2.385   3.629 -0.7639  1.8173 -0.5967
   97MOL   H22836900   0.628   2.145   3.808  0.4996  1.0778  0.2810
   97MOL   H22936901   0.566   2.174   3.650 -0.7289  0.5169  0.8996
   97MOL   C23036902   0.523   1.985   3.724  0.0062 -0.5277 -0.7914
   97MOL   C23136903   0.455   1.905   3.836 -0.0581 -0.4020 -0.2709
   97MOL   C23236904   0.482   1.918   3.976 -1.1521 -0.9377 -0.1593
   97MOL   C23336905   0.411   1.835   4.072  0.0113 -0.3693 -0.3461
   97MOL   C23436906   0.308   1.756   4.024 -0.0110  0.8170  0.3469
   97MOL   C23536907   0.233   1.656   4.122 -0.1898 -0.2626  0.6762
   97MOL   C23636908   0.279   1.750   3.886  0.0205 -0.7847 -0.3295
   97MOL   C23736909   0.355   1.822   3.794  0.2412 -0.0852 -0.3572
   97MOL   C23836910   0.650   1.905   3.666 -0.2245  0.1322  0.1699
   97MOL   H23936911   0.461   1.983   3.634 -0.0553 -1.9320 -0.7190
   97MOL   H24036912   0.549   1.992   4.017 -0.5232 -1.2473 -0.6129
   97MOL   H24136913   0.437   1.832   4.177  0.1923 -1.8769 -0.4184
   97MOL   H24236914   0.289   1.658   4.215  1.9339  3.5340 -0.5680
   97MOL   H24336915   0.129   1.677   4.147 -0.4610 -3.2428  2.2873
   97MOL   H24436916   0.250   1.552   4.092  1.3398 -0.2810  1.5571
   97MOL   H24536917   0.197   1.683   3.866 -1.2510  1.1834 -1.8992
   97MOL   H24636918   0.335   1.802   3.690 -1.9419  0.6127 -0.0945
   97MOL   H24736919   0.688   1.971   3.587 -0.5127  1.9408  1.5262
   97MOL   H24836920   0.612   1.813   3.621  0.0223  0.8908 -1.6321
   97MOL   C24936921   0.770   1.869   3.756 -0.1847 -1.1498  0.2214
   97MOL   C25036922   0.832   1.997   3.815 -0.0927 -0.4649  0.0526
   97MOL   C25136923   0.907   2.084   3.731  0.1679 -0.8717  0.1457
   97MOL   C25236924   0.969   2.201   3.788 -0.6346  0.6796  0.5832
   97MOL   C25336925   0.948   2.230   3.921  0.1365 -0.5488  0.4396
   97MOL   C25436926   1.010   2.363   3.975 -0.3945 -0.0356  0.1219
   97MOL   C25536927   0.888   2.138   4.007  0.0674  0.6712  0.0184
   97MOL   C25636928   0.830   2.019   3.956  0.1693 -0.1660  0.1581
   97MOL   C25736929   0.872   1.787   3.676  0.0985 -0.1712  0.6633
   97MOL   H25836930   0.728   1.823   3.845 -1.1147  1.1020  0.9870
   97MOL   H25936931   0.909   2.073   3.623  1.2755 -0.1432  0.0810
   97MOL   H26036932   1.020   2.271   3.723  0.9366 -0.0982  0.9582
   97MOL   H26136933   0.925   2.413   4.022  0.1473 -1.8501  3.1965
   97MOL   H26236934   1.088   2.350   4.051  1.2981 -0.5945 -1.6735
   97MOL   H26336935   1.057   2.416   3.892 -3.1161  0.0246 -1.4507
   97MOL   H26436936   0.899   2.164   4.111  0.6930  0.1609  0.0820
   97MOL   H26536937   0.783   1.959   4.032 -2.3327 -0.5002 -1.5688
   97MOL   H26636938   0.979   1.806   3.690  0.0418  0.3012  0.4235
   97MOL   H26736939   0.860   1.812   3.571 -0.9074 -2.5463  0.1744
   97MOL   C26836940   0.851   1.632   3.708 -0.2179 -0.2285 -0.1141
   97MOL   C26936941   0.958   1.555   3.632  0.0498  0.6717 -1.2140
   97MOL   C27036942   0.939   1.480   3.511  0.1827 -0.6323  0.1529
   97MOL   C27136943   1.050   1.422   3.441  0.3486 -0.2173  0.4053
   97MOL   C27236944   1.180   1.432   3.499  0.8685  0.0230  0.7841
   97MOL   C27336945   1.297   1.383   3.421 -0.1296  0.1602  0.2035
   97MOL   C27436946   1.197   1.495   3.624  0.6447 -0.2645  0.5959
   97MOL   C27536947   1.084   1.546   3.698  0.2305 -0.2263  0.3547
   97MOL   C27636948   0.707   1.572   3.684 -0.4506 -0.4934 -0.0452
   97MOL   H27736949   0.872   1.621   3.815  1.0732  1.0631 -0.2304
   97MOL   H27836950   0.853   1.482   3.446  0.3631  2.1217 -0.0716
   97MOL   H27936951   1.039   1.363   3.352  1.2569  0.4599 -0.1572
   97MOL   H28036952   1.394   1.416   3.458  0.2754  0.5297 -1.1490
   97MOL   H28136953   1.278   1.278   3.397  1.3919  0.2156 -1.3741
   97MOL   H28236954   1.272   1.417   3.320 -0.5249  0.4532  0.3976
   97MOL   H28336955   1.298   1.504   3.661  1.2451  0.8915 -1.2042
   97MOL   H28436956   1.102   1.602   3.789  0.8109 -0.9195  0.6674
   97MOL   H28536957   0.704   1.570   3.575  1.8494  1.0709 -0.1805
   97MOL   H28636958   0.630   1.634   3.727  0.1341 -0.2330  0.6344
   97MOL   C28736959   0.683   1.428   3.734 -0.1353 -0.3392  0.6824
   97MOL   C28836960   0.551   1.381   3.675 -0.5857  0.1913  0.3325
   97MOL   C28936961   0.542   1.284   3.576  0.4429 -0.4296 -0.0237
   97MOL   C29036962   0.423   1.254   3.508  0.5205 -0.0726 -0.4047
   97MOL   C29136963   0.303   1.313   3.554  0.0082  0.2073 -0.3572
   97MOL   C29236964   0.166   1.293   3.488 -0.0919 -0.0292 -0.6052
   97MOL   C29336965   0.306   1.406   3.661  0.3349 -0.0229  0.6563
   97MOL   C29436966   0.428   1.439   3.717 -0.0571  0.2387 -1.0146
   97MOL   C29536967   0.693   1.411   3.889 -0.2268  1.0256  0.6012
   97MOL   H29636968   0.761   1.362   3.695 -1.2745 -0.8899 -0.7170
   97MOL   H29736969   0.636   1.234   3.560  0.1902 -1.6681  2.2687
   97MOL   H29836970   0.405   1.176   3.436 -2.1030 -1.0432  1.2504
   97MOL   H29936971   0.171   1.341   3.390  0.7186 -1.7321 -1.4272
   97MOL   H30036972   0.137   1.194   3.451  3.6459 -0.9136 -1.3977
   97MOL   H30136973   0.079   1.338   3.535  0.3034  0.3523 -0.2332
   97MOL   H30236974   0.217   1.460   3.690  0.2546  2.0221 -3.1297
   97MOL   H30336975   0.413   1.506   3.800 -1.3738 -1.9291  0.5476
   97MOL   H30436976   0.639   1.489   3.943 -0.6771  1.5500 -0.6041
   97MOL   H30536977   0.797   1.434   3.914  0.9039 -1.1783 -1.8227
   97MOL   C30636978   0.660   1.267   3.945 -0.1987  0.1837  0.8637
   97MOL   C30736979   0.552   1.267   4.057 -1.1132  0.1367 -0.0798
   97MOL   C30836980   0.581   1.294   4.191 -0.9175 -0.0245 -0.3601
   97MOL   C30936981   0.487   1.301   4.290 -0.4982  0.0264  0.8713
   97MOL   C31036982   0.353   1.264   4.258 -0.1241  0.1398 -0.2136
   97MOL   C31136983   0.244   1.266   4.371  0.2363 -1.1240 -0.5078
   97MOL   C31236984   0.326   1.215   4.128  0.4097 -0.6210 -0.1012
   97MOL   C31336985   0.427   1.218   4.027  0.1879 -0.9785  0.4465
   97MOL   C31436986   0.796   1.204   3.995 -0.2243  0.2501  0.5406
   97MOL   H31536987   0.611   1.211   3.866 -0.8201  2.4606 -0.4368
   97MOL   H31636988   0.678   1.334   4.218  1.1251 -3.2147 -2.6871
   97MOL   H31736989   0.519   1.323   4.390  0.1415 -3.4167  1.4861
   97MOL   H31836990   0.152   1.299   4.322  0.8170  0.2662 -0.6949
   97MOL   H31936991   0.237   1.176   4.431 -1.1553 -0.0224  1.0510
   97MOL   H32036992   0.267   1.342   4.447  0.8555 -1.1708 -0.6463
   97MOL   H32136993   0.225   1.183   4.109 -0.4628  2.4199 -0.8624
   97MOL   H32236994   0.395   1.194   3.926  0.4874  0.2715  0.0447
   97MOL   H32336995   0.774   1.113   4.052 -1.3814  0.8557  1.0631
   97MOL   H32436996   0.833   1.272   4.071  0.6832 -0.5063  0.7847
   97MOL   C32536997   0.904   1.163   3.892 -0.0590 -0.5401 -0.1721
   97MOL   C32636998   0.858   1.090   3.771  0.3863 -0.0114  0.0745
   97MOL   C32736999   0.764   0.983   3.772  0.0686 -0.4687 -0.6572
   97MOL   C32837000   0.735   0.920   3.647  0.0992 -0.4876  0.7416
   97MOL   C32937001   0.783   0.974   3.525  0.5832  0.1768  0.4744
   97MOL   C33037002   0.720   0.922   3.401 -0.6449 -0.9995  0.1729
   97MOL   C33137003   0.869   1.087   3.520  0.4050 -0.1437 -0.7401
   97MOL   C33237004   0.905   1.141   3.645  0.7102  0.3879  0.0088
   97MOL   C33337005   1.020   1.082   3.956  0.3549 -0.0983 -0.1322
   97MOL   H33437006   0.951   1.253   3.853  0.5662 -0.8552 -0.1440
   97MOL   H33537007   0.713   0.934   3.854 -3.4763  1.2898 -1.7281
   97MOL   H33637008   0.678   0.830   3.634  1.6684 -1.4110  0.1358
   97MOL   H33737009   0.624   0.970   3.383 -1.2028 -2.5009 -0.9572
   97MOL   H33837010   0.791   0.929   3.319  1.3187  1.8581  2.0113
   97MOL   H33937011   0.692   0.818   3.413 -1.0019 -0.9148  0.0850
   97MOL   H34037012   0.884   1.146   3.431  0.7195  0.7749 -0.0839
   97MOL   H34137013   0.954   1.238   3.644  2.1668 -0.3327 -0.1785
   97MOL   H34237014   1.097   1.058   3.882  0.2871  0.0620 -0.2562
   97MOL   H34337015   0.981   0.981   3.960  1.7448 -0.6438 -0.0783
   97MOL   C34437016   1.075   1.127   4.090  1.0359 -0.0331 -0.1591
   97MOL   C34537017   1.139   1.267   4.092 -0.2276 -0.0538  0.1513
   97MOL   C34637018   1.093   1.356   4.194  0.4568 -0.2062 -0.6905
   97MOL   C34737019   1.155   1.484   4.193  0.8620 -0.1350  0.3104
   97MOL   C34837020   1.255   1.519   4.097 -0.2188 -0.1639  0.4437
   97MOL   C34937021   1.321   1.655   4.118  0.0960  0.2280  0.2483
   97MOL   C35037022   1.297   1.430   3.995  0.5931  1.0382  0.3021
   97MOL   C35137023   1.234   1.307   3.992 -0.0550 -0.3613 -0.4886
   97MOL   C35237024   1.163   1.021   4.144  0.1891  0.0264  0.4823
   97MOL   H35337025   0.993   1.137   4.160  0.8954 -0.6042 -0.2392
   97MOL   H35437026   1.024   1.329   4.273 -0.5837 -3.7496 -2.7008
   97MOL   H35537027   1.116   1.559   4.261 -1.2378 -1.2424  0.3519
   97MOL   H35637028   1.422   1.644   4.158 -0.3605 -1.2123  1.0378
   97MOL   H35737029   1.325   1.703   4.020  2.1573  1.6855  1.0233
   97MOL   H35837030   1.263   1.729   4.174  0.2520  1.8584 -1.6941
   97MOL   H35937031   1.377   1.457   3.927 -0.4339 -0.9044 -1.7554
   97MOL   H36037032   1.255   1.244   3.907 -0.5249 -0.9262 -0.1959
   97MOL   H36137033   1.212   1.078   4.223 -0.4576 -0.8769  1.5544
   97MOL   H36237034   1.238   0.986   4.074 -1.3304  3.1160 -2.8206
   97MOL   C36337035   1.090   0.900   4.216 -0.1165 -0.8099  0.0593
   97MOL   C36437036   0.974   0.934   4.303 -0.1605  0.0060 -0.4345
   97MOL   C36537037   0.997   1.033   4.402 -0.7496 -0.3800 -0.6103
   97MOL   C36637038   0.888   1.087   4.466 -0.4456 -1.3415  0.0628
   97MOL   C36737039   0.757   1.045   4.434 -0.3163 -0.5378 -0.2303
   97MOL   C36837040   0.637   1.100   4.519  0.1052 -0.0691  0.6188
   97MOL   C36937041   0.737   0.940   4.343 -0.1327 -0.2211 -0.3814
   97MOL   C37037042   0.847   0.889   4.270  0.0574 -0.1044  0.5768
   97MOL   C37137043   1.190   0.818   4.295  0.4085 -0.5089  0.4678
   97MOL   H37237044   1.053   0.839   4.133  0.8091 -0.6586 -0.4789
   97MOL   H37337045   1.097   1.072   4.412 -1.3047  1.0197 -0.4004
   97MOL   H37437046   0.906   1.171   4.531  0.0160 -0.8894 -0.6436
   97MOL   H37537047   0.653   1.051   4.615  1.0771  3.5579  2.3799
   97MOL   H37637048   0.645   1.204   4.552  0.3442 -0.3641  1.5002
   97MOL   H37737049   0.534   1.080   4.489  0.4461 -1.9469  0.6690
   97MOL   H37837050   0.636   0.902   4.334 -0.7198  1.6311 -2.0966
   97MOL   H37937051   0.831   0.820   4.188  1.5567 -0.5336  0.6133
   97MOL   H38037052   1.152   0.719   4.323 -1.5508  0.0656 -0.0473
   97MOL   H38137053   1.219   0.861   4.390  1.0663 -0.3930  0.2160
   97MOL   H38237054   1.276   0.796   4.232 -1.1331 -1.5189 -1.3665
   98MOL     C137055   2.777   5.460   2.156 -0.3255  0.0950 -0.1630
   98MOL     C237056   2.691   5.568   2.093 -0.4373  0.2545  1.0259
   98MOL     C337057   2.576   5.523   2.022  0.1368 -0.2973  0.5051
   98MOL     C437058   2.486   5.614   1.968 -0.0147 -0.3251 -0.7664
   98MOL     C537059   2.514   5.756   1.988  0.3658  0.2158  0.2543
   98MOL     C637060   2.414   5.857   1.920 -0.2469  0.0193 -0.5292
   98MOL     C737061   2.628   5.799   2.059  0.0221 -1.3906  0.2822
   98MOL     C837062   2.711   5.706   2.118 -0.1203  0.4650  0.1256
   98MOL     C937063   2.929   5.470   2.144 -0.0505  0.9845  0.2638
   98MOL    H1037064   2.747   5.457   2.260  2.0722 -0.0485  0.5595
   98MOL    H1137065   2.547   5.421   2.001  0.8015 -0.4031  0.0865
   98MOL    H1237066   2.409   5.582   1.901  0.1757 -1.0727 -0.6304
   98MOL    H1337067   2.459   5.888   1.825 -1.1879 -0.0479 -1.0016
   98MOL    H1437068   2.319   5.808   1.900 -0.0580  1.0542 -4.4698
   98MOL    H1537069   2.386   5.946   1.975 -1.1294 -0.2305 -0.5778
   98MOL    H1637070   2.660   5.901   2.075 -0.2391 -1.0559 -1.2101
   98MOL    H1737071   2.794   5.730   2.182  0.0434  1.6614 -0.5203
   98MOL    H1837072   2.988   5.384   2.178 -1.5881 -0.0463  0.3609
   98MOL    H1937073   2.977   5.546   2.205  1.3577 -0.0406  0.4613
   98MOL    H2037074   2.746   5.367   2.109 -0.9080  0.8485 -1.3055
   98MOL    C2137075   2.974   5.486   1.998  0.2461 -0.5883 -0.0354
   98MOL    C2237076   2.985   5.362   1.914 -0.7385 -0.1722  0.4788
   98MOL    C2337077   2.907   5.350   1.798 -0.5960 -0.0964  0.8565
   98MOL    C2437078   2.929   5.236   1.719  0.2920  0.2353  0.1583
   98MOL    C2537079   3.018   5.130   1.758  0.1995  0.2268 -0.7340
   98MOL    C2637080   3.011   4.997   1.687  0.0382 -0.4267  0.0215
   98MOL    C2737081   3.094   5.146   1.873  0.0333 -0.1977 -0.1183
   98MOL    C2837082   3.081   5.263   1.950  0.2923  0.4090 -0.3468
   98MOL    C2937083   3.111   5.567   1.986 -0.1804 -0.2834  0.3092
   98MOL    H3037084   2.890   5.544   1.960 -0.4106 -2.0521 -0.8826
   98MOL    H3137085   2.848   5.431   1.756  1.2245  0.7025 -0.2238
   98MOL    H3237086   2.862   5.216   1.636  1.4286  0.4830 -0.8371
   98MOL    H3337087   2.910   4.957   1.685 -0.6082  1.0017  2.5377
   98MOL    H3437088   3.040   4.998   1.582 -1.6879  0.5405 -0.4617
   98MOL    H3537089   3.077   4.931   1.745  1.7340  0.3416 -0.9849
   98MOL    H3637090   3.160   5.065   1.902  0.9196  0.7993  0.7142
   98MOL    H3737091   3.145   5.271   2.037  0.5697 -1.2331 -0.3914
   98MOL    H3837092   3.179   5.525   1.913 -1.1839  0.9971 -1.4186
   98MOL    H3937093   3.161   5.571   2.083  0.8944 -1.8901 -0.1707
   98MOL    C4037094   3.079   5.712   1.945 -0.5238  0.3238  0.0127
   98MOL    C4137095   2.998   5.716   1.812 -0.5493  0.1162  0.2214
   98MOL    C4237096   3.066   5.672   1.701 -0.3329  0.3735  0.2567
   98MOL    C4337097   3.012   5.688   1.573 -0.0032 -0.3127 -0.0920
   98MOL    C4437098   2.876   5.725   1.557  0.2473 -0.4394  0.2205
   98MOL    C4537099   2.805   5.729   1.420  0.0856  0.2848 -0.6470
   98MOL    C4637100   2.806   5.765   1.673  0.3522 -0.5910 -0.1840
   98MOL    C4737101   2.865   5.764   1.797  0.5110 -0.9468  0.3531
   98MOL    C4837102   3.207   5.804   1.954  0.6674 -0.2249 -0.1844
   98MOL    H4937103   3.014   5.748   2.024 -0.9355 -2.1090  0.8289
   98MOL    H5037104   3.160   5.620   1.707  0.5692  1.8887 -0.2824
   98MOL    H5137105   3.072   5.666   1.485  0.0767 -0.4388 -0.0063
   98MOL    H5237106   2.770   5.627   1.400  0.9603 -0.3511  0.9907
   98MOL    H5337107   2.715   5.789   1.411 -0.8798 -0.9296  0.6854
   98MOL    H5437108   2.870   5.769   1.343  0.1802  3.6058  1.0995
   98MOL    H5537109   2.702   5.790   1.680  0.5470  0.5144 -1.1645
   98MOL    H5637110   2.821   5.809   1.885  1.8025  1.2021 -0.0756
   98MOL    H5737111   3.301   5.773   1.909  0.2989  0.0213 -1.1400
   98MOL    H5837112   3.248   5.803   2.055  1.0749  0.7498 -0.3297
   98MOL    C5937113   3.180   5.945   1.899 -0.3536  0.4236 -0.1162
   98MOL    C6037114   3.264   5.975   1.773  0.1988 -0.4370 -0.6340
   98MOL    C6137115   3.405   5.959   1.778  0.2396 -0.5956  0.1303
   98MOL    C6237116   3.485   5.992   1.664 -0.0015 -0.1219 -0.4453
   98MOL    C6337117   3.420   6.042   1.549 -0.4987 -0.3758  0.1606
   98MOL    C6437118   3.509   6.098   1.435  0.2154  0.8913  0.1257
   98MOL    C6537119   3.273   6.054   1.539 -0.6849  0.0294 -0.0619
   98MOL    C6637120   3.203   6.016   1.653 -0.1793  0.6094  0.2130
   98MOL    C6737121   3.211   6.058   2.000  0.0481 -0.5136 -0.3839
   98MOL    H6837122   3.074   5.957   1.874  0.3764 -2.0813 -4.9449
   98MOL    H6937123   3.462   5.919   1.860  2.9285  3.3502  0.3024
   98MOL    H7037124   3.592   5.982   1.678  0.2907  3.0492 -0.0761
   98MOL    H7137125   3.567   6.019   1.388 -2.3706 -0.0943 -1.5071
   98MOL    H7237126   3.457   6.149   1.354  0.1214  0.2885 -0.1918
   98MOL    H7337127   3.590   6.160   1.474 -0.5586  2.3829 -0.6085
   98MOL    H7437128   3.219   6.101   1.458  1.2513  0.9713 -0.8447
   98MOL    H7537129   3.096   6.024   1.654 -0.2907 -0.5972 -0.4642
   98MOL    H7637130   3.218   6.154   1.949 -1.0574 -0.3620 -0.2590
   98MOL    H7737131   3.315   6.058   2.033 -0.9896  0.6284  3.2125
   98MOL    C7837132   3.121   6.063   2.129  0.2164 -0.0873  0.6373
   98MOL    C7937133   3.010   6.155   2.106  0.2098  1.3041  0.0860
   98MOL    C8037134   2.874   6.105   2.101 -0.3145 -0.1785  0.2932
   98MOL    C8137135   2.768   6.198   2.090  0.6114  0.5290  0.3037
   98MOL    C8237136   2.801   6.338   2.091 -0.1947  0.4314  0.1580
   98MOL    C8337137   2.690   6.438   2.087  0.5184 -0.5328  0.4803
   98MOL    C8437138   2.935   6.385   2.099  0.2403  0.3698 -0.1859
   98MOL    C8537139   3.040   6.291   2.097  0.0636 -0.5503  0.0128
   98MOL    C8637140   3.194   6.105   2.254 -0.5019  0.0151 -0.5099
   98MOL    H8737141   3.064   5.970   2.130  0.2435 -0.1784 -2.0340
   98MOL    H8837142   2.866   5.997   2.096  0.8485 -0.2396 -0.5669
   98MOL    H8937143   2.668   6.156   2.088  1.7661 -2.3464  0.0615
   98MOL    H9037144   2.597   6.405   2.040  1.0135  0.4264 -1.2057
   98MOL    H9137145   2.664   6.463   2.190  1.9923  0.6902  0.5641
   98MOL    H9237146   2.715   6.533   2.041 -0.0959 -1.4627 -1.8296
   98MOL    H9337147   2.954   6.491   2.091  0.6629  0.1898 -1.7494
   98MOL    H9437148   3.141   6.330   2.098  1.7018 -4.5468  1.6443
   98MOL    H9537149   3.130   6.154   2.328 -0.3023  1.6176 -1.3695
   98MOL    H9637150   3.273   6.177   2.232 -1.5445  1.4240  0.2698
   98MOL    C9737151   3.263   5.986   2.318 -0.7792 -0.3287 -0.0634
   98MOL    C9837152   3.181   5.865   2.363  0.5878  0.8895 -0.8264
   98MOL    C9937153   3.220   5.730   2.336  0.1815  0.6218 -0.4847
   98MOL   C10037154   3.142   5.621   2.387 -0.1037  0.6857  0.0302
   98MOL   C10137155   3.024   5.647   2.458  0.2197 -0.8040  0.0525
   98MOL   C10237156   2.937   5.523   2.494  0.1927 -1.3153  0.3648
   98MOL   C10337157   2.985   5.779   2.486  0.2708 -0.5889  0.0844
   98MOL   C10437158   3.065   5.888   2.441  0.6490  0.2993  0.2050
   98MOL   C10537159   3.349   6.042   2.432 -0.2338 -0.1045  0.1670
   98MOL   H10637160   3.330   5.949   2.241 -1.0096  2.7196 -1.8153
   98MOL   H10737161   3.312   5.708   2.284 -0.5555 -1.2028 -1.0527
   98MOL   H10837162   3.175   5.519   2.377 -3.0536 -0.5349  1.9461
   98MOL   H10937163   2.959   5.511   2.600  1.7267  1.0311  0.3494
   98MOL   H11037164   2.836   5.558   2.472  1.4774  2.3287 -0.1127
   98MOL   H11137165   2.965   5.425   2.455  2.7697 -0.1377 -0.9230
   98MOL   H11237166   2.893   5.802   2.538  0.3665 -0.0427  0.0110
   98MOL   H11337167   3.040   5.989   2.467 -1.9198 -0.4084  0.6647
   98MOL   H11437168   3.384   5.978   2.513  0.6919  1.7428  1.2465
   98MOL   H11537169   3.286   6.106   2.495 -0.8948 -0.2655 -0.3202
   98MOL   C11637170   3.475   6.129   2.403 -1.0140  0.1930 -0.1784
   98MOL   C11737171   3.552   6.068   2.290 -0.1952  0.1306 -0.0503
   98MOL   C11837172   3.597   6.148   2.182  0.2070 -1.1132 -0.0390
   98MOL   C11937173   3.690   6.101   2.095 -0.2865  0.5103  0.9209
   98MOL   C12037174   3.743   5.967   2.107  0.0314 -0.5806  0.4045
   98MOL   C12137175   3.844   5.925   2.001 -0.4166  0.7045  0.0059
   98MOL   C12237176   3.690   5.880   2.211  0.5718 -0.0464  0.2570
   98MOL   C12337177   3.599   5.933   2.302  0.7258  0.3960  0.7475
   98MOL   C12437178   3.560   6.163   2.523 -0.4074 -0.0022 -0.1547
   98MOL   H12537179   3.432   6.219   2.359 -1.2056 -0.6512 -1.7611
   98MOL   H12637180   3.563   6.250   2.170  0.0149 -1.0756  0.7954
   98MOL   H12737181   3.719   6.163   2.012  0.2847  0.2224  0.9027
   98MOL   H12837182   3.866   5.819   2.015 -0.8041  0.1277 -3.4113
   98MOL   H12937183   3.787   5.929   1.908 -0.0721  2.6616 -0.1386
   98MOL   H13037184   3.927   5.994   1.989 -1.6627  1.9332 -1.9231
   98MOL   H13137185   3.726   5.779   2.222  0.7512 -0.2452 -2.0331
   98MOL   H13237186   3.576   5.869   2.387  2.1551 -1.1923 -0.0331
   98MOL   H13337187   3.607   6.074   2.565 -0.6917  1.1498  2.7198
   98MOL   H13437188   3.495   6.192   2.606  2.0941  1.2746  1.4334
   98MOL   C13537189   3.673   6.271   2.512  0.6489  0.0373  0.3545
   98MOL   C13637190   3.764   6.255   2.637 -0.4096 -0.9417  0.7875
   98MOL   C13737191   3.896   6.203   2.632  0.0687 -0.0896  0.5118
   98MOL   C13837192   3.976   6.192   2.749  0.2642  0.0467 -0.0710
   98MOL   C13937193   3.925   6.228   2.874 -0.7139 -0.6716 -0.4354
   98MOL   C14037194   4.008   6.200   3.003  0.1347  0.0177  0.7317
   98MOL   C14137195   3.794   6.285   2.877 -0.1937  0.0216 -0.1273
   98MOL   C14237196   3.716   6.307   2.766 -0.2021  0.6636  0.7927
   98MOL   C14337197   3.625   6.415   2.484 -0.1376 -0.5153  0.1025
   98MOL   H14437198   3.735   6.247   2.426  0.2777  1.1769 -0.2363
   98MOL   H14537199   3.937   6.162   2.540  1.3246  0.2555  0.9145
   98MOL   H14637200   4.079   6.159   2.745 -0.0468 -1.1852  1.7112
   98MOL   H14737201   4.103   6.253   2.999 -0.0146  0.2527  0.1959
   98MOL   H14837202   3.959   6.247   3.088 -0.6585  0.8581 -0.1619
   98MOL   H14937203   4.020   6.092   3.005 -0.0827 -0.0418 -0.3326
   98MOL   H15037204   3.759   6.322   2.973 -2.1384 -2.5447  0.2099
   98MOL   H15137205   3.617   6.349   2.763 -0.3515  0.2181 -1.2798
   98MOL   H15237206   3.543   6.426   2.555  0.4371 -1.8161  0.9934
   98MOL   H15337207   3.584   6.437   2.386 -0.5915  2.7152  0.9559
   98MOL   C15437208   3.742   6.519   2.503 -0.4022 -0.5295 -0.1773
   98MOL   C15537209   3.701   6.632   2.597  0.0082 -0.3578 -0.2640
   98MOL   C15637210   3.602   6.725   2.563  0.4948  0.0996  0.0147
   98MOL   C15737211   3.538   6.814   2.652  1.2952  0.7104  0.4155
   98MOL   C15837212   3.592   6.818   2.780  0.4461 -0.7548  0.1805
   98MOL   C15937213   3.531   6.918   2.879 -0.5913 -0.3220  0.1367
   98MOL   C16037214   3.699   6.737   2.814  0.1041  0.7597  0.6228
   98MOL   C16137215   3.748   6.634   2.727 -0.7143 -0.2473  0.3500
   98MOL   C16237216   3.788   6.586   2.367  0.4459 -0.5139 -0.6571
   98MOL   H16337217   3.830   6.472   2.545  1.0783  1.3349 -1.0912
   98MOL   H16437218   3.573   6.731   2.459 -2.2810 -0.7136  0.6951
   98MOL   H16537219   3.464   6.883   2.613  2.7916  1.5199 -1.0394
   98MOL   H16637220   3.564   6.894   2.980 -2.8132  0.0057  0.9713
   98MOL   H16737221   3.568   7.018   2.857 -0.0434 -0.0137  2.3839
   98MOL   H16837222   3.423   6.932   2.885 -0.7502 -1.1733 -0.6098
   98MOL   H16937223   3.744   6.730   2.911  0.3533 -0.8771  0.4106
   98MOL   H17037224   3.823   6.567   2.767 -1.8862 -2.3973 -0.9285
   98MOL   H17137225   3.851   6.672   2.387  1.5695 -1.8697  1.8912
   98MOL   H17237226   3.701   6.627   2.315 -0.1189  0.8793  1.3330
   98MOL   C17337227   3.874   6.501   2.270  0.3875  0.4063  0.1339
   98MOL   C17437228   3.999   6.437   2.327  0.0016  0.3658 -0.1940
   98MOL   C17537229   4.093   6.519   2.402 -0.4058 -0.2292  0.5789
   98MOL   C17637230   4.201   6.451   2.462 -0.1365  0.0048  0.1836
   98MOL   C17737231   4.215   6.313   2.442 -0.7486  0.1797 -0.2518
   98MOL   C17837232   4.332   6.250   2.517 -0.3904 -0.3911 -0.4928
   98MOL   C17937233   4.131   6.236   2.364  0.3961  0.7193  0.2212
   98MOL   C18037234   4.023   6.298   2.306  0.1238 -0.8597 -0.1041
   98MOL   C18137235   3.881   6.575   2.135  0.3431  0.2931 -0.2884
   98MOL   H18237236   3.817   6.410   2.255 -0.2884  0.5761  1.5860
   98MOL   H18337237   4.080   6.625   2.413  2.6414  0.3668 -0.8823
   98MOL   H18437238   4.269   6.516   2.517  1.7414 -0.3163 -1.7025
   98MOL   H18537239   4.307   6.149   2.550  1.2195 -1.1959 -1.6366
   98MOL   H18637240   4.428   6.240   2.465 -1.2533 -0.7046 -2.0655
   98MOL   H18737241   4.355   6.310   2.604  1.0138 -2.0603  0.3306
   98MOL   H18837242   4.162   6.133   2.353  0.9936  0.8680  0.4705
   98MOL   H18937243   3.955   6.234   2.252  0.1812  0.8449 -2.3041
   98MOL   H19037244   3.926   6.672   2.157 -0.2742  0.3718  0.6540
   98MOL   H19137245   3.785   6.602   2.091  0.3915  2.6662  0.9767
   98MOL   C19237246   3.970   6.513   2.022 -0.1542  0.3737  0.0645
   98MOL   C19337247   3.996   6.622   1.918  1.1856  0.9050 -0.3942
   98MOL   C19437248   4.129   6.643   1.876  0.6902  0.4529 -0.6920
   98MOL   C19537249   4.153   6.729   1.766  0.2756 -0.2377 -0.3433
   98MOL   C19637250   4.047   6.793   1.703  0.0596  1.1898  0.8456
   98MOL   C19737251   4.065   6.873   1.571 -0.9424  0.3503 -0.3642
   98MOL   C19837252   3.915   6.788   1.756  0.1519 -0.9666  0.0848
   98MOL   C19937253   3.891   6.702   1.861 -0.5191  0.5502  0.6580
   98MOL   C20037254   3.913   6.381   1.966 -0.0738 -0.0943 -0.4688
   98MOL   H20137255   4.067   6.502   2.070 -0.8765  1.7695  1.8822
   98MOL   H20237256   4.213   6.591   1.919  1.5419  2.2211 -0.1885
   98MOL   H20337257   4.251   6.723   1.721  0.8534  1.0757  0.6881
   98MOL   H20437258   3.968   6.905   1.534 -0.5111 -0.7584 -2.5570
   98MOL   H20537259   4.128   6.961   1.581  1.2423 -1.2441  0.2898
   98MOL   H20637260   4.097   6.802   1.495  2.0291 -2.2972  3.1788
   98MOL   H20737261   3.826   6.838   1.721 -0.3220 -0.9196  1.3320
   98MOL   H20837262   3.789   6.686   1.891 -0.9549  0.6046 -0.7718
   98MOL   H20937263   3.817   6.354   2.009 -0.9975  2.7146 -0.6686
   98MOL   H21037264   3.975   6.306   2.016 -1.9195 -1.4080 -0.1084
   98MOL   C21137265   3.907   6.370   1.809 -0.6620 -0.3474  1.0465
   98MOL   C21237266   3.777   6.411   1.740  0.0761  0.4880 -0.5978
   98MOL   C21337267   3.782   6.506   1.640  0.3274 -0.0525  0.7772
   98MOL   C21437268   3.677   6.532   1.555  0.6411 -0.0829  0.6870
   98MOL   C21537269   3.559   6.464   1.584  0.1707 -0.6870  0.4044
   98MOL   C21637270   3.438   6.510   1.498 -0.1264 -0.6001  0.1420
   98MOL   C21737271   3.550   6.365   1.680  0.2690  0.0127  0.0093
   98MOL   C21837272   3.660   6.339   1.760 -0.5709 -0.0152 -0.0553
   98MOL   C21937273   3.949   6.222   1.763  0.3402 -0.6751 -0.0348
   98MOL   H22037274   3.991   6.425   1.766 -3.3202  2.0981 -1.2034
   98MOL   H22137275   3.874   6.561   1.632  0.4992 -0.3645  0.5878
   98MOL   H22237276   3.686   6.605   1.476 -2.9806 -0.0430  0.2376
   98MOL   H22337277   3.399   6.423   1.446  0.4037 -1.0111  0.4292
   98MOL   H22437278   3.353   6.535   1.561  0.0585 -0.6839  0.4262
   98MOL   H22537279   3.451   6.597   1.433  0.1069 -1.3638 -0.8479
   98MOL   H22637280   3.456   6.316   1.698 -1.1351  2.4645 -0.5265
   98MOL   H22737281   3.648   6.261   1.834  0.1751 -1.1558 -1.1232
   98MOL   H22837282   3.890   6.144   1.811 -0.7223 -1.5495 -2.6987
   98MOL   H22937283   4.051   6.212   1.803  0.4105  0.9035  0.2236
   98MOL   C23037284   3.950   6.206   1.606  0.3501  0.4146  0.2368
   98MOL   C23137285   3.966   6.055   1.578 -0.0464  0.3753  0.6296
   98MOL   C23237286   3.846   5.983   1.556 -0.0909  0.3160  0.0162
   98MOL   C23337287   3.853   5.843   1.545  0.5492  0.3049 -0.0013
   98MOL   C23437288   3.969   5.778   1.587  0.0765 -0.2387  0.2540
   98MOL   C23537289   3.983   5.630   1.577  0.6069 -0.1850  0.0440
   98MOL   C23637290   4.090   5.848   1.610  0.7507  0.0417  0.5342
   98MOL   C23737291   4.088   5.990   1.616  0.4007 -0.3097 -0.0794
   98MOL   C23837292   4.054   6.299   1.536  0.0101 -0.8353 -0.5332
   98MOL   H23937293   3.849   6.235   1.575 -0.1783  1.9662  3.2022
   98MOL   H24037294   3.751   6.034   1.553 -0.8883 -1.2065 -2.0540
   98MOL   H24137295   3.768   5.783   1.515  0.6824  0.0142  0.1971
   98MOL   H24237296   3.982   5.590   1.678 -2.8084  0.4326  0.2898
   98MOL   H24337297   3.909   5.584   1.512  1.7714  2.3672 -3.2312
   98MOL   H24437298   4.077   5.609   1.525  0.8024 -0.6879  0.5967
   98MOL   H24537299   4.186   5.800   1.622  1.0817  0.4566 -0.4262
   98MOL   H24637300   4.179   6.039   1.647  0.4538 -1.1098  1.0736
   98MOL   H24737301   4.143   6.275   1.594 -2.5590 -2.5228  2.9589
   98MOL   H24837302   4.023   6.402   1.554  3.8220  0.0842  1.1265
   98MOL   C24937303   4.082   6.273   1.386 -0.3703  0.9224  0.5320
   98MOL   C25037304   4.181   6.379   1.339 -0.6704  0.1180 -0.6957
   98MOL   C25137305   4.183   6.511   1.386 -0.0127 -0.2185 -0.1898
   98MOL   C25237306   4.279   6.603   1.334  0.5329  0.1513  0.0494
   98MOL   C25337307   4.390   6.562   1.261 -0.1302 -0.7045  0.5764
   98MOL   C25437308   4.505   6.657   1.212 -0.8455  0.0207 -0.3917
   98MOL   C25537309   4.392   6.431   1.209  0.5998  0.0819 -0.1690
   98MOL   C25637310   4.292   6.339   1.258 -0.1798  0.6200  0.1968
   98MOL   C25737311   3.942   6.269   1.310 -0.2894 -0.1868 -0.0695
   98MOL   H25837312   4.132   6.177   1.382  2.5706  2.3283  2.0412
   98MOL   H25937313   4.097   6.548   1.441 -1.1062 -1.2192 -1.2155
   98MOL   H26037314   4.275   6.703   1.373  2.0648 -1.3520  4.3750
   98MOL   H26137315   4.471   6.761   1.212  1.2507  0.7350  1.4691
   98MOL   H26237316   4.577   6.642   1.293  0.5031 -0.3750 -1.6615
   98MOL   H26337317   4.554   6.633   1.118  1.1811  0.8909  0.4121
   98MOL   H26437318   4.476   6.392   1.154 -1.7758 -1.6198 -2.7142
   98MOL   H26537319   4.309   6.235   1.236  0.1348  0.9524 -1.1861
   98MOL   H26637320   3.862   6.310   1.371 -2.3667 -1.2763 -2.0035
   98MOL   H26737321   3.903   6.167   1.308 -0.7087 -0.0242 -0.2158
   98MOL   C26837322   3.928   6.338   1.178  0.2944 -0.7007  0.0473
   98MOL   C26937323   3.785   6.340   1.147  0.7392  0.2702  0.1419
   98MOL   C27037324   3.703   6.225   1.118  0.3326  0.1305 -0.2955
   98MOL   C27137325   3.562   6.234   1.105  0.4671  0.3202 -0.0022
   98MOL   C27237326   3.500   6.358   1.102 -0.3264 -0.7088 -0.4871
   98MOL   C27337327   3.347   6.366   1.087 -0.8579 -0.1298  0.6952
   98MOL   C27437328   3.580   6.480   1.117  0.1758  0.7147  0.4946
   98MOL   C27537329   3.720   6.469   1.136  0.0185  0.2215 -0.3068
   98MOL   C27637330   4.003   6.276   1.054  0.1441 -0.0236 -0.1205
   98MOL   H27737331   3.948   6.444   1.195 -1.5370 -0.7043  2.5061
   98MOL   H27837332   3.742   6.124   1.123 -1.8872 -0.6714  1.7066
   98MOL   H27937333   3.506   6.144   1.082  1.1976 -0.3229  0.6863
   98MOL   H28037334   3.309   6.461   1.126 -0.2099  1.0372 -1.4123
   98MOL   H28137335   3.335   6.359   0.979  0.5804  0.4396  0.4786
   98MOL   H28237336   3.294   6.285   1.135 -0.7344 -2.5449 -3.0817
   98MOL   H28337337   3.532   6.574   1.095 -1.4034 -0.5295 -1.5646
   98MOL   H28437338   3.770   6.564   1.152  0.4384 -0.3199  1.8874
   98MOL   H28537339   3.968   6.174   1.040 -1.2429  0.2340  1.3151
   98MOL   H28637340   4.111   6.275   1.072 -0.1066  0.5037  1.5045
   98MOL   C28737341   3.984   6.343   0.916 -0.0381  0.5699  0.2621
   98MOL   C28837342   4.043   6.259   0.793  0.8795 -0.7986 -0.7904
   98MOL   C28937343   4.183   6.249   0.778 -0.0369 -0.2394 -0.0163
   98MOL   C29037344   4.238   6.183   0.665  0.5920 -0.5450 -0.0788
   98MOL   C29137345   4.154   6.124   0.564 -0.3793 -0.5040 -0.8742
   98MOL   C29237346   4.220   6.055   0.451  0.0935 -0.1079  0.5830
   98MOL   C29337347   4.018   6.140   0.578  0.2467  0.2802 -0.2639
   98MOL   C29437348   3.962   6.195   0.699  0.1994 -0.4996  0.7417
   98MOL   C29537349   4.036   6.485   0.917 -0.7194  0.2602  0.1987
   98MOL   H29637350   3.878   6.357   0.895  0.1336  1.3395 -0.1343
   98MOL   H29737351   4.257   6.284   0.848  1.3539 -3.6034  0.2628
   98MOL   H29837352   4.346   6.186   0.665  0.5709  1.0961  1.6066
   98MOL   H29937353   4.143   6.000   0.398 -0.8172 -0.1841  1.9583
   98MOL   H30037354   4.285   6.117   0.389 -0.3139 -1.8531 -1.6443
   98MOL   H30137355   4.301   5.987   0.478 -0.8594 -1.2958  0.4957
   98MOL   H30237356   3.946   6.099   0.508 -0.1107 -0.7368  0.6783
   98MOL   H30337357   3.855   6.210   0.707 -0.1663 -1.4356 -1.8723
   98MOL   H30437358   4.132   6.491   0.969 -0.9964  2.0722  0.5270
   98MOL   H30537359   3.969   6.544   0.981  0.2967  1.8772 -0.1966
   98MOL   C30637360   4.056   6.549   0.779  0.7971 -0.1142 -0.0789
   98MOL   C30737361   4.203   6.574   0.738 -0.3714 -0.0126 -0.1146
   98MOL   C30837362   4.257   6.513   0.621 -0.8249 -0.1371  0.0570
   98MOL   C30937363   4.391   6.540   0.582 -0.0375 -0.6762  0.6144
   98MOL   C31037364   4.478   6.603   0.677  0.4853  0.1183  0.7957
   98MOL   C31137365   4.624   6.632   0.645 -0.2296 -0.3768 -0.0447
   98MOL   C31237366   4.428   6.652   0.799 -0.3684  0.2437  0.0010
   98MOL   C31337367   4.290   6.637   0.831  0.5733 -0.0909  0.7248
   98MOL   C31437368   3.980   6.689   0.771  0.0310  0.1114 -0.1983
   98MOL   H31537369   4.006   6.491   0.701 -1.1232  1.1481  0.1954
   98MOL   H31637370   4.194   6.461   0.551  0.8629 -0.8119 -0.9759
   98MOL   H31737371   4.434   6.508   0.489 -0.4193  2.0836 -0.5298
   98MOL   H31837372   4.672   6.711   0.702  3.1058 -0.2512 -2.8770
   98MOL   H31937373   4.682   6.541   0.657 -1.8871 -1.0440  3.4602
   98MOL   H32037374   4.619   6.670   0.543 -0.0455  1.0833  0.4772
   98MOL   H32137375   4.496   6.694   0.871 -0.2870  2.1273 -1.1267
   98MOL   H32237376   4.242   6.678   0.918  1.3011  0.0329  1.0757
   98MOL   H32337377   4.005   6.741   0.679  0.2485  1.5067  0.6325
   98MOL   H32437378   4.041   6.748   0.839 -1.7642 -0.7700  2.2485
   98MOL   C32537379   3.826   6.682   0.789 -0.1447 -0.2646  0.0097
   98MOL   C32637380   3.755   6.574   0.703  0.4942  0.4563 -0.0557
   98MOL   C32737381   3.765   6.572   0.563 -0.1316  0.5959  0.3201
   98MOL   C32837382   3.700   6.472   0.483  1.0700 -0.6013 -0.5817
   98MOL   C32937383   3.628   6.369   0.548  0.3431 -0.3982  0.1814
   98MOL   C33037384   3.554   6.266   0.465 -0.5873  0.0050  0.1443
   98MOL   C33137385   3.625   6.373   0.692  0.0110  0.5747  0.1677
   98MOL   C33237386   3.687   6.469   0.766 -0.0501 -0.2330  0.2567
   98MOL   C33337387   3.764   6.826   0.757 -0.7093  0.0303  0.0449
   98MOL   H33437388   3.806   6.652   0.891  0.0948  0.9776  0.4348
   98MOL   H33537389   3.829   6.647   0.519  0.0395  0.2716  0.0104
   98MOL   H33637390   3.705   6.481   0.376  0.5767  1.9231 -0.4286
   98MOL   H33737391   3.586   6.163   0.479  1.1643 -0.0453 -3.6880
   98MOL   H33837392   3.450   6.260   0.495 -0.3933 -0.8403  0.6630
   98MOL   H33937393   3.582   6.271   0.360  0.8004 -1.6745  0.4083
   98MOL   H34037394   3.572   6.293   0.743 -2.4104  2.0390  0.0519
   98MOL   H34137395   3.684   6.467   0.874 -0.3445  2.0008  0.3015
   98MOL   H34237396   3.774   6.840   0.649  0.4334  1.0231  0.2702
   98MOL   H34337397   3.820   6.905   0.806 -0.3105 -0.7491  0.8391
   98MOL   C34437398   3.619   6.851   0.803  0.3505 -0.1893 -0.2965
   98MOL   C34537399   3.569   6.965   0.719 -0.0559 -0.2318  0.6203
   98MOL   C34637400   3.627   7.098   0.725 -0.5750  0.1769 -0.4267
   98MOL   C34737401   3.596   7.194   0.631 -0.2196  0.6411  0.4921
   98MOL   C34837402   3.484   7.169   0.539  0.8013  0.1313  0.4760
   98MOL   C34937403   3.432   7.277   0.448  0.6621 -0.5482 -0.3367
   98MOL   C35037404   3.409   7.050   0.552 -0.5321 -0.3439  0.1669
   98MOL   C35137405   3.454   6.945   0.631 -0.1370  0.4051 -0.2940
   98MOL   C35237406   3.600   6.869   0.951  0.3910 -0.1810 -0.8341
   98MOL   H35337407   3.563   6.761   0.778 -0.2130  0.1889 -0.4060
   98MOL   H35437408   3.708   7.120   0.793 -2.1931  3.4370  0.5373
   98MOL   H35537409   3.655   7.285   0.625  1.2943 -0.2650  1.4886
   98MOL   H35637410   3.439   7.260   0.341 -0.5812 -1.7689 -0.2352
   98MOL   H35737411   3.331   7.311   0.473  0.2986 -0.5738 -1.7574
   98MOL   H35837412   3.500   7.360   0.466  1.8760 -1.8014  0.9749
   98MOL   H35937413   3.320   7.026   0.495  2.4614 -0.6761 -4.5759
   98MOL   H36037414   3.406   6.848   0.630  0.3080  0.1881 -1.8723
   98MOL   H36137415   3.675   6.937   0.992  1.0752 -1.8148  0.6664
   98MOL   H36237416   3.631   6.776   0.997 -1.2302 -0.3184  0.0299
   98MOL   C36337417   3.458   6.909   0.998 -0.2397 -0.0965  0.3652
   98MOL   C36437418   3.472   6.937   1.149 -0.3234  0.3787 -0.0329
   98MOL   C36537419   3.441   6.844   1.250 -0.2938  0.2968  0.3155
   98MOL   C36637420   3.440   6.882   1.385 -0.2082  0.4972 -0.4152
   98MOL   C36737421   3.473   7.013   1.424  0.3939  0.5990  0.3211
   98MOL   C36837422   3.481   7.051   1.569 -0.1155  0.3498  0.1543
   98MOL   C36937423   3.511   7.106   1.331  0.1164 -0.2860  0.3118
   98MOL   C37037424   3.511   7.066   1.193  0.8702  0.5162  0.1524
   98MOL   C37137425   3.351   6.802   0.972  0.1515  0.5739  0.3056
   98MOL   H37237426   3.431   6.999   0.942  0.5216 -0.1252 -0.0650
   98MOL   H37337427   3.401   6.749   1.220 -1.7157  0.7629  0.7206
   98MOL   H37437428   3.419   6.812   1.464 -0.4742  0.1164 -0.8193
   98MOL   H37537429   3.568   7.115   1.582 -0.3342  0.5899  0.4558
   98MOL   H37637430   3.388   7.094   1.608 -0.5046 -0.9215  0.6775
   98MOL   H37737431   3.488   6.959   1.627 -3.5533 -1.5334 -2.1871
   98MOL   H37837432   3.537   7.208   1.357 -1.4922 -0.0350  1.0716
   98MOL   H37937433   3.538   7.140   1.119  0.1662 -0.0893 -0.7190
   98MOL   H38037434   3.261   6.843   1.019 -0.0871 -2.4476  2.6715
   98MOL   H38137435   3.366   6.701   1.009 -3.1252 -1.0744 -2.6361
   98MOL   H38237436   3.316   6.802   0.869  0.7599 -1.5236  0.0843
   99MOL     C137437   0.889   4.706   7.072 -0.8621  0.2945 -0.0072
   99MOL     C237438   0.853   4.835   7.008  0.2767 -0.6430 -0.6967
   99MOL     C337439   0.776   4.829   6.890 -0.3500  0.2287 -0.0102
   99MOL     C437440   0.728   4.941   6.830 -0.5107  0.2530  0.4003
   99MOL     C537441   0.762   5.067   6.876 -1.2413  1.3778  0.3283
   99MOL     C637442   0.714   5.190   6.797 -0.3056  0.3690 -0.2450
   99MOL     C737443   0.835   5.076   6.998 -0.6324 -0.4275 -0.3516
   99MOL     C837444   0.881   4.960   7.064  0.2044 -0.2324  0.6093
   99MOL     C937445   0.787   4.645   7.169  0.3563  0.7158  0.0805
   99MOL    H1037446   0.906   4.626   6.999  0.9511  0.1446  0.5596
   99MOL    H1137447   0.750   4.729   6.858  2.2966 -0.1011 -1.2698
   99MOL    H1237448   0.670   4.925   6.740  1.0260 -1.1826 -0.3390
   99MOL    H1337449   0.787   5.269   6.781  0.4524 -0.3710 -0.4870
   99MOL    H1437450   0.720   5.159   6.692 -0.3133  0.8336 -0.3868
   99MOL    H1537451   0.616   5.234   6.816 -1.0618 -0.7433 -1.4315
   99MOL    H1637452   0.853   5.170   7.046 -0.7504 -0.4818 -0.1994
   99MOL    H1737453   0.925   4.976   7.161 -0.8499  0.6557  0.9561
   99MOL    H1837454   0.690   4.673   7.129  0.6648 -0.9923 -1.9859
   99MOL    H1937455   0.801   4.692   7.266  2.3226 -1.4558  0.9100
   99MOL    H2037456   0.992   4.715   7.106 -0.1375 -0.3269 -1.9658
   99MOL    C2137457   0.789   4.490   7.179 -0.3488  0.2989 -0.4964
   99MOL    C2237458   0.660   4.430   7.230  0.3972 -0.2791 -0.3278
   99MOL    C2337459   0.605   4.477   7.354  0.0937  0.5192  0.0264
   99MOL    C2437460   0.484   4.419   7.399 -0.4541 -0.1096  0.1280
   99MOL    C2537461   0.417   4.324   7.328  0.7188  0.8095  0.2102
   99MOL    C2637462   0.299   4.253   7.385  0.3257 -0.1989 -0.1296
   99MOL    C2737463   0.467   4.281   7.202  0.9563 -0.3967  0.0810
   99MOL    C2837464   0.586   4.332   7.154 -0.0440 -0.2076  0.4456
   99MOL    C2937465   0.900   4.432   7.276  0.3565 -0.7872  0.3740
   99MOL    H3037466   0.803   4.448   7.080  0.2419 -1.5608  0.3441
   99MOL    H3137467   0.647   4.554   7.417 -2.3599 -0.8658  3.5364
   99MOL    H3237468   0.450   4.447   7.498  0.5145 -1.8575  0.9646
   99MOL    H3337469   0.201   4.285   7.352  0.5435 -1.0551 -1.6945
   99MOL    H3437470   0.304   4.145   7.365  0.4228 -0.2572  0.2109
   99MOL    H3537471   0.306   4.264   7.493  3.8882 -0.4482 -0.2742
   99MOL    H3637472   0.421   4.203   7.143 -1.1736  0.2135  0.8994
   99MOL    H3737473   0.627   4.304   7.058 -0.0196 -1.1704  0.7332
   99MOL    H3837474   0.880   4.325   7.277  0.5631 -0.8685 -1.9101
   99MOL    H3937475   0.877   4.467   7.377 -0.2094  0.5834 -0.2200
   99MOL    C4037476   1.046   4.453   7.235  0.3017 -0.4455  0.4634
   99MOL    C4137477   1.088   4.381   7.104  1.1948  0.2612  0.1304
   99MOL    C4237478   1.196   4.434   7.030 -0.0248  0.0486  0.0796
   99MOL    C4337479   1.219   4.387   6.902  0.1744  0.1318  0.4665
   99MOL    C4437480   1.148   4.278   6.845  0.2310  0.4888  0.0498
   99MOL    C4537481   1.160   4.240   6.702 -0.5577  0.1914  0.6486
   99MOL    C4637482   1.055   4.211   6.923 -0.5004  0.2727 -0.4128
   99MOL    C4737483   1.027   4.261   7.057  0.2921  0.0847  0.1797
   99MOL    C4837484   1.146   4.430   7.345 -0.1685  0.2299  0.2117
   99MOL    H4937485   1.055   4.561   7.226 -0.8420  0.1912  5.7561
   99MOL    H5037486   1.243   4.525   7.063 -0.2622 -0.6298  2.3970
   99MOL    H5137487   1.295   4.439   6.846  0.2541  1.0212  1.4014
   99MOL    H5237488   1.128   4.137   6.687  1.4925 -0.2740 -0.7605
   99MOL    H5337489   1.100   4.304   6.638  2.2635  2.7495  0.4209
   99MOL    H5437490   1.265   4.246   6.672 -1.3579  0.5778 -2.2227
   99MOL    H5537491   0.997   4.133   6.875  1.7109 -0.2290 -2.3198
   99MOL    H5637492   0.949   4.209   7.111  0.1479 -1.5774 -1.5876
   99MOL    H5737493   1.193   4.332   7.333  1.7657  1.1522  0.0456
   99MOL    H5837494   1.095   4.411   7.439  0.9860  2.2775  1.2915
   99MOL    C5937495   1.251   4.543   7.380 -0.6064 -0.0365 -0.5886
   99MOL    C6037496   1.382   4.533   7.311  0.2575  0.0938  0.7870
   99MOL    C6137497   1.471   4.431   7.347  0.2924 -0.0887  0.0895
   99MOL    C6237498   1.597   4.426   7.288 -0.2711 -0.2470  0.0361
   99MOL    C6337499   1.636   4.520   7.195 -0.5580  0.5656  0.3550
   99MOL    C6437500   1.779   4.503   7.130  0.1705 -0.0903 -0.5857
   99MOL    C6537501   1.553   4.626   7.157 -0.1487 -0.5917 -0.2694
   99MOL    C6637502   1.424   4.639   7.219  0.3344  0.4382  0.3905
   99MOL    C6737503   1.270   4.580   7.529 -0.1234 -0.1668 -0.3300
   99MOL    H6837504   1.202   4.637   7.356  0.4881  0.2447 -1.7727
   99MOL    H6937505   1.441   4.354   7.416 -0.1857 -0.5589 -0.6310
   99MOL    H7037506   1.670   4.350   7.311  2.4466  2.1568 -0.2836
   99MOL    H7137507   1.796   4.409   7.078  0.3095  0.2937 -1.2415
   99MOL    H7237508   1.786   4.583   7.057 -0.5464 -1.8868 -2.6723
   99MOL    H7337509   1.840   4.504   7.221 -1.1411  0.9044  0.2892
   99MOL    H7437510   1.584   4.702   7.087  0.5681 -1.5950 -1.0394
   99MOL    H7537511   1.353   4.718   7.197  1.5219  1.5362  0.4027
   99MOL    H7637512   1.301   4.491   7.583  0.1395  0.7494  1.0588
   99MOL    H7737513   1.168   4.594   7.567  0.4354 -0.4372  1.2926
   99MOL    C7837514   1.366   4.697   7.547  0.2336 -0.6657 -0.2381
   99MOL    C7937515   1.415   4.718   7.690  1.1171 -0.2088  0.6201
   99MOL    C8037516   1.325   4.709   7.799  0.5262 -0.4516 -0.5018
   99MOL    C8137517   1.376   4.727   7.931  0.2821 -0.1368 -0.0494
   99MOL    C8237518   1.516   4.748   7.954  0.1507 -0.3678  0.1485
   99MOL    C8337519   1.571   4.766   0.011 -0.6053  0.1452 -0.2709
   99MOL    C8437520   1.604   4.751   7.843  0.5123  0.4332 -0.1708
   99MOL    C8537521   1.556   4.733   7.712 -0.0970  0.3289  0.3583
   99MOL    C8637522   1.298   4.829   7.502  0.4835 -0.6497  0.1655
   99MOL    H8737523   1.461   4.683   7.495 -0.4128  0.7210 -1.8801
   99MOL    H8837524   1.217   4.702   7.794  0.4460 -0.2966  0.8369
   99MOL    H8937525   1.318   4.728   8.022 -0.6026 -3.6910 -0.4982
   99MOL    H9037526   1.509   4.799   0.094 -1.2879 -0.0193 -0.7076
   99MOL    H9137527   1.630   4.683   0.049 -0.9291  1.0981  2.4230
   99MOL    H9237528   1.636   4.850   8.068  1.0797 -1.2005 -0.4812
   99MOL    H9337529   1.710   4.756   7.859  0.7802 -0.9973 -1.4301
   99MOL    H9437530   1.624   4.721   7.629 -0.2682  0.4634  0.1986
   99MOL    H9537531   1.222   4.846   7.578  0.4256  1.7271 -0.3800
   99MOL    H9637532   1.257   4.832   7.401  0.5767  1.8842  0.1543
   99MOL    C9737533   1.376   4.970   7.492 -0.0908  0.0224  0.3247
   99MOL    C9837534   1.275   5.076   7.442 -1.2058 -0.1124  0.9510
   99MOL    C9937535   1.216   5.168   7.525  0.3126 -0.9414  0.5279
   99MOL   C10037536   1.128   5.266   7.483  0.1531 -0.2185  0.0538
   99MOL   C10137537   1.080   5.255   7.352  0.3272  0.3526 -0.0775
   99MOL   C10237538   0.965   5.345   7.311  0.0562  0.0887 -0.2490
   99MOL   C10337539   1.134   5.164   7.262  0.2651  0.1925  0.4063
   99MOL   C10437540   1.232   5.073   7.306  0.5572 -0.2266  0.8251
   99MOL   C10537541   1.495   4.931   7.395  0.4636 -0.4000  0.4863
   99MOL   H10637542   1.423   4.995   7.587 -0.2446  0.5567  0.2622
   99MOL   H10737543   1.238   5.177   7.630 -1.5159 -0.2013  0.8755
   99MOL   H10837544   1.087   5.338   7.553  1.9612 -0.8445  1.8112
   99MOL   H10937545   0.904   5.358   7.400  0.0532 -1.7292  0.0435
   99MOL   H11037546   1.011   5.438   7.278  0.4900  0.0604  0.2658
   99MOL   H11137547   0.912   5.295   7.230 -1.0927  0.2437  0.3954
   99MOL   H11237548   1.099   5.173   7.160 -0.8630 -1.1754  0.6571
   99MOL   H11337549   1.280   5.016   7.228  0.9659  0.8512  0.2779
   99MOL   H11437550   1.449   4.866   7.320 -0.8445 -1.3004  2.0270
   99MOL   H11537551   1.572   4.872   7.445  1.7450 -0.3855 -1.4360
   99MOL   C11637552   1.556   5.049   7.322  1.3716  0.1101  0.7694
   99MOL   C11737553   1.646   5.001   7.207  0.5677 -0.3438  0.0532
   99MOL   C11837554   1.601   5.028   7.073  0.8082 -0.3064  0.4340
   99MOL   C11937555   1.680   4.981   6.969  0.1909  1.2860 -0.6360
   99MOL   C12037556   1.808   4.918   6.994  0.0085  0.6667 -0.0359
   99MOL   C12137557   1.886   4.865   6.881 -0.3621  0.2045  0.3075
   99MOL   C12237558   1.854   4.912   7.129 -0.6402  0.3573  0.2235
   99MOL   C12337559   1.765   4.939   7.233 -0.0109 -0.7148  0.6040
   99MOL   C12437560   1.631   5.147   7.414  0.0436  0.2335 -0.0127
   99MOL   H12537561   1.475   5.110   7.283 -0.4347 -0.2764  3.7646
   99MOL   H12637562   1.504   5.072   7.053  1.7556  1.4325 -0.4386
   99MOL   H12737563   1.646   4.994   6.868 -1.9325  2.2930  0.1748
   99MOL   H12837564   1.865   4.771   6.830 -4.4166  1.0948  0.2048
   99MOL   H12937565   1.884   4.945   6.807 -0.5061  1.1157  1.2840
   99MOL   H13037566   1.988   4.845   6.914 -0.3289  2.3824  1.6106
   99MOL   H13137567   1.953   4.874   7.149 -0.6725 -0.3395 -0.9335
   99MOL   H13237568   1.801   4.918   7.332 -2.3251 -0.4915  1.5371
   99MOL   H13337569   1.713   5.093   7.461  0.4866  2.3156  1.6630
   99MOL   H13437570   1.556   5.174   7.489  0.9676  0.2693  0.9026
   99MOL   C13537571   1.702   5.277   7.356  0.0153 -0.6085 -0.5128
   99MOL   C13637572   1.801   5.328   7.466 -0.8664  0.3890  0.3521
   99MOL   C13737573   1.767   5.430   7.559  0.5777  0.1340 -0.5288
   99MOL   C13837574   1.864   5.478   7.645  1.1411 -0.6801  0.1637
   99MOL   C13937575   1.998   5.425   7.643  0.0559 -0.0924 -1.4834
   99MOL   C14037576   2.110   5.485   7.732 -0.1847 -0.3828  0.3922
   99MOL   C14137577   2.031   5.315   7.561 -0.2801 -0.3822  0.2167
   99MOL   C14237578   1.933   5.272   7.476  0.5465  0.5161 -0.4024
   99MOL   C14337579   1.599   5.385   7.313 -0.4127  1.0740 -0.7599
   99MOL   H14437580   1.761   5.248   7.269  0.5065  0.2820 -0.4736
   99MOL   H14537581   1.671   5.478   7.549  0.8787  1.4278  2.1553
   99MOL   H14637582   1.840   5.556   7.716 -2.6070 -1.2474 -0.4145
   99MOL   H14737583   2.202   5.428   7.719 -0.0170 -0.0466  0.1015
   99MOL   H14837584   2.114   5.592   7.711  0.6168 -0.7945 -1.6963
   99MOL   H14937585   2.084   5.484   7.838  0.7090  0.8750  0.6337
   99MOL   H15037586   2.126   5.265   7.566  0.1936  0.6073  1.4366
   99MOL   H15137587   1.971   5.194   7.413  0.2777  1.0823 -1.2700
   99MOL   H15237588   1.537   5.409   7.400  0.6537  0.1573  0.2523
   99MOL   H15337589   1.526   5.349   7.241 -1.0310 -0.8934  0.8068
   99MOL   C15437590   1.654   5.511   7.251  0.0328  0.3152 -0.2184
   99MOL   C15537591   1.559   5.629   7.273  0.2755  0.1797 -1.0235
   99MOL   C15637592   1.563   5.699   7.394  0.2819 -0.2541  0.2939
   99MOL   C15737593   1.460   5.799   7.422  0.5703  0.1782 -0.4065
   99MOL   C15837594   1.368   5.840   7.319  0.1295 -0.4154  0.2131
   99MOL   C15937595   1.271   5.953   7.342 -0.0614  0.3952 -0.1067
   99MOL   C16037596   1.372   5.774   7.200  0.2191  0.7537  0.5867
   99MOL   C16137597   1.458   5.661   7.182  0.6047 -0.3733 -0.0856
   99MOL   C16237598   1.713   5.498   7.102 -0.0868  0.3532 -0.0475
   99MOL   H16337599   1.743   5.540   7.308 -0.9644  1.7965  0.6399
   99MOL   H16437600   1.633   5.672   7.471  0.3341 -0.6550  0.1105
   99MOL   H16537601   1.459   5.844   7.520  0.1464  1.8193 -1.1378
   99MOL   H16637602   1.221   5.947   7.438 -0.1321  0.3892 -0.1450
   99MOL   H16737603   1.340   6.038   7.343  0.0403  0.4062 -2.7543
   99MOL   H16837604   1.201   5.963   7.259 -0.9610 -1.9347  0.3328
   99MOL   H16937605   1.300   5.794   7.123 -1.4445 -2.6882  1.1380
   99MOL   H17037606   1.461   5.616   7.084 -3.5013 -0.5618 -0.2161
   99MOL   H17137607   1.638   5.471   7.027  0.8781 -3.5788  0.2991
   99MOL   H17237608   1.784   5.416   7.114  0.0403  0.7964  2.5331
   99MOL   C17337609   1.791   5.621   7.040 -0.3419 -0.3168  0.0800
   99MOL   C17437610   1.774   5.646   6.889  0.3769  0.9148  1.0785
   99MOL   C17537611   1.796   5.534   6.798 -0.5600  0.0762 -0.2346
   99MOL   C17637612   1.777   5.552   6.658  0.0214  0.3675 -0.3084
   99MOL   C17737613   1.740   5.678   6.606 -0.5374 -0.4095  0.0622
   99MOL   C17837614   1.737   5.700   6.463  0.1073 -0.2846 -0.1814
   99MOL   C17937615   1.715   5.784   6.701 -0.0743  0.8880 -0.1693
   99MOL   C18037616   1.734   5.770   6.838  0.4593 -1.2903  0.1782
   99MOL   C18137617   1.935   5.638   7.090 -0.1015 -0.7282 -0.0461
   99MOL   H18237618   1.727   5.703   7.072 -1.3848 -0.8630 -0.5689
   99MOL   H18337619   1.822   5.436   6.835  1.1942  1.3498  2.0176
   99MOL   H18437620   1.808   5.469   6.595 -1.3264 -1.3844  1.3061
   99MOL   H18537621   1.690   5.613   6.417  1.6345 -1.9531  1.3332
   99MOL   H18637622   1.682   5.794   6.456 -1.0955 -1.0526 -1.3891
   99MOL   H18737623   1.834   5.712   6.415 -0.2090 -1.2725 -1.0815
   99MOL   H18837624   1.679   5.881   6.668 -0.7287  0.8810  0.5257
   99MOL   H18937625   1.713   5.858   6.897  1.9319 -2.8575  3.1854
   99MOL   H19037626   2.000   5.610   7.007 -0.1092 -1.2067  0.1059
   99MOL   H19137627   1.951   5.580   7.181 -0.2451  0.4285  0.7205
   99MOL   C19237628   1.984   5.778   7.125 -0.5658  0.8128  0.2024
   99MOL   C19337629   2.132   5.796   7.110 -0.3492  0.3948  0.1651
   99MOL   C19437630   2.185   5.805   6.977 -0.0598 -0.1462  0.0812
   99MOL   C19537631   2.323   5.819   6.951 -0.0469 -0.1164  0.6613
   99MOL   C19637632   2.419   5.824   7.055  0.0864 -0.4187  0.9034
   99MOL   C19737633   2.567   5.841   7.034  0.0033  0.2756 -0.1203
   99MOL   C19837634   2.364   5.817   7.184 -0.1913  0.3423 -0.0951
   99MOL   C19937635   2.230   5.792   7.213  0.3645  0.2381 -0.1050
   99MOL   C20037636   1.937   5.827   7.260 -0.0001  0.0661  0.3471
   99MOL   H20137637   1.946   5.844   7.047 -0.7574  3.4838  2.4533
   99MOL   H20237638   2.121   5.816   6.890 -0.7819 -0.2102  0.6013
   99MOL   H20337639   2.350   5.818   6.846  1.0874  0.3619  0.9326
   99MOL   H20437640   2.584   5.949   7.045  3.0403 -0.2969  1.2739
   99MOL   H20537641   2.625   5.788   7.108  2.2322  2.3203 -0.3314
   99MOL   H20637642   2.593   5.806   6.934 -0.4802 -1.7086  0.4369
   99MOL   H20737643   2.423   5.828   7.274  0.2317  0.2270 -0.3564
   99MOL   H20837644   2.202   5.779   7.316  0.0665  2.0355  0.0540
   99MOL   H20937645   1.981   5.774   7.344  0.8184 -3.3687 -2.0977
   99MOL   H21037646   1.830   5.809   7.274 -0.4732  2.9663  0.7087
   99MOL   C21137647   1.958   5.984   7.275 -0.4010 -0.1812 -0.2500
   99MOL   C21237648   1.973   6.025   7.420  0.3002 -0.5142  0.4712
   99MOL   C21337649   1.898   5.966   7.524  0.0309  0.2272  0.3932
   99MOL   C21437650   1.929   6.000   7.653 -0.6966 -0.6632 -0.5473
   99MOL   C21537651   2.026   6.098   7.687 -0.2477  0.6663 -0.2197
   99MOL   C21637652   2.044   6.134   7.834 -0.0992 -0.8067  0.4956
   99MOL   C21737653   2.101   6.160   7.582 -0.1234 -0.7413 -0.3212
   99MOL   C21837654   2.071   6.122   7.449  0.0515 -0.1849 -0.8208
   99MOL   C21937655   1.841   6.052   7.205 -0.0957 -0.4078 -0.5751
   99MOL   H22037656   2.048   5.988   7.213  0.5027 -0.7292  1.0056
   99MOL   H22137657   1.824   5.888   7.512 -1.7215  1.6992  1.5045
   99MOL   H22237658   1.876   5.943   7.728 -0.5835  0.1159  0.1328
   99MOL   H22337659   1.978   6.219   7.853 -0.8033 -1.3754  0.6133
   99MOL   H22437660   2.015   6.047   7.893 -0.8361 -0.6263  0.4142
   99MOL   H22537661   2.141   6.172   7.863 -0.1465 -0.9142  0.7941
   99MOL   H22637662   2.174   6.237   7.601  0.5409 -1.3647 -0.3387
   99MOL   H22737663   2.126   6.169   7.369  0.0966  0.2233 -0.5481
   99MOL   H22837664   1.778   6.080   7.289 -0.1427 -0.9369 -0.4299
   99MOL   H22937665   1.792   5.987   7.132  1.0178 -0.1858 -1.5278
   99MOL   C23037666   1.880   6.176   7.123  0.2408  0.2321  0.1910
   99MOL   C23137667   1.968   6.139   7.001  0.4376 -0.2453 -0.3116
   99MOL   C23237668   1.917   6.077   6.887  0.5118  0.6517  0.9874
   99MOL   C23337669   1.998   6.045   6.778  0.2594 -0.2764 -0.4006
   99MOL   C23437670   2.137   6.062   6.784 -0.5950  0.1103  0.0004
   99MOL   C23537671   2.224   6.050   6.661  0.2430  0.2205  0.4654
   99MOL   C23637672   2.194   6.124   6.900 -0.9203  0.3372  0.9625
   99MOL   C23737673   2.109   6.161   7.007  0.2266  0.2593  0.5654
   99MOL   C23837674   1.924   6.300   7.197  0.0123  0.1413 -0.0406
   99MOL   H23937675   1.785   6.191   7.071  0.8991  0.8075 -0.8486
   99MOL   H24037676   1.813   6.050   6.876  0.7132  0.2186  0.0071
   99MOL   H24137677   1.948   5.997   6.695 -0.5525 -0.3435  0.1244
   99MOL   H24237678   2.162   6.049   6.572  0.8966  1.1143 -0.0189
   99MOL   H24337679   2.291   6.137   6.654 -1.5387  1.5927  0.1810
   99MOL   H24437680   2.277   5.955   6.672  1.2380  0.8524  1.3238
   99MOL   H24537681   2.297   6.154   6.904 -1.0366  0.7566  0.7519
   99MOL   H24637682   2.159   6.218   7.084  0.0911  1.8282 -0.4850
   99MOL   H24737683   2.025   6.277   7.232  0.1934  1.6419  0.4610
   99MOL   H24837684   1.870   6.314   7.291 -2.0024 -0.7785 -1.0216
   99MOL   C24937685   1.930   6.431   7.110  0.8217 -0.3960 -0.5882
   99MOL   C25037686   2.050   6.514   7.148  0.1449  0.0205 -0.1160
   99MOL   C25137687   2.060   6.552   7.280 -0.3992  0.2204 -0.6074
   99MOL   C25237688   2.175   6.621   7.324 -0.1963 -0.3900 -0.2794
   99MOL   C25337689   2.292   6.636   7.241  0.0880  0.1665  0.5119
   99MOL   C25437690   2.414   6.700   7.301  0.1570 -0.8246  0.1268
   99MOL   C25537691   2.286   6.600   7.108  0.1430  1.0480  0.1911
   99MOL   C25637692   2.164   6.539   7.057 -0.0968 -0.2504  0.7694
   99MOL   C25737693   1.797   6.505   7.118  0.5355 -0.3148  0.1722
   99MOL   H25837694   1.948   6.401   7.007 -2.5519 -1.3655 -0.9468
   99MOL   H25937695   1.983   6.534   7.353  0.9895  0.1979  0.8944
   99MOL   H26037696   2.174   6.645   7.429 -1.2587 -1.1374 -0.1058
   99MOL   H26137697   2.431   6.798   7.255 -2.2839 -1.2053 -1.7020
   99MOL   H26237698   2.404   6.706   7.409  1.1277 -2.1140  0.2901
   99MOL   H26337699   2.494   6.631   7.276 -0.5025 -1.5106 -0.1223
   99MOL   H26437700   2.369   6.626   7.045 -0.7429  0.7649 -1.1282
   99MOL   H26537701   2.154   6.517   6.952 -1.8165  0.7529  0.6992
   99MOL   H26637702   1.770   6.519   7.223 -0.4645  0.2479 -0.1447
   99MOL   H26737703   1.721   6.448   7.063  0.0074  2.4937 -2.1226
   99MOL   C26837704   1.793   6.645   7.053 -0.9085 -0.2264 -0.3644
   99MOL   C26937705   1.663   6.718   7.099  1.2091 -0.0981  0.0025
   99MOL   C27037706   1.671   6.815   7.203  0.2120 -0.4163 -0.7167
   99MOL   C27137707   1.556   6.866   7.259 -0.0891  0.2320  0.6661
   99MOL   C27237708   1.427   6.829   7.214 -0.7680 -0.3003  0.0114
   99MOL   C27337709   1.311   6.883   7.298  0.6367  0.6187  0.1119
   99MOL   C27437710   1.413   6.722   7.121 -0.6031  0.0743 -0.2275
   99MOL   C27537711   1.533   6.667   7.067 -0.4241 -0.0872  0.4176
   99MOL   C27637712   1.799   6.647   6.901  0.3110  0.3701 -0.5157
   99MOL   H27737713   1.877   6.708   7.084 -0.6616 -1.2451  1.1015
   99MOL   H27837714   1.766   6.840   7.246 -0.7884  1.6861  0.3159
   99MOL   H27937715   1.577   6.949   7.325  0.3891  2.0527 -1.7006
   99MOL   H28037716   1.352   6.916   7.393 -0.4415 -3.0325  1.9524
   99MOL   H28137717   1.257   6.968   7.256 -0.6572 -0.3212 -0.1731
   99MOL   H28237718   1.238   6.804   7.316  0.0655  0.8365 -1.1917
   99MOL   H28337719   1.316   6.688   7.090 -0.5814 -0.6149  0.4331
   99MOL   H28437720   1.529   6.592   6.990 -0.0697 -0.6510  0.9433
   99MOL   H28537721   1.701   6.627   6.860 -0.6758  1.4801  1.2285
   99MOL   H28637722   1.867   6.566   6.873 -0.8778 -0.0403 -2.2993
   99MOL   C28737723   1.849   6.776   6.835 -0.1001 -0.2191 -0.8213
   99MOL   C28837724   1.808   6.774   6.687 -0.6387  0.2291  0.2419
   99MOL   C28937725   1.704   6.858   6.641  0.1352  0.0470  0.5712
   99MOL   C29037726   1.671   6.863   6.505 -0.4030 -0.6845  0.3667
   99MOL   C29137727   1.738   6.781   6.410  0.4539 -0.2597 -0.7203
   99MOL   C29237728   1.707   6.805   6.267  0.5046 -0.0623  0.6617
   99MOL   C29337729   1.842   6.696   6.454 -0.2980  0.0136 -0.3692
   99MOL   C29437730   1.878   6.694   6.590  0.6740  0.2389 -0.7569
   99MOL   C29537731   1.998   6.807   6.855 -0.1265  0.6989  0.5311
   99MOL   H29637732   1.799   6.856   6.889 -1.9177 -0.7830 -1.6102
   99MOL   H29737733   1.658   6.919   6.717  1.3675 -1.2843  2.4381
   99MOL   H29837734   1.597   6.934   6.470 -1.3159 -1.6086  0.4013
   99MOL   H29937735   1.599   6.814   6.253  0.5294  1.1105  1.1639
   99MOL   H30037736   1.757   6.901   6.252  2.2690 -1.2286 -1.1349
   99MOL   H30137737   1.756   6.727   6.208 -0.3044  0.2845 -0.4778
   99MOL   H30237738   1.893   6.624   6.391  1.4300  0.9864 -0.0924
   99MOL   H30337739   1.953   6.625   6.625 -0.4101  0.6169  2.4300
   99MOL   H30437740   2.054   6.724   6.812 -1.6763  0.3011 -0.7905
   99MOL   H30537741   2.016   6.811   6.962 -1.1122 -1.4555  0.8087
   99MOL   C30637742   2.051   6.924   6.778  0.4380  0.1668 -0.2727
   99MOL   C30737743   2.202   6.923   6.761 -1.0733 -0.0314 -0.5624
   99MOL   C30837744   2.257   6.897   6.633 -0.0330  0.5110  0.7570
   99MOL   C30937745   2.397   6.882   6.615 -0.4316 -0.0067 -0.2145
   99MOL   C31037746   2.485   6.898   6.721 -0.2570 -0.2313 -0.3008
   99MOL   C31137747   2.634   6.875   6.709  0.3283  0.0955 -0.0685
   99MOL   C31237748   2.428   6.936   6.845  0.2676  0.4201  0.3059
   99MOL   C31337749   2.285   6.956   6.862 -0.2890  0.7998  0.5013
   99MOL   C31437750   1.995   7.058   6.841  0.5695 -0.8410 -0.6770
   99MOL   H31537751   1.998   6.931   6.683 -0.0761 -1.3936 -0.1217
   99MOL   H31637752   2.192   6.889   6.548 -2.5185  0.6649  2.5706
   99MOL   H31737753   2.436   6.843   6.522  0.7483 -2.4286  1.2422
   99MOL   H31837754   2.666   6.776   6.741  1.0544 -0.1388 -1.4418
   99MOL   H31937755   2.653   6.913   6.608  0.0339 -2.7983 -1.2715
   99MOL   H32037756   2.688   6.951   6.764  1.1447  1.2180 -2.3461
   99MOL   H32137757   2.501   6.941   6.925  0.6014 -0.9205  0.0939
   99MOL   H32237758   2.248   6.982   6.960 -0.7230  0.5621  0.4030
   99MOL   H32337759   2.007   7.070   6.949 -0.3485 -0.0619 -0.6548
   99MOL   H32437760   1.887   7.073   6.843  0.7350  0.2865  0.4920
   99MOL   C32537761   2.047   7.191   6.773  0.3870 -0.1247 -0.2400
   99MOL   C32637762   2.021   7.305   6.861  0.0067  0.1339  0.6035
   99MOL   C32737763   1.886   7.347   6.885 -0.6916 -0.2975  0.1140
   99MOL   C32837764   1.859   7.450   6.976 -0.2459  0.5820  0.2107
   99MOL   C32937765   1.964   7.523   7.030  0.8111 -0.4887  0.2256
   99MOL   C33037766   1.946   7.644   7.112  0.0496  0.6091 -0.3585
   99MOL   C33137767   2.102   7.482   7.008 -0.7376  0.5430  0.6912
   99MOL   C33237768   2.125   7.371   6.924  0.3292  0.1719  0.7035
   99MOL   C33337769   1.999   7.213   6.629  0.4183  0.5475  0.3008
   99MOL   H33437770   2.156   7.189   6.771  0.3601 -2.0864 -0.4525
   99MOL   H33537771   1.790   7.311   6.850 -0.8836  1.4794 -1.2234
   99MOL   H33637772   1.754   7.474   6.986 -0.3168  0.8273 -1.0296
   99MOL   H33737773   1.884   7.639   7.202 -3.1746  1.5146 -2.4382
   99MOL   H33837774   2.043   7.690   7.128  0.5839 -0.5751 -0.1636
   99MOL   H33937775   1.880   7.704   7.049 -0.8541  0.1685  0.1484
   99MOL   H34037776   2.182   7.539   7.053 -1.2991  1.0227  1.0907
   99MOL   H34137777   2.228   7.351   6.900  0.0355  2.0748 -2.4474
   99MOL   H34237778   1.942   7.305   6.616 -1.4511 -0.1260  3.1913
   99MOL   H34337779   1.943   7.126   6.596 -0.2262  0.0692  2.5316
   99MOL   C34437780   2.121   7.238   6.537 -0.4109 -0.1716  0.2782
   99MOL   C34537781   2.214   7.359   6.570 -0.2885 -0.5875 -0.4554
   99MOL   C34637782   2.330   7.343   6.644  0.4109  0.3990  0.5034
   99MOL   C34737783   2.409   7.448   6.684 -0.0235  0.2705  0.0518
   99MOL   C34837784   2.374   7.582   6.659 -0.8879 -0.5711 -0.6907
   99MOL   C34937785   2.456   7.692   6.699  0.1361 -0.3315 -0.0255
   99MOL   C35037786   2.253   7.602   6.589 -0.0980 -1.0635  0.0062
   99MOL   C35137787   2.169   7.491   6.546  0.5393 -0.0707 -0.2093
   99MOL   C35237788   2.089   7.233   6.385 -0.4893 -0.6102 -0.2775
   99MOL   H35337789   2.189   7.154   6.551 -1.7009 -1.3475 -0.3777
   99MOL   H35437790   2.373   7.245   6.650  0.9630  0.5093 -1.2211
   99MOL   H35537791   2.498   7.416   6.736  2.0883  2.1053 -2.2891
   99MOL   H35637792   2.492   7.753   6.616 -2.9689  1.5693 -0.0466
   99MOL   H35737793   2.402   7.757   6.768 -0.4143  1.9984 -2.5728
   99MOL   H35837794   2.550   7.676   6.752 -0.5156 -1.9155  0.6722
   99MOL   H35937795   2.218   7.700   6.559 -0.4266 -1.2083 -0.0943
   99MOL   H36037796   2.071   7.501   6.501  0.5557 -2.5083 -0.8317
   99MOL   H36137797   2.140   7.317   6.338 -1.1255 -0.7206 -1.1704
   99MOL   H36237798   1.982   7.254   6.381 -0.8370 -1.5146  2.7263
   99MOL   C36337799   2.140   7.104   6.313  0.4676 -0.3432  0.1360
   99MOL   C36437800   2.189   7.124   6.170 -0.7739  0.4785 -0.7757
   99MOL   C36537801   2.114   7.196   6.075  0.3271 -0.4403  0.2652
   99MOL   C36637802   2.147   7.209   5.937 -0.1321  0.1449  0.3795
   99MOL   C36737803   2.272   7.152   5.895 -0.0169 -0.3686 -0.8143
   99MOL   C36837804   2.320   7.162   5.750 -0.2463 -0.3230 -0.4593
   99MOL   C36937805   2.347   7.082   5.988  0.0762 -0.2528 -0.6640
   99MOL   C37037806   2.311   7.062   6.121  0.6675  0.0574 -0.2917
   99MOL   C37137807   2.030   6.998   6.317  0.3886  0.3975  0.1084
   99MOL   H37237808   2.227   7.061   6.363  0.7933  0.3322  0.1573
   99MOL   H37337809   2.023   7.247   6.104 -0.7200 -0.6931 -2.3846
   99MOL   H37437810   2.080   7.263   5.873  0.7350  0.8586  0.0657
   99MOL   H37537811   2.235   7.153   5.683 -0.0385 -0.7516 -0.6674
   99MOL   H37637812   2.368   7.259   5.738 -0.2527 -0.4177 -1.2584
   99MOL   H37737813   2.400   7.089   5.734  1.1233  1.2680 -0.9323
   99MOL   H37837814   2.441   7.043   5.952  1.4182  1.7412  0.6345
   99MOL   H37937815   2.377   7.011   6.190  2.6774  0.6561 -1.7475
   99MOL   H38037816   2.060   6.903   6.274 -0.9286 -0.3217  0.7214
   99MOL   H38137817   1.942   7.038   6.265  0.7632  1.8242  0.5494
   99MOL   H38237818   2.000   6.970   6.418  0.7901 -3.3374 -0.7448
  100MOL     C137819   4.022   0.270   5.299 -0.7355 -0.0280  0.0663
  100MOL     C237820   3.911   0.203   5.372  0.2580  0.2318 -0.0097
  100MOL     C337821   3.932   0.134   5.495 -0.3399  0.1391  0.1396
  100MOL     C437822   3.822   0.064   5.554 -0.1286 -0.4961  0.5539
  100MOL     C537823   3.698   0.061   5.492  0.0270 -0.2600 -0.2261
  100MOL     C637824   3.581   0.000   5.561 -0.4704 -0.1117 -0.1274
  100MOL     C737825   3.677   0.129   5.371  0.1686  0.1682  0.3152
  100MOL     C837826   3.779   0.199   5.312 -0.1144  0.2868  0.2135
  100MOL     C937827   4.031   0.422   5.322  0.2176  0.4276  0.0034
  100MOL    H1037828   4.118   0.222   5.321 -0.5933 -0.1805 -0.8400
  100MOL    H1137829   4.032   0.125   5.534 -0.3810  0.3934  0.3094
  100MOL    H1237830   3.836   0.005   5.644  0.1874  2.3002  2.3960
  100MOL    H1337831   3.482   0.041   5.542 -1.1670 -0.3528  2.7261
  100MOL    H1437832   3.568   7.973   5.549  0.4569 -0.3101  0.5576
  100MOL    H1537833   3.587   0.020   5.668 -3.1989 -1.5081  0.3178
  100MOL    H1637834   3.578   0.138   5.328  1.0927 -0.6519 -2.0607
  100MOL    H1737835   3.761   0.251   5.219 -1.3905  1.1013  0.8981
  100MOL    H1837836   4.037   0.449   5.427  2.9828  0.3121 -0.0707
  100MOL    H1937837   3.935   0.468   5.300 -0.3495 -1.5581 -1.8262
  100MOL    H2037838   4.006   0.262   5.191  0.6108  0.5538 -0.1897
  100MOL    C2137839   4.146   0.484   5.237 -0.3184 -0.0381 -0.4259
  100MOL    C2237840   4.282   0.415   5.244  0.3391 -0.7789  0.3747
  100MOL    C2337841   4.341   0.385   5.364 -0.3110  0.1997  0.6848
  100MOL    C2437842   4.468   0.326   5.368 -0.3750 -0.0138 -0.1351
  100MOL    C2537843   4.537   0.293   5.250 -0.3132  0.2609 -0.5350
  100MOL    C2637844   4.674   0.228   5.249  0.4506  0.2287  0.0661
  100MOL    C2737845   4.477   0.318   5.127 -0.8434  0.0576  0.4402
  100MOL    C2837846   4.348   0.380   5.126  0.1884  0.1831  0.1014
  100MOL    C2937847   4.153   0.637   5.260 -0.2385 -0.4323 -0.1388
  100MOL    H3037848   4.116   0.459   5.135 -1.8915 -1.2492  0.3222
  100MOL    H3137849   4.287   0.410   5.454  0.5871  1.7076  0.8258
  100MOL    H3237850   4.514   0.314   5.464 -0.4065  2.1387  0.1613
  100MOL    H3337851   4.686   0.120   5.257  0.5329  0.3199  1.2100
  100MOL    H3437852   4.721   0.269   5.160  1.0054  0.4997  0.4817
  100MOL    H3537853   4.718   0.266   5.342  0.1557 -1.7643  1.0578
  100MOL    H3637854   4.521   0.300   5.030  2.2410  2.1721  1.3573
  100MOL    H3737855   4.301   0.413   5.034  1.9892  2.8826  0.0822
  100MOL    H3837856   4.174   0.650   5.367  0.4368  1.4565 -0.4796
  100MOL    H3937857   4.057   0.686   5.244 -0.9814 -1.8176 -0.0051
  100MOL    C4037858   4.261   0.720   5.189 -0.0623  0.9117 -0.5396
  100MOL    C4137859   4.298   0.845   5.272 -0.3714  0.5216 -0.2560
  100MOL    C4237860   4.430   0.860   5.317  0.0570 -0.3629 -0.3578
  100MOL    C4337861   4.473   0.981   5.378 -0.0510  1.2136 -0.0936
  100MOL    C4437862   4.384   1.083   5.406  0.1408  0.1252 -0.3508
  100MOL    C4537863   4.431   1.195   5.492 -0.0173 -0.5525 -0.3520
  100MOL    C4637864   4.254   1.070   5.368  0.6317 -0.1628  0.1280
  100MOL    C4737865   4.206   0.952   5.298 -0.0757 -0.6745 -0.1250
  100MOL    C4837866   4.247   0.747   5.041  0.0272  0.7061  0.3746
  100MOL    H4937867   4.346   0.652   5.198 -0.6464  0.1351 -0.8248
  100MOL    H5037868   4.504   0.786   5.290  0.1241 -0.2111 -0.5866
  100MOL    H5137869   4.574   0.990   5.416 -0.2098  1.8627  0.1850
  100MOL    H5237870   4.401   1.190   5.596  0.3690  0.9353 -0.1669
  100MOL    H5337871   4.539   1.188   5.499 -0.0486 -0.1167  0.5708
  100MOL    H5437872   4.405   1.289   5.444 -0.3291 -0.2889  0.3291
  100MOL    H5537873   4.184   1.149   5.390  0.6798 -0.5251  1.6367
  100MOL    H5637874   4.105   0.942   5.262  0.2785  0.2286 -1.3970
  100MOL    H5737875   4.172   0.822   5.015 -0.9660 -1.2181 -2.4361
  100MOL    H5837876   4.202   0.659   4.996  1.3565 -1.4248  3.0745
  100MOL    C5937877   4.377   0.797   4.971 -0.1112 -0.7214  0.3536
  100MOL    C6037878   4.342   0.871   4.843 -0.2743 -0.1474  0.5835
  100MOL    C6137879   4.243   0.817   4.760  0.4508  0.3494  0.2923
  100MOL    C6237880   4.207   0.886   4.643  0.1469  0.0951 -0.0425
  100MOL    C6337881   4.265   1.010   4.604  0.2905 -0.7827  0.0374
  100MOL    C6437882   4.218   1.083   4.480 -0.6757 -0.4547  0.2718
  100MOL    C6537883   4.362   1.063   4.693  0.5285  0.1722  0.2715
  100MOL    C6637884   4.408   0.993   4.809 -0.1028 -0.2642 -0.2840
  100MOL    C6737885   4.487   0.690   4.957  0.3825 -0.1123 -0.5250
  100MOL    H6837886   4.406   0.873   5.043  1.2698  0.1533 -1.1038
  100MOL    H6937887   4.190   0.730   4.797 -1.5219  1.5233  0.3241
  100MOL    H7037888   4.120   0.847   4.592 -0.1281 -0.3341  0.7555
  100MOL    H7137889   4.272   1.038   4.396  1.1894 -0.9997  1.7170
  100MOL    H7237890   4.109   1.075   4.478 -0.8232  1.6807 -1.1075
  100MOL    H7337891   4.262   1.181   4.496  0.7039 -1.1649  0.9415
  100MOL    H7437892   4.399   1.159   4.661  1.3335 -0.7577 -1.6840
  100MOL    H7537893   4.489   1.031   4.870  2.2058 -1.7515 -2.3177
  100MOL    H7637894   4.461   0.630   4.869  1.2317 -1.3252  0.0423
  100MOL    H7737895   4.488   0.620   5.040 -0.1962  1.9580  1.2657
  100MOL    C7837896   4.631   0.751   4.941  0.6511  0.0912 -0.7764
  100MOL    C7937897   4.731   0.640   4.912 -0.0598 -0.4527 -0.5171
  100MOL    C8037898   4.777   0.558   5.018 -0.0495  0.5695  0.4597
  100MOL    C8137899   4.869   0.457   4.997 -0.0784  0.0426 -0.2890
  100MOL    C8237900   4.921   0.432   4.870 -0.1493 -0.1998  0.1066
  100MOL    C8337901   5.013   0.318   4.843 -0.3249  1.4742  0.7081
  100MOL    C8437902   4.879   0.510   4.763  0.2012  0.7789  0.7490
  100MOL    C8537903   4.780   0.611   4.783 -0.4403  0.0323 -0.2504
  100MOL    C8637904   4.688   0.838   5.048  0.0085 -0.1920  0.1862
  100MOL    H8737905   4.622   0.807   4.848 -2.1343  0.2245 -0.4666
  100MOL    H8837906   4.734   0.576   5.116  1.1684 -0.3047  1.1626
  100MOL    H8937907   4.901   0.400   5.084 -1.1611  0.0813  0.1410
  100MOL    H9037908   5.016   0.304   4.735  0.2526 -2.8278  1.2090
  100MOL    H9137909   5.113   0.354   4.868 -0.4713  0.7570  2.3376
  100MOL    H9237910   4.995   0.222   4.891 -1.5458 -0.0544 -2.6534
  100MOL    H9337911   4.928   0.497   4.667  0.3321  2.7741  0.5381
  100MOL    H9437912   4.752   0.671   4.698 -2.9055 -1.1977 -0.3320
  100MOL    H9537913   4.712   0.784   5.140  1.6955  1.5973  0.8481
  100MOL    H9637914   4.609   0.908   5.076 -0.3846 -1.0483  1.2657
  100MOL    C9737915   4.813   0.921   5.009 -0.1737  0.4568 -0.1917
  100MOL    C9837916   4.892   0.958   5.131  0.0303  0.0491  0.4682
  100MOL    C9937917   4.824   1.024   5.234 -0.1107 -0.3677  0.4131
  100MOL   C10037918   4.895   1.079   5.341 -0.5677  0.3788 -0.0211
  100MOL   C10137919   5.033   1.052   5.355 -0.3094  1.1107 -0.6150
  100MOL   C10237920   5.111   1.108   5.468 -0.8767 -0.0813 -0.4856
  100MOL   C10337921   5.090   0.967   5.263 -0.0826 -0.2571 -0.0716
  100MOL   C10437922   5.027   0.920   5.149 -0.3306 -0.7486 -0.0998
  100MOL   C10537923   4.771   1.040   4.923 -0.2853  0.1517 -0.7667
  100MOL   H10637924   4.871   0.854   4.946  0.8225 -0.7907  1.9918
  100MOL   H10737925   4.719   1.043   5.221 -0.2332 -1.5432 -0.3412
  100MOL   H10837926   4.856   1.156   5.405 -0.6835 -1.6817  2.4919
  100MOL   H10937927   5.193   1.172   5.435  0.0707 -0.4920  1.0543
  100MOL   H11037928   5.048   1.165   5.537  0.7186 -0.0363  0.9595
  100MOL   H11137929   5.152   1.027   5.527 -1.3025 -0.9061 -1.3098
  100MOL   H11237930   5.195   0.940   5.266  0.2719  1.2175  1.6012
  100MOL   H11337931   5.082   0.861   5.077  4.4834  1.6918  1.3586
  100MOL   H11437932   4.703   1.110   4.972 -3.8391 -2.6879 -1.3652
  100MOL   H11537933   4.713   0.992   4.844  0.3247  1.3121 -1.9423
  100MOL   C11637934   4.893   1.104   4.849  0.4444  0.7187 -0.3411
  100MOL   C11737935   4.938   1.229   4.920  0.3435 -0.1238  0.5536
  100MOL   C11837936   5.078   1.244   4.932 -0.3397 -0.1176  0.1020
  100MOL   C11937937   5.129   1.374   4.953 -0.0427 -0.2199  0.2603
  100MOL   C12037938   5.037   1.485   4.970  0.0808 -1.1058 -0.2963
  100MOL   C12137939   5.088   1.624   4.989  0.6290 -0.3626 -1.1047
  100MOL   C12237940   4.904   1.467   4.968 -0.3841 -0.1457 -0.3148
  100MOL   C12337941   4.852   1.339   4.944  0.2503  0.0545  0.2592
  100MOL   C12437942   4.867   1.133   4.698 -0.2249 -0.5458 -0.0510
  100MOL   H12537943   4.975   1.033   4.861 -0.3872 -0.2205 -0.1323
  100MOL   H12637944   5.146   1.160   4.920 -0.9829 -0.9697  2.1420
  100MOL   H12737945   5.236   1.382   4.949  0.0113 -0.4863  1.2417
  100MOL   H12837946   5.065   1.646   5.093 -0.5312 -1.7473 -1.0585
  100MOL   H12937947   5.195   1.641   4.979  0.1164  4.6996  0.6133
  100MOL   H13037948   5.049   1.695   4.916 -1.7199  1.0482  1.4221
  100MOL   H13137949   4.831   1.544   4.988 -1.4224 -1.6075  1.7449
  100MOL   H13237950   4.744   1.339   4.940  0.2783  2.0944 -1.0492
  100MOL   H13337951   4.931   1.212   4.659 -1.9822  0.1588 -1.5902
  100MOL   H13437952   4.765   1.170   4.682 -0.5759 -1.0139  1.0424
  100MOL   C13537953   4.901   1.016   4.604 -0.8714 -0.8417  0.0420
  100MOL   C13637954   5.045   0.969   4.635  0.8647 -0.5728 -0.0231
  100MOL   C13737955   5.071   0.853   4.712  0.7327  0.1986 -0.6105
  100MOL   C13837956   5.201   0.819   4.748  0.6445  0.5331 -0.2899
  100MOL   C13937957   5.308   0.890   4.708  0.2243 -0.3770  0.7880
  100MOL   C14037958   5.444   0.856   4.753  0.0949  0.1547  0.0710
  100MOL   C14137959   5.293   1.008   4.631  0.0479  0.4418  0.3311
  100MOL   C14237960   5.158   1.049   4.601 -0.0757 -0.8631  0.5553
  100MOL   C14337961   4.872   1.067   4.459 -0.1922 -0.0981  0.5487
  100MOL   H14437962   4.831   0.937   4.634 -3.8260  0.5119 -3.0039
  100MOL   H14537963   4.984   0.802   4.751  0.4893  1.6890  0.8580
  100MOL   H14637964   5.227   0.727   4.799 -1.3553 -1.0038 -1.9749
  100MOL   H14737965   5.442   0.770   4.819 -1.1307 -1.2518 -1.7325
  100MOL   H14837966   5.502   0.834   4.663  1.1553  1.8778  0.3017
  100MOL   H14937967   5.498   0.939   4.798  1.5664 -0.9755  0.4179
  100MOL   H15037968   5.371   1.078   4.608 -0.5093  1.0348  0.2488
  100MOL   H15137969   5.149   1.151   4.568  3.4485 -0.4031  0.8849
  100MOL   H15237970   4.963   1.110   4.418 -0.0675 -0.7306  0.1558
  100MOL   H15337971   4.791   1.140   4.448  0.1625  0.1377 -0.5943
  100MOL   C15437972   4.842   0.953   4.357 -0.7226 -0.2495 -1.0632
  100MOL   C15537973   4.885   0.996   4.222 -0.5523  0.5956  0.2386
  100MOL   C15637974   4.965   0.908   4.147 -0.0494  0.1633  0.3241
  100MOL   C15737975   5.024   0.944   4.023  0.2164 -0.2197  0.1508
  100MOL   C15837976   4.995   1.072   3.972  0.2690  0.8214  0.6722
  100MOL   C15937977   5.060   1.106   3.840 -0.0329 -0.5914  0.1766
  100MOL   C16037978   4.910   1.162   4.038 -0.5818  0.5546  0.1214
  100MOL   C16137979   4.853   1.117   4.162 -0.2677  0.0293 -0.8674
  100MOL   C16237980   4.699   0.909   4.362  0.2755  0.3466 -0.1154
  100MOL   H16337981   4.912   0.874   4.386  1.3681  1.5872 -1.0020
  100MOL   H16437982   4.983   0.807   4.180 -1.1838  0.0712  0.6729
  100MOL   H16537983   5.092   0.878   3.972  1.1250 -0.3299  1.4972
  100MOL   H16637984   4.986   1.118   3.761 -1.1329  0.8744  1.3859
  100MOL   H16737985   5.113   1.201   3.839 -1.6802  0.3554 -2.0647
  100MOL   H16837986   5.130   1.029   3.806  0.1196 -0.4741  0.2263
  100MOL   H16937987   4.911   1.260   3.994  1.7045  0.0697 -0.9611
  100MOL   H17037988   4.786   1.183   4.215  1.4332  2.3729 -1.5563
  100MOL   H17137989   4.641   0.998   4.338  0.3112  0.7080  1.0929
  100MOL   H17237990   4.671   0.888   4.465  0.6625  0.7149  0.0654
  100MOL   C17337991   4.659   0.795   4.268  0.2124 -0.0066 -0.2646
  100MOL   C17437992   4.502   0.791   4.242 -0.0350  0.2292  0.4448
  100MOL   C17537993   4.453   0.803   4.111 -0.0469 -0.3646  0.2493
  100MOL   C17637994   4.311   0.822   4.092  0.2628 -0.1308 -0.1449
  100MOL   C17737995   4.225   0.787   4.198 -0.0549  0.7511 -0.2113
  100MOL   C17837996   4.084   0.821   4.182 -0.1897 -0.7290 -0.1112
  100MOL   C17937997   4.276   0.758   4.329 -0.1637 -0.5644  0.3790
  100MOL   C18037998   4.415   0.766   4.346  0.0280  0.5384  0.0534
  100MOL   C18137999   4.723   0.670   4.332  0.1208  0.1055 -0.4550
  100MOL   H18238000   4.699   0.826   4.171  1.4363  1.1260  0.5872
  100MOL   H18338001   4.524   0.807   4.030 -2.2157 -2.6818 -1.8624
  100MOL   H18438002   4.285   0.857   3.993  1.5646 -0.0145 -0.4594
  100MOL   H18538003   4.042   0.753   4.108 -0.6504  1.9436 -2.4063
  100MOL   H18638004   4.027   0.831   4.274 -0.2443  0.5025 -0.2703
  100MOL   H18738005   4.074   0.921   4.140  2.1848 -0.3498  0.1531
  100MOL   H18838006   4.205   0.744   4.408  0.1885  1.4659  1.0815
  100MOL   H18938007   4.452   0.748   4.446  0.7236  0.5051 -0.2134
  100MOL   H19038008   4.709   0.662   4.440 -0.2638 -3.4142 -0.7150
  100MOL   H19138009   4.831   0.677   4.315  0.1803  1.3147  0.3285
  100MOL   C19238010   4.662   0.531   4.287  0.2142  0.7531 -0.7009
  100MOL   C19338011   4.566   0.460   4.384 -0.1745  0.1251 -0.4670
  100MOL   C19438012   4.429   0.438   4.352  0.4707  0.1728  0.4802
  100MOL   C19538013   4.337   0.384   4.441 -0.2378 -0.3197  0.3572
  100MOL   C19638014   4.382   0.335   4.568 -0.3669 -0.1519 -0.2034
  100MOL   C19738015   4.281   0.281   4.666 -0.0814  0.0158 -0.2138
  100MOL   C19838016   4.523   0.348   4.595 -0.0548 -0.7895  0.3140
  100MOL   C19938017   4.616   0.413   4.509 -0.1955 -0.2236 -1.0755
  100MOL   C20038018   4.769   0.425   4.243 -0.1970 -0.1799  0.3054
  100MOL   H20138019   4.610   0.547   4.192  0.2050  0.4691 -0.7447
  100MOL   H20238020   4.400   0.484   4.259 -0.8551  0.3538  0.9739
  100MOL   H20338021   4.234   0.377   4.411  1.1055 -2.3455 -4.3821
  100MOL   H20438022   4.214   0.352   4.714 -0.3087  0.7346 -1.5437
  100MOL   H20538023   4.225   0.198   4.622  2.1140  0.0865 -3.3287
  100MOL   H20638024   4.347   0.233   4.738  1.6774  1.0410 -1.1050
  100MOL   H20738025   4.563   0.319   4.691  0.5523 -1.9214 -0.2693
  100MOL   H20838026   4.718   0.427   4.541  0.3010 -0.4184 -2.5289
  100MOL   H20938027   4.720   0.332   4.215  1.1327 -0.6597 -0.4519
  100MOL   H21038028   4.842   0.398   4.320 -0.2141  1.2459  0.8475
  100MOL   C21138029   4.858   0.463   4.122 -0.3487 -0.8540 -1.0045
  100MOL   C21238030   4.773   0.482   3.997  0.2367  0.0390  0.6274
  100MOL   C21338031   4.651   0.413   3.971 -0.0230  0.0849  0.1736
  100MOL   C21438032   4.564   0.455   3.866  0.0493 -0.2648 -0.0723
  100MOL   C21538033   4.604   0.558   3.779 -0.4325  0.3155  0.1233
  100MOL   C21638034   4.514   0.618   3.678 -0.0862  0.1091  0.1348
  100MOL   C21738035   4.735   0.611   3.796 -0.2881  0.2879  0.6370
  100MOL   C21838036   4.814   0.588   3.912 -0.1743  0.3194 -1.0601
  100MOL   C21938037   4.970   0.364   4.102  0.2575  0.7885  0.7980
  100MOL   H22038038   4.902   0.562   4.131  1.4925 -1.8705  1.5209
  100MOL   H22138039   4.608   0.340   4.038  0.3336 -1.6304 -1.4319
  100MOL   H22238040   4.467   0.408   3.857 -0.5634  0.5599  2.0959
  100MOL   H22338041   4.568   0.609   3.584 -1.6592  1.1155 -0.8964
  100MOL   H22438042   4.409   0.590   3.679  0.5633 -2.6054 -1.7008
  100MOL   H22538043   4.508   0.726   3.688  1.9363  0.4496 -1.9267
  100MOL   H22638044   4.768   0.691   3.731  2.6069 -0.7189  0.8036
  100MOL   H22738045   4.897   0.656   3.923 -0.8926  0.9241  0.8888
  100MOL   H22838046   5.009   0.371   4.000 -0.2248  2.6947  0.7280
  100MOL   H22938047   4.929   0.263   4.098  1.3788  0.3725 -0.6087
  100MOL   C23038048   5.086   0.362   4.188  0.2279  0.3887  0.1290
  100MOL   C23138049   5.150   0.501   4.200 -0.6501  0.2074  0.1743
  100MOL   C23238050   5.212   0.571   4.097  0.5472  0.0018  0.0100
  100MOL   C23338051   5.268   0.699   4.115  0.1406  0.1802 -0.1701
  100MOL   C23438052   5.266   0.764   4.242  0.2387  0.2801 -0.3181
  100MOL   C23538053   5.334   0.899   4.262 -0.7008 -0.2701  0.2142
  100MOL   C23638054   5.204   0.697   4.349  0.0360  0.0061  0.2391
  100MOL   C23738055   5.150   0.566   4.329  0.3104 -0.0690 -1.2046
  100MOL   C23838056   5.183   0.242   4.152  0.1758  0.0981 -0.1136
  100MOL   H23938057   5.049   0.341   4.288 -0.4504 -0.1015 -0.2158
  100MOL   H24038058   5.228   0.535   3.996  0.8705 -0.4357  0.2159
  100MOL   H24138059   5.312   0.756   4.034  0.2910  1.4939  0.8197
  100MOL   H24238060   5.306   0.925   4.364  0.6439 -2.8473  1.2733
  100MOL   H24338061   5.442   0.890   4.255 -0.7002 -0.7267  0.7799
  100MOL   H24438062   5.292   0.983   4.206 -0.2375  1.7922  2.8372
  100MOL   H24538063   5.199   0.743   4.446 -0.1141 -2.2035  1.3211
  100MOL   H24638064   5.100   0.521   4.413 -0.9873  1.6526 -1.0416
  100MOL   H24738065   5.267   0.265   4.218  2.4871 -4.4317 -1.2716
  100MOL   H24838066   5.219   0.259   4.050 -3.6374 -0.3744 -1.6092
  100MOL   C24938067   5.147   0.094   4.187  0.2460  0.1554 -0.9575
  100MOL   C25038068   5.079   0.070   4.322  0.2544  0.0473  0.0756
  100MOL   C25138069   4.965   8.062   4.325 -0.2693  0.5359 -0.0864
  100MOL   C25238070   4.923   8.029   4.453 -0.8538  0.0119 -0.2405
  100MOL   C25338071   4.997   8.070   4.568 -0.3084 -0.4319 -0.1845
  100MOL   C25438072   4.972   8.013   4.699 -0.8710 -0.0090 -0.0151
  100MOL   C25538073   5.100   0.090   4.560  0.4001  0.3026  0.2209
  100MOL   C25638074   5.137   0.135   4.433 -0.2432 -0.4293 -0.1141
  100MOL   C25738075   5.272   0.009   4.167 -0.7991 -0.4384 -0.0639
  100MOL   H25838076   5.079   0.068   4.107 -1.3978  0.1228  0.4224
  100MOL   H25938077   4.912   8.014   4.244  1.1182 -1.5532  0.2111
  100MOL   H26038078   4.844   7.957   4.465 -1.7371  0.7184 -1.6267
  100MOL   H26138079   5.047   8.043   4.772 -0.7178 -0.3437 -0.0353
  100MOL   H26238080   4.878   8.052   4.739  0.1167  0.1339  2.2347
  100MOL   H26338081   4.981   7.904   4.706  0.0650  0.1316  1.0115
  100MOL   H26438082   5.161   0.124   4.643 -1.1032 -2.2415  2.4733
  100MOL   H26538083   5.218   0.206   4.426 -0.7531  0.4934  2.7703
  100MOL   H26638084   5.333   0.033   4.254 -0.2661 -0.6799 -0.3654
  100MOL   H26738085   5.323   0.037   4.075 -1.0928 -0.1758 -0.1445
  100MOL   C26838086   5.263   7.937   4.176 -0.3862 -0.3262 -0.0443
  100MOL   C26938087   5.407   7.878   4.173 -0.2473 -0.3407 -0.0857
  100MOL   C27038088   5.488   7.896   4.056 -0.4103  0.6834 -0.3134
  100MOL   C27138089   5.619   7.845   4.057  0.4133 -0.0416  0.1522
  100MOL   C27238090   5.671   7.779   4.172 -0.0426 -0.2410 -1.1751
  100MOL   C27338091   5.807   7.709   4.171 -0.1034 -0.7916  0.0581
  100MOL   C27438092   5.599   7.768   4.291  0.0233  0.1614 -0.5688
  100MOL   C27538093   5.462   7.815   4.287 -0.4496  0.2514  0.3533
  100MOL   C27638094   5.183   7.881   4.052 -0.6595 -0.3491  1.2841
  100MOL   H27738095   5.217   7.902   4.269  0.5562 -0.2923  0.4454
  100MOL   H27838096   5.445   7.955   3.976 -0.9519  0.0205 -0.5136
  100MOL   H27938097   5.683   7.853   3.970 -0.0716  0.4430 -0.1602
  100MOL   H28038098   5.778   7.605   4.161  1.1001 -1.0751 -0.6486
  100MOL   H28138099   5.857   7.742   4.079 -0.2210 -0.2445  0.1876
  100MOL   H28238100   5.864   7.747   4.256 -0.7015  3.5226 -1.3530
  100MOL   H28338101   5.642   7.713   4.373 -2.5835 -2.0000 -0.6111
  100MOL   H28438102   5.400   7.801   4.374 -2.5167  2.3018 -0.7347
  100MOL   H28538103   5.240   7.913   3.965 -2.2029 -1.0010 -0.0096
  100MOL   H28638104   5.085   7.927   4.038 -0.8673 -1.1576 -0.0030
  100MOL   C28738105   5.172   7.729   4.047  0.0638  0.0552  0.7432
  100MOL   C28838106   5.131   7.690   3.905  0.5502 -0.7356  0.0730
  100MOL   C28938107   5.225   7.612   3.829  0.3832  0.0140 -0.8689
  100MOL   C29038108   5.188   7.568   3.698 -0.5707 -0.1230 -0.4087
  100MOL   C29138109   5.067   7.617   3.642  0.2315  0.5311  0.4717
  100MOL   C29238110   5.036   7.581   3.493  0.1320  0.8582 -0.1492
  100MOL   C29338111   4.972   7.686   3.722  0.5476  0.4696  0.6253
  100MOL   C29438112   5.006   7.719   3.852 -0.5074 -0.3522 -0.3577
  100MOL   C29538113   5.079   7.671   4.151 -0.3694 -0.3553 -0.9021
  100MOL   H29638114   5.269   7.684   4.069  0.5740  0.2801 -1.0110
  100MOL   H29738115   5.327   7.597   3.862 -0.0932  1.5742  1.4785
  100MOL   H29838116   5.252   7.509   3.634 -0.7135  0.5343 -1.1623
  100MOL   H29938117   5.043   7.675   3.439  1.1842  0.3011 -0.9875
  100MOL   H30038118   5.120   7.522   3.458 -0.9723 -1.6337  1.2373
  100MOL   H30138119   4.945   7.522   3.481  1.0003 -0.3587 -0.8505
  100MOL   H30238120   4.869   7.707   3.698  0.1058 -1.2694  0.9355
  100MOL   H30338121   4.922   7.768   3.899 -1.0393 -0.7626 -0.8646
  100MOL   H30438122   4.977   7.702   4.131 -1.1471 -0.2409  2.9255
  100MOL   H30538123   5.099   7.714   4.249 -0.3647 -0.1222 -1.0053
  100MOL   C30638124   5.091   7.520   4.156  0.0627 -0.2883  0.5132
  100MOL   C30738125   4.975   7.453   4.095 -1.0283 -0.4919 -0.0427
  100MOL   C30838126   4.998   7.386   3.977  0.1933 -0.3144  0.0134
  100MOL   C30938127   4.894   7.308   3.918  0.3379 -0.4692  0.6882
  100MOL   C31038128   4.763   7.306   3.975  0.5196  0.3184 -0.3900
  100MOL   C31138129   4.655   7.232   3.900  0.4822  0.4567  0.7202
  100MOL   C31238130   4.737   7.384   4.091 -0.3258 -0.1419  0.4656
  100MOL   C31338131   4.846   7.456   4.155  0.1743  0.3795 -0.5191
  100MOL   C31438132   5.127   7.441   4.284 -0.2169 -0.4265  0.1609
  100MOL   H31538133   5.174   7.490   4.093 -0.4988 -0.2022 -0.2702
  100MOL   H31638134   5.097   7.392   3.935  0.7449  1.6944  1.5377
  100MOL   H31738135   4.915   7.249   3.830 -0.4864 -1.2362  0.9921
  100MOL   H31838136   4.664   7.233   3.792  1.4105  0.0116  0.7924
  100MOL   H31938137   4.640   7.130   3.936 -1.6025  1.3135  2.4460
  100MOL   H32038138   4.567   7.294   3.917  1.3173  2.5221 -2.0825
  100MOL   H32138139   4.640   7.396   4.136  0.1144  4.5263  0.4311
  100MOL   H32238140   4.825   7.514   4.244 -2.4068 -0.9159 -0.2237
  100MOL   H32338141   5.085   7.340   4.282  1.6934 -1.2967  2.0696
  100MOL   H32438142   5.075   7.483   4.370 -0.2097 -0.2953  0.1005
  100MOL   C32538143   5.280   7.439   4.312 -0.1065 -0.3740 -0.0727
  100MOL   C32638144   5.353   7.364   4.199 -0.5363 -0.7927 -0.4068
  100MOL   C32738145   5.458   7.427   4.129 -0.3652 -0.4139  0.5228
  100MOL   C32838146   5.523   7.357   4.028 -0.5412  0.0104 -0.2237
  100MOL   C32938147   5.494   7.223   3.994  0.9387  0.0258  0.6089
  100MOL   C33038148   5.566   7.155   3.881 -0.2388  0.4190  0.6007
  100MOL   C33138149   5.391   7.161   4.066 -0.6246  0.7225 -0.8887
  100MOL   C33238150   5.315   7.232   4.164  0.5308 -0.3123 -0.6183
  100MOL   C33338151   5.328   7.375   4.440 -0.0156 -0.9231 -0.0772
  100MOL   H33438152   5.312   7.543   4.303 -1.3177 -0.0159 -0.2563
  100MOL   H33538153   5.503   7.521   4.157 -0.4762 -0.6092  1.3498
  100MOL   H33638154   5.611   7.404   3.987 -0.9639 -0.5588 -1.7994
  100MOL   H33738155   5.535   7.187   3.781  1.1856  0.1494  0.0591
  100MOL   H33838156   5.674   7.171   3.884 -0.2357  0.2124  1.6950
  100MOL   H33938157   5.560   7.047   3.887  0.8845  0.3520  0.5895
  100MOL   H34038158   5.372   7.058   4.041 -3.5067  1.0079 -0.0391
  100MOL   H34138159   5.230   7.187   4.214  2.5624 -1.4232  1.9702
  100MOL   H34238160   5.437   7.370   4.443  0.0098 -0.6107 -0.5416
  100MOL   H34338161   5.295   7.271   4.435 -0.1359 -0.8945  0.1390
  100MOL   C34438162   5.278   7.432   4.579  0.7247  0.7975  0.7367
  100MOL   C34538163   5.339   7.571   4.609 -0.3088 -0.2772  0.7589
  100MOL   C34638164   5.478   7.578   4.635 -0.2640  0.1406  0.0919
  100MOL   C34738165   5.538   7.707   4.656 -0.2086 -0.1152  0.7096
  100MOL   C34838166   5.455   7.825   4.654  0.7208  0.2580  0.9070
  100MOL   C34938167   5.511   7.962   4.683 -0.3243  0.3687  0.0406
  100MOL   C35038168   5.319   7.816   4.618 -0.2784 -0.7187  0.1852
  100MOL   C35138169   5.263   7.691   4.598 -0.6197 -0.1525 -0.4977
  100MOL   C35238170   5.293   7.336   4.697  0.2346  0.1418  0.0393
  100MOL   H35338171   5.176   7.457   4.549  0.3108 -0.8256  0.7405
  100MOL   H35438172   5.538   7.489   4.646  1.6392  1.3982  0.3013
  100MOL   H35538173   5.643   7.720   4.676 -0.3347  0.1054  1.2239
  100MOL   H35638174   5.523   8.012   4.587  1.0713 -0.8535 -0.4431
  100MOL   H35738175   5.458   8.031   4.749 -0.5557 -1.4891  1.8673
  100MOL   H35838176   5.613   7.964   4.723 -0.8358 -0.5777  1.4456
  100MOL   H35938177   5.263   7.908   4.625  0.8485 -0.0419  0.4685
  100MOL   H36038178   5.160   7.684   4.568 -1.2457  1.1440  1.2310
  100MOL   H36138179   5.394   7.296   4.704  0.2683  0.1019 -0.7031
  100MOL   H36238180   5.227   7.251   4.681  1.1115 -0.1566 -2.1409
  100MOL   C36338181   5.238   7.395   4.832  0.0768 -0.1015 -0.2034
  100MOL   C36438182   5.278   7.320   4.963 -0.3293 -0.4672 -0.0331
  100MOL   C36538183   5.296   7.389   5.085  0.1458  0.4983 -0.1013
  100MOL   C36638184   5.331   7.329   5.203 -0.1790  0.3647  0.8422
  100MOL   C36738185   5.338   7.192   5.213  0.1298 -0.2566  0.0337
  100MOL   C36838186   5.369   7.119   5.336  0.1393  0.6363 -0.2320
  100MOL   C36938187   5.304   7.118   5.098  0.3645 -0.2628  1.1230
  100MOL   C37038188   5.272   7.182   4.979 -1.1087 -0.5485 -0.1294
  100MOL   C37138189   5.082   7.406   4.817 -0.4314  0.5354 -0.1395
  100MOL   H37238190   5.257   7.501   4.850  0.2224 -0.4178  1.5535
  100MOL   H37338191   5.285   7.497   5.083  1.2427  0.6516  1.2359
  100MOL   H37438192   5.352   7.398   5.284  0.9138  1.8586 -0.6652
  100MOL   H37538193   5.280   7.070   5.375 -0.2361  1.8762  0.4875
  100MOL   H37638194   5.438   7.035   5.322  0.9950  1.0011  1.5933
  100MOL   H37738195   5.416   7.176   5.416 -0.7725  0.2110  0.6037
  100MOL   H37838196   5.313   7.011   5.108  0.8450 -0.3138  0.1446
  100MOL   H37938197   5.239   7.119   4.897  2.0005 -0.8934 -1.1968
  100MOL   H38038198   5.038   7.438   4.912  0.4692  0.8475  0.1810
  100MOL   H38138199   5.038   7.307   4.803  0.6088 -0.1645  1.4246
  100MOL   H38238200   5.055   7.472   4.735  0.6461  0.5342 -0.5049
  101MOL     C138201   1.765   0.945   2.169 -0.3886 -0.3383 -0.1093
  101MOL     C238202   1.767   1.034   2.283  0.3690 -0.3372 -0.0399
  101MOL     C338203   1.782   1.174   2.264 -0.2527  0.0203 -0.1046
  101MOL     C438204   1.777   1.267   2.374  0.4316  0.2971  0.6012
  101MOL     C538205   1.754   1.216   2.500  0.0392 -0.5207 -1.0098
  101MOL     C638206   1.739   1.313   2.615 -0.5075  0.0384  0.1380
  101MOL     C738207   1.739   1.078   2.523 -0.3277  0.1262  0.8016
  101MOL     C838208   1.748   0.987   2.416  0.0657  0.5090  0.2376
  101MOL     C938209   1.887   0.851   2.163 -0.2871  0.6437  0.7378
  101MOL    H1038210   1.673   0.887   2.178 -1.8532  1.9752  0.4544
  101MOL    H1138211   1.786   1.204   2.160 -1.7800 -0.0598 -0.1924
  101MOL    H1238212   1.770   1.374   2.360 -0.1629  0.2037  0.1489
  101MOL    H1338213   1.663   1.383   2.581 -0.3283  0.1366 -0.0601
  101MOL    H1438214   1.708   1.271   2.711 -1.1572  0.1048 -0.0374
  101MOL    H1538215   1.826   1.376   2.629  1.6595 -2.6367 -0.8542
  101MOL    H1638216   1.728   1.040   2.624 -0.5192 -1.8288  0.0751
  101MOL    H1738217   1.728   0.881   2.430  0.3595  0.6510  1.7963
  101MOL    H1838218   1.874   0.776   2.240 -0.1221  0.4464  0.5732
  101MOL    H1938219   1.974   0.903   2.204  1.2153 -1.1195 -0.1289
  101MOL    H2038220   1.754   1.009   2.081  2.2860 -0.5986 -0.6522
  101MOL    C2138221   1.930   0.791   2.032  0.1531 -0.3999  0.2218
  101MOL    C2238222   1.987   0.655   2.065  0.4326 -0.2643  0.4765
  101MOL    C2338223   1.946   0.547   1.981 -0.2944 -0.0542 -0.5789
  101MOL    C2438224   2.010   0.417   1.983 -0.0497 -0.2563 -0.1881
  101MOL    C2538225   2.109   0.405   2.084  0.0204 -0.2680  0.2555
  101MOL    C2638226   2.195   0.278   2.094  0.3158 -0.2855 -0.2321
  101MOL    C2738227   2.155   0.505   2.167 -0.2767 -0.1425  0.3830
  101MOL    C2838228   2.101   0.636   2.149  0.2728 -0.4481  0.0819
  101MOL    C2938229   2.031   0.887   1.965 -0.0837  0.1155 -0.0482
  101MOL    H3038230   1.851   0.794   1.958  1.7590  1.3987 -1.4908
  101MOL    H3138231   1.859   0.565   1.920  0.2778  0.6218 -1.2191
  101MOL    H3238232   1.985   0.335   1.917 -0.9865 -1.3014  1.4306
  101MOL    H3338233   2.158   0.187   2.141 -0.0743  0.1331  0.2667
  101MOL    H3438234   2.221   0.254   1.991 -0.9534 -1.4442 -0.3008
  101MOL    H3538235   2.293   0.309   2.129  0.6598  0.0065 -1.4448
  101MOL    H3638236   2.236   0.482   2.235  1.4417 -0.2042 -1.6037
  101MOL    H3738237   2.141   0.713   2.214  2.3139 -1.3230 -0.0934
  101MOL    H3838238   2.126   0.893   2.018 -1.2154 -1.4656  2.2855
  101MOL    H3938239   1.974   0.979   1.973  1.0543  0.5503  4.4687
  101MOL    C4038240   2.047   0.849   1.809 -0.0668  0.0603 -0.3162
  101MOL    C4138241   2.154   0.742   1.792 -0.1168  0.2861 -0.0172
  101MOL    C4238242   2.286   0.761   1.842  0.3233  0.7464 -0.0063
  101MOL    C4338243   2.382   0.656   1.819  0.5783 -0.5810 -0.5546
  101MOL    C4438244   2.340   0.533   1.754 -0.5206 -0.1384  0.2357
  101MOL    C4538245   2.435   0.415   1.732 -0.4365 -0.0954 -0.6244
  101MOL    C4638246   2.202   0.518   1.703 -0.9834  0.3703  0.0765
  101MOL    C4738247   2.116   0.624   1.724 -0.0068  0.6103  0.1866
  101MOL    C4838248   2.093   0.965   1.730  0.1290  0.3315 -0.1192
  101MOL    H4938249   1.957   0.807   1.764 -0.0198  0.3641 -0.6991
  101MOL    H5038250   2.320   0.855   1.882 -2.2069  1.6557  0.1137
  101MOL    H5138251   2.487   0.676   1.837  1.0682 -1.3803 -2.4159
  101MOL    H5238252   2.369   0.331   1.754 -2.9134  1.6119 -1.2270
  101MOL    H5338253   2.477   0.421   1.632  3.3171 -1.9117  0.7506
  101MOL    H5438254   2.521   0.425   1.798 -0.2894  0.8915 -0.9593
  101MOL    H5538255   2.163   0.431   1.652  2.9386  0.8380 -3.9737
  101MOL    H5638256   2.018   0.617   1.680 -0.1721  2.2717  0.2834
  101MOL    H5738257   2.143   0.933   1.638 -0.9396 -2.2296  0.1456
  101MOL    H5838258   2.170   1.018   1.785 -0.0262 -0.7530  1.1769
  101MOL    C5938259   1.987   1.070   1.700 -0.4247 -0.9236  0.2173
  101MOL    C6038260   1.857   1.012   1.654 -0.2209 -0.4329 -0.8722
  101MOL    C6138261   1.852   0.960   1.525 -0.4744 -0.2961  0.4220
  101MOL    C6238262   1.732   0.902   1.476  0.1871  0.2751  0.3571
  101MOL    C6338263   1.619   0.886   1.566 -0.0396  0.1854 -1.0310
  101MOL    C6438264   1.490   0.826   1.518 -0.2556 -0.2309 -0.8251
  101MOL    C6538265   1.629   0.943   1.698 -0.2082 -0.0916  0.3231
  101MOL    C6638266   1.747   1.000   1.744  0.1129  0.4371 -0.4893
  101MOL    C6738267   2.042   1.184   1.613  0.0924 -0.1105 -0.0050
  101MOL    H6838268   1.972   1.120   1.796 -2.7631  1.3532 -1.2611
  101MOL    H6938269   1.934   0.960   1.454 -0.5653  2.3734  0.2814
  101MOL    H7038270   1.725   0.870   1.373  0.5393 -2.1356  1.0385
  101MOL    H7138271   1.505   0.739   1.453 -1.7971 -0.7309 -0.5383
  101MOL    H7238272   1.418   0.797   1.595  0.5573  0.0856  0.0719
  101MOL    H7338273   1.441   0.902   1.459 -0.9230 -0.9409 -1.1935
  101MOL    H7438274   1.542   0.951   1.762  0.4593 -0.0781  1.2342
  101MOL    H7538275   1.758   1.041   1.843 -0.1554  1.1182 -0.7406
  101MOL    H7638276   1.964   1.257   1.592  0.7840  0.5167 -0.4050
  101MOL    H7738277   2.067   1.145   1.515 -2.8929  1.1387 -1.3194
  101MOL    C7838278   2.167   1.269   1.661  0.1487  0.1254 -0.3094
  101MOL    C7938279   2.139   1.318   1.806 -0.1044 -0.3583  0.2786
  101MOL    C8038280   2.223   1.266   1.906  0.4264  0.2447  0.5548
  101MOL    C8138281   2.202   1.299   2.045  0.3357  0.5276 -0.5870
  101MOL    C8238282   2.094   1.390   2.073  0.1964 -0.3563  0.3066
  101MOL    C8338283   2.074   1.428   2.219 -0.6322 -0.2322 -0.0837
  101MOL    C8438284   2.019   1.447   1.972 -0.3212 -1.1252  0.1155
  101MOL    C8538285   2.042   1.417   1.839 -0.6320 -0.8293 -0.1556
  101MOL    C8638286   2.201   1.385   1.568  0.3039  0.0252 -0.1252
  101MOL    H8738287   2.254   1.205   1.654 -0.5017 -0.8998  0.6968
  101MOL    H8838288   2.301   1.197   1.877  2.4019  2.2350  1.0026
  101MOL    H8938289   2.266   1.264   2.124 -2.7403 -1.2207  1.1901
  101MOL    H9038290   2.069   1.334   2.275 -0.4500 -0.6896 -0.8361
  101MOL    H9138291   2.161   1.476   2.264 -1.1391  2.0380 -1.4963
  101MOL    H9238292   1.978   1.474   2.240 -0.7968 -1.4153  1.8863
  101MOL    H9338293   1.932   1.506   1.996  0.8525  0.5932  0.1649
  101MOL    H9438294   1.970   1.455   1.768  1.9015  1.1761 -1.7216
  101MOL    H9538295   2.115   1.448   1.544  0.9814  0.2185 -2.1950
  101MOL    H9638296   2.224   1.349   1.467 -0.3991 -1.3663  0.2055
  101MOL    C9738297   2.316   1.474   1.622 -0.0887 -0.2784  0.4247
  101MOL    C9838298   2.334   1.603   1.541 -0.2385  0.2843  0.7951
  101MOL    C9938299   2.398   1.593   1.419 -0.8365  0.3083 -0.5092
  101MOL   C10038300   2.450   1.701   1.346 -0.1079 -0.3239 -0.3397
  101MOL   C10138301   2.427   1.832   1.397 -0.2799 -0.1170 -0.1305
  101MOL   C10238302   2.470   1.951   1.316 -0.3609 -0.4255  0.7268
  101MOL   C10338303   2.367   1.846   1.526 -0.3379 -0.1870 -0.1009
  101MOL   C10438304   2.329   1.729   1.602 -0.7241  0.0654  0.2720
  101MOL   C10538305   2.444   1.394   1.643  0.2866 -0.1169 -0.3622
  101MOL   H10638306   2.283   1.510   1.720  0.0586  2.6374 -0.5240
  101MOL   H10738307   2.427   1.493   1.389  1.1551  0.8136 -0.3233
  101MOL   H10838308   2.500   1.691   1.251  1.4268  0.2670  0.3769
  101MOL   H10938309   2.443   1.932   1.212 -1.1317  1.7652  0.5066
  101MOL   H11038310   2.402   2.034   1.335 -0.2755 -0.1124 -0.3149
  101MOL   H11138311   2.575   1.981   1.316 -0.3503 -0.3926 -1.3548
  101MOL   H11238312   2.339   1.946   1.555 -2.0512  0.0810 -2.4858
  101MOL   H11338313   2.273   1.732   1.694 -0.7383 -0.4515  0.2816
  101MOL   H11438314   2.464   1.317   1.569 -1.0924 -1.9657  1.1429
  101MOL   H11538315   2.426   1.338   1.734 -0.6478  0.4399 -0.1937
  101MOL   C11638316   2.579   1.470   1.666  0.2014  0.0489  0.0974
  101MOL   C11738317   2.661   1.505   1.539  0.3884 -0.5288  0.2213
  101MOL   C11838318   2.690   1.641   1.519 -0.1925  0.0413  0.2394
  101MOL   C11938319   2.793   1.682   1.427  0.1360  0.2049  0.6307
  101MOL   C12038320   2.848   1.585   1.344 -0.0029 -0.4637  0.2638
  101MOL   C12138321   2.958   1.617   1.244 -0.0895  0.1559 -0.5210
  101MOL   C12238322   2.812   1.453   1.355  0.0561  0.3271  0.3704
  101MOL   C12338323   2.723   1.410   1.458  0.2635  0.1536  0.3474
  101MOL   C12438324   2.670   1.397   1.767 -0.1391 -0.0501 -0.1397
  101MOL   H12538325   2.551   1.564   1.715  0.1001 -0.4125  0.9326
  101MOL   H12638326   2.644   1.720   1.576  0.5396  0.5672  0.1075
  101MOL   H12738327   2.825   1.784   1.413 -0.2850  0.1790 -0.6452
  101MOL   H12838328   3.017   1.533   1.207  1.3680  0.2285  1.5902
  101MOL   H12938329   2.902   1.643   1.154 -0.9292 -0.8580 -0.3045
  101MOL   H13038330   3.017   1.702   1.277 -1.5742  0.5229  1.2471
  101MOL   H13138331   2.850   1.368   1.300  0.5759  0.5270  0.4227
  101MOL   H13238332   2.687   1.310   1.476 -0.3222  0.2558 -0.2039
  101MOL   H13338333   2.707   1.304   1.725 -0.0802 -1.2072  2.3948
  101MOL   H13438334   2.606   1.365   1.849  1.6412 -1.3114  0.7990
  101MOL   C13538335   2.789   1.482   1.818  0.0912  0.2423 -0.1306
  101MOL   C13638336   2.924   1.425   1.776  0.3763 -0.0432  0.1303
  101MOL   C13738337   2.996   1.476   1.666 -0.6139 -0.4950  0.2747
  101MOL   C13838338   3.117   1.413   1.640  0.0043  0.0481 -0.2040
  101MOL   C13938339   3.174   1.306   1.716 -0.2517 -0.0662 -0.0115
  101MOL   C14038340   3.315   1.258   1.691 -0.2534 -0.0623  0.8078
  101MOL   C14138341   3.095   1.256   1.813  0.1043 -0.1880  0.5103
  101MOL   C14238342   2.972   1.319   1.847 -0.3364  0.2592  1.0453
  101MOL   C14338343   2.790   1.516   1.971  0.0661 -0.4752 -0.0930
  101MOL   H14438344   2.785   1.577   1.764 -0.0268 -0.1514 -0.8235
  101MOL   H14538345   2.940   1.548   1.608 -2.4804 -2.1240  0.0018
  101MOL   H14638346   3.171   1.462   1.559  2.1185  1.1813  1.8291
  101MOL   H14738347   3.315   1.155   1.654 -0.6782 -0.2461  1.3149
  101MOL   H14838348   3.376   1.323   1.629 -0.8534 -1.4317 -1.2656
  101MOL   H14938349   3.370   1.258   1.785 -2.2868  1.1460  2.0452
  101MOL   H15038350   3.133   1.176   1.875 -0.3988 -0.0029  1.0729
  101MOL   H15138351   2.911   1.272   1.923  1.5294 -3.6518  0.1971
  101MOL   H15238352   2.868   1.591   1.981  0.5636 -0.5845 -2.9172
  101MOL   H15338353   2.837   1.431   2.023 -0.4537 -0.9644 -0.4201
  101MOL   C15438354   2.659   1.565   2.033  0.4916  0.0444  0.1234
  101MOL   C15538355   2.603   1.689   1.972  0.6712 -0.5358 -0.2677
  101MOL   C15638356   2.680   1.803   1.958 -0.0495 -0.0698 -0.8076
  101MOL   C15738357   2.626   1.930   1.920 -0.0673  0.2389  0.3932
  101MOL   C15838358   2.487   1.940   1.908  0.1586 -0.4977  0.1730
  101MOL   C15938359   2.417   2.076   1.873  1.1275 -0.1372  0.3073
  101MOL   C16038360   2.402   1.825   1.916  0.4837  0.1102  1.1016
  101MOL   C16138361   2.461   1.700   1.941 -0.7919  0.6229  0.4233
  101MOL   C16238362   2.675   1.591   2.185  0.5540  0.1995 -0.5688
  101MOL   H16338363   2.589   1.482   2.033 -0.0759  0.5177 -0.4699
  101MOL   H16438364   2.782   1.794   1.993 -1.3986 -2.8965  2.7255
  101MOL   H16538365   2.682   2.022   1.912 -0.5041  0.4333 -0.4158
  101MOL   H16638366   2.482   2.163   1.883  1.0224  0.0491 -0.5972
  101MOL   H16738367   2.385   2.082   1.769  1.6244  1.6907  0.2349
  101MOL   H16838368   2.329   2.093   1.934 -1.2012  0.2848 -3.0512
  101MOL   H16938369   2.298   1.828   1.887  0.6317 -0.7995  0.4247
  101MOL   H17038370   2.402   1.610   1.950  0.9715 -0.6812 -0.6638
  101MOL   H17138371   2.582   1.636   2.221  0.6967 -0.8985  1.2279
  101MOL   H17238372   2.745   1.674   2.190  2.5662 -1.4700 -0.2938
  101MOL   C17338373   2.716   1.478   2.279 -0.5151  0.1524 -0.0745
  101MOL   C17438374   2.621   1.364   2.292 -0.1747  0.3166  0.1978
  101MOL   C17538375   2.646   1.226   2.260  1.0100  0.3391 -0.5566
  101MOL   C17638376   2.554   1.126   2.294  0.0720  0.8437 -0.4270
  101MOL   C17738377   2.424   1.156   2.343 -0.2964  0.2805 -0.2100
  101MOL   C17838378   2.336   1.040   2.374 -0.1257 -0.1373 -0.0734
  101MOL   C17938379   2.394   1.292   2.365 -0.0236 -0.0942  0.2464
  101MOL   C18038380   2.489   1.391   2.342 -0.2828 -0.0571  0.4636
  101MOL   C18138381   2.765   1.535   2.412 -0.0183  0.2311 -0.5924
  101MOL   H18238382   2.800   1.423   2.237  1.9375  2.1821  1.9910
  101MOL   H18338383   2.737   1.190   2.214 -0.1005 -4.5578  0.7496
  101MOL   H18438384   2.587   1.023   2.282  0.8350  1.0033  0.2719
  101MOL   H18538385   2.279   1.008   2.287 -1.7102  2.6127 -0.1054
  101MOL   H18638386   2.386   0.962   2.431  1.1029  0.3367 -0.4707
  101MOL   H18738387   2.264   1.085   2.442  0.4205  1.2786 -0.4066
  101MOL   H18838388   2.294   1.309   2.403 -0.1362 -1.0815  0.4087
  101MOL   H18938389   2.472   1.496   2.365  1.1417  0.2663  0.0879
  101MOL   H19038390   2.814   1.454   2.467 -1.2541 -0.3223 -0.2906
  101MOL   H19138391   2.684   1.570   2.476 -1.1273 -0.5821 -1.5346
  101MOL   C19238392   2.884   1.644   2.418 -0.0981 -0.2945  0.1228
  101MOL   C19338393   2.987   1.614   2.310  0.0721 -0.6883  0.4619
  101MOL   C19438394   3.034   1.718   2.223  0.4657 -0.1453  0.0361
  101MOL   C19538395   3.131   1.685   2.125 -0.3307 -0.5494 -0.2502
  101MOL   C19638396   3.192   1.557   2.118  0.0590 -0.0912 -0.1990
  101MOL   C19738397   3.307   1.536   2.022  0.4497  1.3448 -0.2958
  101MOL   C19838398   3.154   1.460   2.210 -1.5141 -0.2085 -0.2084
  101MOL   C19938399   3.053   1.490   2.305  0.3412 -0.4162 -0.0532
  101MOL   C20038400   2.960   1.656   2.556  0.9746 -0.5510  0.7452
  101MOL   H20138401   2.839   1.742   2.400 -0.1125  0.0341  1.8322
  101MOL   H20238402   2.994   1.815   2.246  2.2891  0.0379  2.5845
  101MOL   H20338403   3.159   1.761   2.053 -1.2490 -1.8233 -2.0008
  101MOL   H20438404   3.316   1.433   1.988 -1.9464  1.3387 -1.0087
  101MOL   H20538405   3.298   1.594   1.930 -2.7183 -1.7889 -2.0577
  101MOL   H20638406   3.395   1.570   2.076  0.7509 -0.9098  0.7104
  101MOL   H20738407   3.196   1.361   2.210 -1.0198  0.0009 -0.0474
  101MOL   H20838408   3.019   1.413   2.372  2.0657 -0.2601  1.0139
  101MOL   H20938409   2.972   1.554   2.593  0.4412 -1.0677 -0.4835
  101MOL   H21038410   2.897   1.707   2.629 -0.5323  0.4958 -1.2597
  101MOL   C21138411   3.098   1.731   2.562 -0.3643 -0.0407  0.3598
  101MOL   C21238412   3.207   1.644   2.633  0.4639 -0.5385 -0.5257
  101MOL   C21338413   3.306   1.587   2.564 -0.9314  0.9665  0.0155
  101MOL   C21438414   3.392   1.486   2.619 -0.3409  0.1427 -0.4590
  101MOL   C21538415   3.374   1.443   2.751  0.8520 -0.0317  0.2959
  101MOL   C21638416   3.476   1.347   2.823 -0.6968  1.1079  0.3454
  101MOL   C21738417   3.269   1.501   2.827  0.4792 -0.2747  0.4041
  101MOL   C21838418   3.192   1.607   2.770 -0.4067 -0.6486 -0.6232
  101MOL   C21938419   3.080   1.880   2.624 -0.3456  0.0276 -0.4224
  101MOL   H22038420   3.139   1.752   2.463 -1.2596  0.5644  0.1155
  101MOL   H22138421   3.333   1.617   2.463 -0.9902 -2.3767 -1.0646
  101MOL   H22238422   3.474   1.445   2.562  1.4126  2.8444  0.0498
  101MOL   H22338423   3.536   1.293   2.750 -0.4725  0.3146  1.1200
  101MOL   H22438424   3.540   1.395   2.897 -0.3837 -0.7187  1.2744
  101MOL   H22538425   3.426   1.271   2.882  1.7695 -2.0628 -1.5056
  101MOL   H22638426   3.255   1.467   2.929 -1.1526 -0.7299  0.0355
  101MOL   H22738427   3.104   1.642   2.821 -0.3046 -0.9480 -0.2344
  101MOL   H22838428   3.032   1.889   2.721 -0.1956 -1.5025 -0.1921
  101MOL   H22938429   3.016   1.936   2.556 -3.1753 -0.5067  1.7348
  101MOL   C23038430   3.215   1.961   2.636  0.4794 -0.1675 -0.6248
  101MOL   C23138431   3.269   1.975   2.782  0.9690  0.3867  0.7222
  101MOL   C23238432   3.198   2.044   2.879  0.4769  0.0079  0.6622
  101MOL   C23338433   3.240   2.043   3.011  0.3856  0.7034  0.1810
  101MOL   C23438434   3.360   1.986   3.044  0.0180  0.4009  0.2099
  101MOL   C23538435   3.402   1.957   3.190  0.4367 -0.6897 -0.2333
  101MOL   C23638436   3.429   1.915   2.948 -0.8206  0.0069 -0.0712
  101MOL   C23738437   3.386   1.901   2.813 -0.3791 -0.4851 -0.8214
  101MOL   C23838438   3.201   2.098   2.562 -0.2461  0.3327  0.1433
  101MOL   H23938439   3.288   1.906   2.576 -0.5174 -2.0716 -0.1540
  101MOL   H24038440   3.104   2.090   2.849 -0.1534 -1.9865 -0.4513
  101MOL   H24138441   3.187   2.092   3.091 -2.7458  1.3298 -2.1779
  101MOL   H24238442   3.417   2.052   3.241 -0.6542 -0.8480  0.3966
  101MOL   H24338443   3.328   1.895   3.241 -0.1060 -0.7154 -1.0381
  101MOL   H24438444   3.501   1.913   3.202  0.0472 -1.3390  0.6417
  101MOL   H24538445   3.517   1.858   2.971  1.0093  2.1769 -1.5128
  101MOL   H24638446   3.439   1.826   2.755 -1.7093 -1.0574 -1.3263
  101MOL   H24738447   3.277   2.168   2.596 -0.0590  0.0501  0.3093
  101MOL   H24838448   3.110   2.149   2.594  0.9705  1.6518  1.5780
  101MOL   C24938449   3.210   2.099   2.407 -0.0511  0.3220  0.2404
  101MOL   C25038450   3.335   2.035   2.353  0.1675  0.8457 -0.2045
  101MOL   C25138451   3.469   2.074   2.397  0.1943 -0.0373 -0.0890
  101MOL   C25238452   3.586   2.017   2.351  1.2100  0.2232 -0.6632
  101MOL   C25338453   3.575   1.913   2.254  0.0613 -0.4582  0.4844
  101MOL   C25438454   3.699   1.856   2.183  0.3302 -0.1426 -0.7453
  101MOL   C25538455   3.447   1.868   2.213  0.3188 -0.6366  0.0804
  101MOL   C25638456   3.328   1.927   2.260 -0.9141  0.4764  0.3574
  101MOL   C25738457   3.185   2.222   2.331 -0.3705 -0.2754 -0.4283
  101MOL   H25838458   3.132   2.026   2.385 -1.3022  1.7050  0.0262
  101MOL   H25938459   3.467   2.159   2.464 -1.5886 -0.4471  0.4047
  101MOL   H26038460   3.682   2.061   2.371  0.3607  1.8146 -0.0267
  101MOL   H26138461   3.683   1.763   2.129 -0.4641 -0.0298 -0.7022
  101MOL   H26238462   3.712   1.927   2.102 -0.5191  0.0911 -0.6743
  101MOL   H26338463   3.784   1.842   2.251  1.1845 -0.4757 -1.8663
  101MOL   H26438464   3.434   1.794   2.135  0.0478 -0.0532 -0.4294
  101MOL   H26538465   3.232   1.896   2.221 -0.0108 -0.5681 -1.0983
  101MOL   H26638466   3.189   2.210   2.223 -0.3949  0.0170 -0.4627
  101MOL   H26738467   3.270   2.284   2.359  0.8322 -1.5315 -1.1923
  101MOL   C26838468   3.052   2.298   2.362 -0.0317 -0.4916 -0.5138
  101MOL   C26938469   2.928   2.210   2.360  0.3314  0.7664 -0.1762
  101MOL   C27038470   2.819   2.228   2.445 -0.3549 -0.8441 -0.3502
  101MOL   C27138471   2.705   2.144   2.444 -1.2045  1.0480 -0.3142
  101MOL   C27238472   2.703   2.032   2.353  0.3359 -0.1753 -0.7297
  101MOL   C27338473   2.584   1.938   2.342  0.7983  0.2792  0.3929
  101MOL   C27438474   2.811   2.014   2.262 -0.2724 -0.4352 -0.1435
  101MOL   C27538475   2.914   2.107   2.269 -0.4717  0.4857  0.4330
  101MOL   C27638476   3.030   2.417   2.265 -0.8926  0.1521 -0.3429
  101MOL   H27738477   3.059   2.345   2.461 -0.1575 -0.4864 -0.5080
  101MOL   H27838478   2.827   2.310   2.515  0.7486  0.4840 -1.9899
  101MOL   H27938479   2.621   2.179   2.502  0.3378  4.0091  0.2166
  101MOL   H28038480   2.600   1.831   2.351 -2.0826 -0.1834  0.4873
  101MOL   H28138481   2.518   1.955   2.428  1.2097 -3.4642  1.5286
  101MOL   H28238482   2.527   1.954   2.250 -0.2570 -2.4933  0.5128
  101MOL   H28338483   2.811   1.935   2.190 -0.9784 -1.8748  1.3922
  101MOL   H28438484   3.003   2.076   2.216 -1.3081 -0.2022 -0.5938
  101MOL   H28538485   2.922   2.431   2.261 -1.1361 -0.8200  2.0901
  101MOL   H28638486   3.057   2.388   2.163  0.8080  1.5159 -0.3038
  101MOL   C28738487   3.091   2.564   2.300  0.0306  0.2468  0.0729
  101MOL   C28838488   3.067   2.596   2.448 -0.2723  0.3194  1.0139
  101MOL   C28938489   3.177   2.586   2.534 -0.4435  0.0879  0.0008
  101MOL   C29038490   3.156   2.599   2.669 -0.8130  0.4183  0.5956
  101MOL   C29138491   3.027   2.628   2.720  0.1785  0.0453  0.6805
  101MOL   C29238492   3.002   2.650   2.866 -0.1981  0.2666  0.3259
  101MOL   C29338493   2.915   2.650   2.637  0.3225  0.2199  0.3544
  101MOL   C29438494   2.934   2.615   2.500 -0.5969  0.1890 -0.1708
  101MOL   C29538495   3.030   2.667   2.202  0.9712 -0.4287 -0.1962
  101MOL   H29638496   3.199   2.557   2.287  0.2295  2.6154  0.2696
  101MOL   H29738497   3.275   2.548   2.507 -0.1064 -0.2531  1.6264
  101MOL   H29838498   3.239   2.582   2.737 -1.1348 -1.1244  0.6298
  101MOL   H29938499   2.980   2.554   2.914 -3.6360  0.6231 -0.4171
  101MOL   H30038500   3.084   2.699   2.919 -1.1379  1.1219  1.0290
  101MOL   H30138501   2.917   2.716   2.882  0.3995  1.5564 -1.6508
  101MOL   H30238502   2.818   2.680   2.673  0.0564 -1.4848  1.1223
  101MOL   H30338503   2.857   2.621   2.425  1.6636  0.6380 -2.4958
  101MOL   H30438504   2.922   2.648   2.205  0.5553  1.7334  0.1308
  101MOL   H30538505   3.055   2.644   2.099  1.0431  0.5057 -0.3927
  101MOL   C30638506   3.068   2.815   2.221 -0.6717 -0.3437 -0.3823
  101MOL   C30738507   2.965   2.909   2.167  0.0730 -0.0347 -0.1795
  101MOL   C30838508   2.931   2.913   2.033  0.6761 -0.3152 -0.5605
  101MOL   C30938509   2.838   3.009   1.984  0.2927  0.8192 -0.3837
  101MOL   C31038510   2.779   3.105   2.071  0.2200  0.0098 -0.1408
  101MOL   C31138511   2.681   3.206   2.017 -0.6057 -0.7067 -0.8213
  101MOL   C31238512   2.824   3.105   2.204  0.0103 -0.3756  0.2403
  101MOL   C31338513   2.917   3.011   2.250 -0.0168 -0.0301  0.1191
  101MOL   C31438514   3.214   2.841   2.178  0.0062 -0.5849  0.3981
  101MOL   H31538515   3.071   2.826   2.330 -1.6195 -0.9904 -0.2843
  101MOL   H31638516   2.974   2.844   1.961 -0.5430 -1.1247 -0.5349
  101MOL   H31738517   2.812   3.010   1.879 -2.8207 -2.8018  0.2476
  101MOL   H31838518   2.683   3.214   1.909  1.0684 -0.5366 -0.8018
  101MOL   H31938519   2.582   3.186   2.058  0.2215 -0.3528  1.4655
  101MOL   H32038520   2.715   3.300   2.061 -0.3974 -1.1033 -0.1340
  101MOL   H32138521   2.788   3.179   2.274  0.4062  1.6230 -1.6034
  101MOL   H32238522   2.935   3.024   2.355 -3.0222  1.4984  0.4938
  101MOL   H32338523   3.224   2.811   2.073 -1.0534 -0.6998  0.3220
  101MOL   H32438524   3.285   2.782   2.236  0.3844  0.9177  1.4707
  101MOL   C32538525   3.261   2.985   2.185 -0.1389 -0.4065 -0.1939
  101MOL   C32638526   3.389   3.005   2.100  0.0652  0.0040 -0.5586
  101MOL   C32738527   3.377   3.064   1.974 -0.2720  0.6629  0.1222
  101MOL   C32838528   3.498   3.094   1.906  0.1362  0.6083  0.5981
  101MOL   C32938529   3.621   3.066   1.960 -0.0236 -0.2340  0.2953
  101MOL   C33038530   3.748   3.111   1.882 -0.3139  0.0407  0.0397
  101MOL   C33138531   3.633   3.010   2.087 -0.8171  0.2349 -0.0431
  101MOL   C33238532   3.522   2.976   2.160  1.3718  0.0705  0.0221
  101MOL   C33338533   3.280   3.025   2.336 -0.2093 -0.7441 -0.3817
  101MOL   H33438534   3.183   3.049   2.143 -0.4937 -0.5557  0.2315
  101MOL   H33538535   3.283   3.083   1.925 -0.2231  2.3590  0.6387
  101MOL   H33638536   3.498   3.132   1.805 -0.3456 -2.8951 -0.8077
  101MOL   H33738537   3.783   3.208   1.917 -1.5811  1.5488 -2.6926
  101MOL   H33838538   3.827   3.039   1.907 -0.2266 -0.3095 -1.2019
  101MOL   H33938539   3.730   3.129   1.776 -0.0513 -0.5596 -0.1083
  101MOL   H34038540   3.729   2.973   2.122 -1.3635  0.0727  1.3326
  101MOL   H34138541   3.537   2.936   2.259 -1.7366 -2.5058 -0.4630
  101MOL   H34238542   3.355   2.962   2.384  0.8166 -0.6023 -1.7605
  101MOL   H34338543   3.191   2.999   2.394  1.4834 -2.6525  1.4434
  101MOL   C34438544   3.331   3.173   2.360 -0.3840 -0.4350 -0.7066
  101MOL   C34538545   3.370   3.187   2.507  0.2887 -0.3854 -0.4940
  101MOL   C34638546   3.487   3.250   2.547  0.2526 -0.2988 -0.1328
  101MOL   C34738547   3.526   3.258   2.684  0.6536 -0.4239 -0.0378
  101MOL   C34838548   3.444   3.195   2.778  0.0887  0.2596  0.0632
  101MOL   C34938549   3.494   3.210   2.917  0.2754  0.0900 -0.3053
  101MOL   C35038550   3.317   3.145   2.740 -0.6321 -0.7053  0.7374
  101MOL   C35138551   3.274   3.146   2.603  0.0618 -0.0603 -0.3589
  101MOL   C35238552   3.221   3.269   2.322 -0.7090 -0.0637 -0.1898
  101MOL   H35338553   3.418   3.196   2.299  0.2299 -1.7125 -0.3494
  101MOL   H35438554   3.553   3.300   2.477  0.7764 -2.2415 -1.0923
  101MOL   H35538555   3.618   3.307   2.710  0.1561  0.9543 -0.7718
  101MOL   H35638556   3.565   3.132   2.945 -0.8774 -1.4953 -1.7409
  101MOL   H35738557   3.547   3.304   2.930  2.2931 -1.1959  1.1214
  101MOL   H35838558   3.405   3.197   2.980 -0.5519 -1.4917 -1.7670
  101MOL   H35938559   3.247   3.113   2.814 -1.5377 -0.3977  0.0256
  101MOL   H36038560   3.175   3.112   2.576 -0.0677  0.5437 -0.6431
  101MOL   H36138561   3.218   3.352   2.393  0.4748 -0.6408  0.5556
  101MOL   H36238562   3.124   3.219   2.316 -0.3072 -0.8648 -0.0204
  101MOL   C36338563   3.245   3.336   2.192 -0.8672 -0.7011 -0.4814
  101MOL   C36438564   3.353   3.442   2.211  0.0215 -0.3212 -0.0962
  101MOL   C36538565   3.475   3.425   2.143 -0.3173 -0.3857 -0.5767
  101MOL   C36638566   3.573   3.526   2.150  0.2745  0.1488 -0.1155
  101MOL   C36738567   3.555   3.636   2.233  0.4105 -0.4180 -0.3343
  101MOL   C36838568   3.661   3.743   2.233 -0.4496 -0.4285  0.0292
  101MOL   C36938569   3.431   3.657   2.293  0.2848 -0.0201 -0.7980
  101MOL   C37038570   3.329   3.560   2.281 -0.1383  0.0442 -0.4044
  101MOL   C37138571   3.116   3.403   2.137  0.0885 -0.5596 -0.3298
  101MOL   H37238572   3.280   3.269   2.114  1.5708 -0.0079 -0.0548
  101MOL   H37338573   3.492   3.333   2.089  0.8149 -0.7131  0.3096
  101MOL   H37438574   3.670   3.507   2.107 -0.8222 -0.3285 -2.4682
  101MOL   H37538575   3.668   3.792   2.136  3.0877 -1.5539 -0.3808
  101MOL   H37638576   3.634   3.820   2.304  0.0667 -1.5154  1.4289
  101MOL   H37738577   3.759   3.704   2.263  1.5349  1.2728 -3.7910
  101MOL   H37838578   3.412   3.749   2.347  4.2589  0.1278  0.5038
  101MOL   H37938579   3.232   3.577   2.326  0.1148  2.6586 -0.7466
  101MOL   H38038580   3.027   3.340   2.131  0.3113 -1.0996  1.5310
  101MOL   H38138581   3.138   3.445   2.039  0.8094 -0.4588 -0.1287
  101MOL   H38238582   3.079   3.486   2.197  0.4739 -0.3690 -0.3533
  102MOL     C138583   0.849   4.663   2.770 -0.2802 -0.1932 -0.0710
  102MOL     C238584   0.958   4.558   2.777  0.9279  0.0159 -0.2482
  102MOL     C338585   0.928   4.421   2.757 -0.0675 -1.2895 -0.1632
  102MOL     C438586   1.027   4.325   2.792 -0.2850  0.1585  0.6973
  102MOL     C538587   1.156   4.356   2.836  0.7001  0.3327  1.0404
  102MOL     C638588   1.268   4.257   2.872  0.3120  0.1846 -0.0035
  102MOL     C738589   1.185   4.497   2.845 -0.4114  0.2520 -0.0501
  102MOL     C838590   1.086   4.592   2.809  1.0016 -0.1161 -0.2899
  102MOL     C938591   0.806   4.699   2.622  0.0172  0.3360  0.5013
  102MOL    H1038592   0.765   4.628   2.829  1.3525  0.1519  2.5601
  102MOL    H1138593   0.833   4.385   2.722 -0.0238 -1.7697  0.1959
  102MOL    H1238594   1.001   4.221   2.782  0.8445 -0.3175  2.4928
  102MOL    H1338595   1.235   4.154   2.884 -1.1328  0.6774  0.3831
  102MOL    H1438596   1.351   4.267   2.803 -0.0083 -0.3644 -0.4791
  102MOL    H1538597   1.304   4.272   2.973  1.5488 -1.9668 -0.0915
  102MOL    H1638598   1.284   4.533   2.868  0.7303  0.1036 -4.2791
  102MOL    H1738599   1.119   4.694   2.822  1.1872 -0.3149  0.8053
  102MOL    H1838600   0.697   4.704   2.624  0.0411  1.3700 -0.2267
  102MOL    H1938601   0.833   4.611   2.564  0.0210  0.1587  0.7720
  102MOL    H2038602   0.879   4.753   2.825  2.6384 -1.2414  0.1749
  102MOL    C2138603   0.873   4.827   2.564  0.1742 -0.3188  0.3662
  102MOL    C2238604   0.798   4.956   2.609  0.1178  0.3868 -0.3552
  102MOL    C2338605   0.861   5.076   2.647  0.2345 -0.5844  0.1628
  102MOL    C2438606   0.786   5.184   2.693  0.5551 -0.2779  0.0591
  102MOL    C2538607   0.642   5.182   2.691  0.3783  0.5718  0.0163
  102MOL    C2638608   0.558   5.296   2.731 -0.0212  0.5626  0.3865
  102MOL    C2738609   0.578   5.060   2.643  0.0927 -0.0773  0.0085
  102MOL    C2838610   0.656   4.953   2.603  0.1459  0.3831  0.3503
  102MOL    C2938611   0.877   4.816   2.411  0.3238 -0.2645 -0.1417
  102MOL    H3038612   0.973   4.836   2.607  0.2830 -2.0624  0.5146
  102MOL    H3138613   0.968   5.084   2.659  0.3152 -1.2062 -0.0934
  102MOL    H3238614   0.842   5.272   2.722 -1.7384  0.8698  1.1407
  102MOL    H3338615   0.592   5.390   2.686 -2.0195  0.2153 -1.8674
  102MOL    H3438616   0.457   5.284   2.693 -0.2690 -1.8309  1.6907
  102MOL    H3538617   0.545   5.312   2.839 -1.0434  1.5008  0.1352
  102MOL    H3638618   0.471   5.052   2.630 -0.0100  1.6715 -0.3631
  102MOL    H3738619   0.606   4.874   2.550  1.0531 -0.3672  0.5948
  102MOL    H3838620   0.877   4.918   2.372 -1.2420 -0.0835  0.2922
  102MOL    H3938621   0.784   4.774   2.374  0.2101 -0.3325  0.2161
  102MOL    C4038622   0.995   4.731   2.367  0.4265  0.8333 -0.3481
  102MOL    C4138623   1.124   4.795   2.392  0.4049 -0.6896 -0.0235
  102MOL    C4238624   1.221   4.738   2.479  0.3257  0.1475 -0.1615
  102MOL    C4338625   1.344   4.796   2.499  0.2935  0.2659  0.4492
  102MOL    C4438626   1.381   4.914   2.424  0.6498 -0.4250 -0.7531
  102MOL    C4538627   1.517   4.983   2.448 -0.0358  0.1904 -0.6340
  102MOL    C4638628   1.286   4.973   2.335  0.7368  0.3154 -0.7316
  102MOL    C4738629   1.164   4.912   2.317 -0.0830  0.2800  0.1381
  102MOL    C4838630   0.988   4.670   2.226  0.4759 -0.1031  0.3486
  102MOL    H4938631   0.988   4.638   2.424  0.3482  1.4205  0.6032
  102MOL    H5038632   1.196   4.650   2.536 -0.1431 -0.6931 -1.6388
  102MOL    H5138633   1.409   4.761   2.578  0.0127 -3.8144 -1.0278
  102MOL    H5238634   1.600   4.934   2.397 -2.2164 -1.1409 -2.9964
  102MOL    H5338635   1.517   5.084   2.408  3.1991  0.6282  0.3218
  102MOL    H5438636   1.535   4.978   2.556  1.1473  2.5523 -0.6984
  102MOL    H5538637   1.314   5.063   2.283  0.5964  0.6049 -0.3095
  102MOL    H5638638   1.096   4.955   2.245  0.6345 -0.6755 -1.1302
  102MOL    H5738639   0.995   4.760   2.164  0.9159 -0.5092 -0.1926
  102MOL    H5838640   0.891   4.625   2.205  1.1092 -0.9915 -0.7086
  102MOL    C5938641   1.097   4.559   2.194  0.1549 -0.4502 -0.7576
  102MOL    C6038642   1.089   4.530   2.044 -0.3483  0.2579 -0.1033
  102MOL    C6138643   1.171   4.596   1.952 -0.7936 -0.1837 -1.1164
  102MOL    C6238644   1.184   4.566   1.814 -0.2294  0.2311  0.0059
  102MOL    C6338645   1.088   4.472   1.767  0.6853 -0.1435  0.0857
  102MOL    C6438646   1.091   4.427   1.621 -0.1142 -0.0279  0.3766
  102MOL    C6538647   0.999   4.408   1.856 -0.2567 -0.4242 -0.6313
  102MOL    C6638648   1.006   4.427   1.999  0.1219  0.3554 -0.0191
  102MOL    C6738649   1.101   4.441   2.287 -0.1427  0.1236 -0.6705
  102MOL    H6838650   1.192   4.606   2.222 -0.8403 -0.1400  2.3405
  102MOL    H6938651   1.246   4.664   1.991 -2.0686  0.1860  0.7798
  102MOL    H7038652   1.258   4.602   1.744 -0.1290 -2.1880 -1.1827
  102MOL    H7138653   1.023   4.343   1.609  0.9664 -0.6631 -1.6440
  102MOL    H7238654   1.063   4.501   1.546 -0.5046  0.2637  0.8091
  102MOL    H7338655   1.196   4.401   1.607  0.5691  2.0272  1.5293
  102MOL    H7438656   0.931   4.335   1.815 -1.1163 -0.1632  0.2955
  102MOL    H7538657   0.943   4.370   2.066 -2.1113  1.0882 -1.4293
  102MOL    H7638658   1.017   4.382   2.251  0.8676 -1.2659 -0.7781
  102MOL    H7738659   1.097   4.468   2.393  2.1927  1.1890 -0.8106
  102MOL    C7838660   1.224   4.350   2.275 -0.2665  0.4174  0.4788
  102MOL    C7938661   1.191   4.219   2.329 -0.3074 -0.1340 -0.0916
  102MOL    C8038662   1.162   4.200   2.467  0.0582  0.7095  1.1082
  102MOL    C8138663   1.106   4.085   2.515 -0.2108  0.0454  0.6568
  102MOL    C8238664   1.103   3.970   2.435  0.2403  0.2397 -0.6096
  102MOL    C8338665   1.058   3.836   2.494 -0.6070  0.0314 -0.2386
  102MOL    C8438666   1.151   3.978   2.307 -0.2673  0.2221 -0.5836
  102MOL    C8538667   1.191   4.103   2.248 -0.0166 -0.0832 -0.3602
  102MOL    C8638668   1.346   4.407   2.339 -0.3662  0.0686 -0.0076
  102MOL    H8738669   1.242   4.331   2.169 -2.1758 -0.6077  0.3165
  102MOL    H8838670   1.151   4.282   2.538 -0.3726  0.7509  0.9970
  102MOL    H8938671   1.058   4.075   2.611 -0.7155  1.1805  0.5350
  102MOL    H9038672   1.082   3.835   2.601  2.1007 -0.1140 -0.8274
  102MOL    H9138673   0.951   3.817   2.483 -0.2518 -2.2870 -0.0002
  102MOL    H9238674   1.112   3.751   2.453 -0.1507  0.5326 -0.6874
  102MOL    H9338675   1.143   3.893   2.240 -4.6322  0.4557 -0.5371
  102MOL    H9438676   1.219   4.108   2.144 -1.6227  0.6188 -0.7705
  102MOL    H9538677   1.315   4.428   2.441  3.2219 -1.7247  1.5659
  102MOL    H9638678   1.377   4.504   2.299 -0.9210  0.5160  0.6529
  102MOL    C9738679   1.476   4.320   2.354  0.3459 -0.6666 -0.0311
  102MOL    C9838680   1.566   4.368   2.469  0.4425  0.3188 -0.2263
  102MOL    C9938681   1.602   4.283   2.578 -0.1484  0.2230  0.0397
  102MOL   C10038682   1.673   4.344   2.689 -0.0618 -0.4345  0.3578
  102MOL   C10138683   1.709   4.475   2.686 -0.3498 -1.2009 -0.4371
  102MOL   C10238684   1.784   4.537   2.801  0.1756  0.7798 -0.2596
  102MOL   C10338685   1.677   4.554   2.575  0.2727 -0.2917 -0.6928
  102MOL   C10438686   1.608   4.506   2.471  0.1826  0.6000 -0.7715
  102MOL   C10538687   1.549   4.297   2.219 -0.0329 -0.6441 -0.5014
  102MOL   H10638688   1.447   4.217   2.377 -2.1029  0.0070 -0.0446
  102MOL   H10738689   1.586   4.177   2.574  3.3206 -0.4192  1.2275
  102MOL   H10838690   1.703   4.275   2.766 -0.1063 -1.8798 -0.8901
  102MOL   H10938691   1.847   4.618   2.765  1.2652 -0.0681 -0.2713
  102MOL   H11038692   1.714   4.560   2.882  0.5995 -1.1094  0.6684
  102MOL   H11138693   1.851   4.456   2.830 -3.2685 -2.6315 -1.3627
  102MOL   H11238694   1.701   4.659   2.579 -1.8355  0.2134 -1.0473
  102MOL   H11338695   1.582   4.579   2.395  0.9106 -1.8346 -3.4427
  102MOL   H11438696   1.609   4.388   2.211 -1.3024  0.4361  1.5568
  102MOL   H11538697   1.475   4.300   2.140 -0.2410  0.1364 -0.2849
  102MOL   C11638698   1.646   4.179   2.219 -0.0226  0.0636 -0.0675
  102MOL   C11738699   1.783   4.224   2.181  0.2345 -0.9658  0.3630
  102MOL   C11838700   1.893   4.226   2.271 -0.0694  0.1167  0.6405
  102MOL   C11938701   2.026   4.262   2.229  0.3519  0.2686  0.4212
  102MOL   C12038702   2.043   4.297   2.096  0.2610  0.1424 -0.1495
  102MOL   C12138703   2.178   4.344   2.044  0.4703  0.1013  0.1183
  102MOL   C12238704   1.939   4.298   1.998  0.1987  0.2025 -0.2970
  102MOL   C12338705   1.811   4.261   2.042  0.1081 -0.2112  0.1660
  102MOL   C12438706   1.595   4.069   2.124 -0.2648  0.3083  0.1499
  102MOL   H12538707   1.647   4.142   2.322  1.5805  2.4527  0.8050
  102MOL   H12638708   1.876   4.173   2.364  0.9616 -0.0132  0.7595
  102MOL   H12738709   2.108   4.258   2.300  1.0241 -2.2132 -0.4418
  102MOL   H12838710   2.231   4.249   2.047 -0.4553 -0.3584  2.8977
  102MOL   H12938711   2.177   4.399   1.950 -0.4654 -0.1429 -0.0148
  102MOL   H13038712   2.239   4.404   2.111 -0.1099  0.2524  0.5088
  102MOL   H13138713   1.978   4.328   1.902  1.1265  2.6049  0.7995
  102MOL   H13238714   1.736   4.258   1.964 -0.2926  0.3765  0.5179
  102MOL   H13338715   1.565   4.122   2.034  0.4573 -1.5829 -1.2640
  102MOL   H13438716   1.501   4.030   2.162 -0.6970 -0.5468 -1.6923
  102MOL   C13538717   1.679   3.942   2.103 -0.6238  0.4206 -0.3300
  102MOL   C13638718   1.612   3.851   1.993  0.4893  0.0876 -0.2674
  102MOL   C13738719   1.494   3.775   2.020 -0.7652  0.1671 -0.0487
  102MOL   C13838720   1.446   3.686   1.923 -0.7722 -0.0974 -0.3485
  102MOL   C13938721   1.511   3.672   1.801  0.6105  0.6468  0.0901
  102MOL   C14038722   1.476   3.557   1.703  0.4019 -0.5128 -0.2782
  102MOL   C14138723   1.623   3.756   1.775 -0.2290  0.5150  0.1487
  102MOL   C14238724   1.675   3.847   1.872  0.5056 -0.0077  0.4925
  102MOL   C14338725   1.725   3.860   2.233 -0.3076 -0.0584 -0.4598
  102MOL   H14438726   1.774   3.979   2.064 -0.3990 -1.0440 -1.1992
  102MOL   H14538727   1.437   3.799   2.108 -1.5566 -2.1509  0.0911
  102MOL   H14638728   1.358   3.627   1.945 -1.7576  0.8153 -1.7552
  102MOL   H14738729   1.395   3.500   1.748  0.6362 -1.5997 -1.1972
  102MOL   H14838730   1.440   3.605   1.612  0.6351 -0.9555 -0.6103
  102MOL   H14938731   1.564   3.495   1.683  0.5599 -0.4595  0.2483
  102MOL   H15038732   1.671   3.759   1.678 -2.6140  2.6313 -0.9988
  102MOL   H15138733   1.768   3.896   1.848 -1.0338  2.3727 -0.9194
  102MOL   H15238734   1.643   3.797   2.266 -1.2622  1.7845  0.8288
  102MOL   H15338735   1.742   3.937   2.308 -2.5990 -0.1379  0.1847
  102MOL   C15438736   1.842   3.763   2.218  0.1032 -0.2240  0.1190
  102MOL   C15538737   1.981   3.821   2.186 -0.7435  0.0704  0.2343
  102MOL   C15638738   2.076   3.831   2.290 -0.3236 -0.3969 -0.6583
  102MOL   C15738739   2.203   3.886   2.271 -0.1085 -0.5735  0.1974
  102MOL   C15838740   2.237   3.938   2.144 -0.6437  0.8226 -0.0984
  102MOL   C15938741   2.373   4.005   2.118  0.4318  0.9004 -0.6842
  102MOL   C16038742   2.141   3.938   2.039  0.2511  0.0745  0.1590
  102MOL   C16138743   2.013   3.869   2.053 -0.3324  0.6923 -0.4123
  102MOL   C16238744   1.812   3.643   2.119  0.7320  0.1112 -0.0859
  102MOL   H16338745   1.853   3.714   2.315 -0.1756  1.7404  1.1780
  102MOL   H16438746   2.032   3.805   2.385 -2.0729  2.2753 -0.6699
  102MOL   H16538747   2.261   3.903   2.360 -0.5206  1.4156  0.1304
  102MOL   H16638748   2.442   3.939   2.067 -3.1572 -2.2110 -1.7859
  102MOL   H16738749   2.363   4.091   2.053 -2.3689  2.1436  1.2662
  102MOL   H16838750   2.424   4.040   2.208  0.8253  1.2219 -1.0337
  102MOL   H16938751   2.166   3.993   1.950 -0.6942  0.3626  0.0681
  102MOL   H17038752   1.936   3.869   1.977 -0.8304 -3.3669 -0.0050
  102MOL   H17138753   1.807   3.676   2.015 -2.3071  0.9731  0.2875
  102MOL   H17238754   1.712   3.606   2.138  0.2901  1.0186 -0.6383
  102MOL   C17338755   1.900   3.522   2.124  0.2251  0.4587 -0.5531
  102MOL   C17438756   1.920   3.457   1.988 -0.1235  0.5387 -0.2437
  102MOL   C17538757   2.045   3.419   1.936  0.1482 -1.0010  0.0001
  102MOL   C17638758   2.060   3.356   1.811  0.0080 -0.2570  0.0200
  102MOL   C17738759   1.944   3.339   1.733 -0.6250  0.6729 -0.5714
  102MOL   C17838760   1.959   3.270   1.598  0.1314  0.2042 -0.4271
  102MOL   C17938761   1.818   3.389   1.773  0.3155 -0.1239  0.1284
  102MOL   C18038762   1.803   3.451   1.898  0.5881 -0.2579 -0.0287
  102MOL   C18138763   1.860   3.419   2.234 -0.1931 -0.1322  0.6024
  102MOL   H18238764   2.000   3.556   2.149 -0.1722  0.7670  0.6388
  102MOL   H18338765   2.129   3.418   2.003  0.3253  4.5728  0.0724
  102MOL   H18438766   2.156   3.317   1.779 -0.2105 -0.9661  0.2112
  102MOL   H18538767   1.883   3.301   1.526  0.6327  1.7665 -0.2988
  102MOL   H18638768   2.063   3.289   1.571  0.5092  0.5382  1.2189
  102MOL   H18738769   1.949   3.163   1.612 -1.2486  0.2300 -1.1832
  102MOL   H18838770   1.733   3.384   1.706 -1.2561  1.4865  1.9541
  102MOL   H18938771   1.706   3.485   1.932 -0.5264 -1.0377 -2.3554
  102MOL   H19038772   1.764   3.375   2.205  0.7173 -0.6555 -1.7336
  102MOL   H19138773   1.838   3.480   2.321 -0.5264  1.0752 -0.3102
  102MOL   C19238774   1.963   3.311   2.281  0.3053  0.3761  0.1289
  102MOL   C19338775   1.988   3.207   2.171  0.2831  0.1090 -0.2241
  102MOL   C19438776   2.119   3.151   2.155  0.5923  0.1411 -0.7877
  102MOL   C19538777   2.137   3.048   2.059  0.5216 -0.0176 -0.1915
  102MOL   C19638778   2.036   3.012   1.965  0.1988 -0.3263 -0.1987
  102MOL   C19738779   2.074   2.920   1.849  0.0288 -0.4179 -0.1685
  102MOL   C19838780   1.906   3.071   1.983  0.5906 -0.1315  0.5363
  102MOL   C19938781   1.884   3.162   2.085  0.3131 -0.9461  0.0960
  102MOL   C20038782   1.931   3.254   2.417 -0.0136  1.0096  0.2335
  102MOL   H20138783   2.057   3.364   2.293  0.0727  1.5389 -2.7270
  102MOL   H20238784   2.201   3.175   2.220 -0.2579 -0.7385  0.6482
  102MOL   H20338785   2.234   3.001   2.049  2.1900  3.3436 -0.2329
  102MOL   H20438786   1.992   2.853   1.824  0.0289  0.6677 -3.2174
  102MOL   H20538787   2.100   2.959   1.751  0.5314 -0.5271 -0.0808
  102MOL   H20638788   2.159   2.860   1.882  0.8426  0.4186 -0.7157
  102MOL   H20738789   1.825   3.047   1.915  0.6503 -0.2921  0.5199
  102MOL   H20838790   1.784   3.203   2.092  0.3199 -1.0404  0.8067
  102MOL   H20938791   1.999   3.175   2.449  0.3628  1.1726 -0.1626
  102MOL   H21038792   1.829   3.216   2.410  0.6482 -0.9198  0.7803
  102MOL   C21138793   1.951   3.347   2.540  0.8217 -0.3642  0.7376
  102MOL   C21238794   2.092   3.414   2.543 -0.0004 -0.4041 -0.0483
  102MOL   C21338795   2.095   3.555   2.559  0.0120  0.1829 -0.7468
  102MOL   C21438796   2.216   3.625   2.568 -0.1830 -0.5959  0.0215
  102MOL   C21538797   2.339   3.552   2.561  0.0283  0.0546  0.2250
  102MOL   C21638798   2.471   3.626   2.554 -0.3743  0.2630  0.2872
  102MOL   C21738799   2.333   3.406   2.557  0.0319 -0.2341  0.1092
  102MOL   C21838800   2.207   3.337   2.541  1.1946  0.6378  0.3409
  102MOL   C21938801   1.919   3.273   2.673  0.2507 -0.2248 -0.0544
  102MOL   H22038802   1.877   3.427   2.534  1.9628  0.6536  0.0369
  102MOL   H22138803   2.002   3.607   2.545  0.2324  0.4525 -1.2227
  102MOL   H22238804   2.200   3.731   2.563  0.2243 -0.6173 -2.9031
  102MOL   H22338805   2.553   3.556   2.536 -0.0986 -0.1378  2.9040
  102MOL   H22438806   2.467   3.697   2.471 -3.2990 -0.1487  0.0372
  102MOL   H22538807   2.497   3.685   2.642  3.9893 -1.3373  0.2180
  102MOL   H22638808   2.428   3.355   2.558  0.9680  1.4953  0.8419
  102MOL   H22738809   2.200   3.229   2.537  0.0507  0.6922  0.4561
  102MOL   H22838810   1.995   3.197   2.696 -1.7536 -2.1023  0.5697
  102MOL   H22938811   1.833   3.211   2.647 -1.8182  2.7726 -0.5250
  102MOL   C23038812   1.878   3.362   2.790  0.1933  1.0790  0.2280
  102MOL   C23138813   1.948   3.313   2.915 -0.0614 -0.0452 -0.0697
  102MOL   C23238814   1.907   3.199   2.991  0.3184 -0.3645  0.1203
  102MOL   C23338815   1.984   3.150   3.101  0.6362 -0.0492  0.5552
  102MOL   C23438816   2.104   3.217   3.133  1.0301 -0.4025  0.4563
  102MOL   C23538817   2.179   3.175   3.256 -0.0506  0.5105 -0.3372
  102MOL   C23638818   2.145   3.335   3.065 -0.4798 -0.4431 -0.1575
  102MOL   C23738819   2.070   3.382   2.957 -0.1947 -0.4909 -0.4117
  102MOL   C23838820   1.720   3.342   2.809  0.3808 -0.7265  0.2535
  102MOL   H23938821   1.907   3.465   2.767  0.2436  1.3828  1.6359
  102MOL   H24038822   1.815   3.155   2.954 -1.3893  1.8749  1.5847
  102MOL   H24138823   1.945   3.066   3.157  0.9957 -0.2899  0.4461
  102MOL   H24238824   2.180   3.067   3.272  1.3420  0.3704 -1.2799
  102MOL   H24338825   2.283   3.202   3.238  0.6053 -2.2723 -0.9394
  102MOL   H24438826   2.141   3.218   3.349 -1.6771  0.8455 -1.1266
  102MOL   H24538827   2.226   3.398   3.097 -0.5619 -0.7157  0.5886
  102MOL   H24638828   2.093   3.471   2.900 -0.9230  1.0603  1.6515
  102MOL   H24738829   1.703   3.359   2.915 -0.5015 -1.2590  0.1979
  102MOL   H24838830   1.688   3.240   2.790 -0.6315 -0.2490 -0.6677
  102MOL   C24938831   1.637   3.439   2.729  0.0806  0.1679  1.2144
  102MOL   C25038832   1.693   3.581   2.732  0.1348 -0.0616  0.2705
  102MOL   C25138833   1.706   3.657   2.851 -0.9083 -1.0770  0.4309
  102MOL   C25238834   1.757   3.786   2.850 -0.3327 -0.8377  0.1174
  102MOL   C25338835   1.770   3.850   2.725 -0.4191 -0.2524  0.0683
  102MOL   C25438836   1.807   3.999   2.733  0.1908 -0.0399  0.1278
  102MOL   C25538837   1.761   3.779   2.602 -0.2010 -0.3371 -0.4596
  102MOL   C25638838   1.726   3.642   2.610 -0.0398 -0.4617  0.3859
  102MOL   C25738839   1.488   3.428   2.754  0.2361 -0.3552 -0.2106
  102MOL   H25838840   1.653   3.410   2.626  4.2564  2.3983  1.0982
  102MOL   H25938841   1.692   3.604   2.944  1.1426  0.9128  1.9532
  102MOL   H26038842   1.783   3.835   2.943  0.4623 -0.8037 -0.1125
  102MOL   H26138843   1.906   4.024   2.771  1.0692 -0.6961 -1.6931
  102MOL   H26238844   1.806   4.043   2.634 -2.1700  0.6536  0.4175
  102MOL   H26338845   1.736   4.053   2.797 -0.4779  0.4474 -1.0168
  102MOL   H26438846   1.783   3.834   2.512 -0.3921  1.3330  0.5023
  102MOL   H26538847   1.724   3.577   2.523 -0.1818 -1.4326  1.1059
  102MOL   H26638848   1.450   3.520   2.709 -0.7894 -1.0233 -0.7243
  102MOL   H26738849   1.480   3.433   2.862  0.4176 -0.2066 -0.2033
  102MOL   C26838850   1.415   3.311   2.686 -0.3391  0.2233  0.4034
  102MOL   C26938851   1.430   3.324   2.537  0.4758  0.7830  0.3334
  102MOL   C27038852   1.502   3.227   2.467  0.2570 -0.2036  0.1225
  102MOL   C27138853   1.506   3.237   2.325  0.5028  0.2134  0.1509
  102MOL   C27238854   1.446   3.342   2.251  0.2627 -0.1935 -0.0076
  102MOL   C27338855   1.485   3.365   2.106  0.5465  0.1174 -1.1419
  102MOL   C27438856   1.381   3.443   2.327  0.7653 -0.6179  0.4467
  102MOL   C27538857   1.363   3.431   2.467 -0.2024 -0.4189  0.3705
  102MOL   C27638858   1.267   3.301   2.747 -0.8924 -1.0073 -0.4649
  102MOL   H27738859   1.462   3.216   2.709 -1.4991 -0.5543 -0.3951
  102MOL   H27838860   1.533   3.136   2.515 -0.1799 -0.5545 -0.2486
  102MOL   H27938861   1.559   3.157   2.276 -1.0008 -0.5425 -0.2907
  102MOL   H28038862   1.513   3.266   2.069 -1.9557 -0.2845 -2.0487
  102MOL   H28138863   1.410   3.413   2.043 -1.2378 -0.8481  0.1961
  102MOL   H28238864   1.582   3.414   2.095  1.2446 -0.2507  2.8892
  102MOL   H28338865   1.354   3.535   2.277  1.7935  0.1552  1.3013
  102MOL   H28438866   1.310   3.512   2.516  0.5868  0.7356 -0.6718
  102MOL   H28538867   1.218   3.243   2.669 -1.1716  0.4312 -1.3803
  102MOL   H28638868   1.227   3.402   2.745  2.2013  0.3459  1.6890
  102MOL   C28738869   1.249   3.234   2.885 -0.1617  0.3983  0.5071
  102MOL   C28838870   1.341   3.110   2.893 -0.2250 -0.4827  0.0340
  102MOL   C28938871   1.464   3.130   2.965 -0.3976  0.0412  0.4753
  102MOL   C29038872   1.554   3.026   2.989 -0.1718 -0.2825 -0.6162
  102MOL   C29138873   1.518   2.896   2.944  0.7818  0.4448 -0.1538
  102MOL   C29238874   1.606   2.777   2.962  0.3427  0.3681 -0.3514
  102MOL   C29338875   1.396   2.875   2.874  0.9939  0.0624 -0.1458
  102MOL   C29438876   1.308   2.983   2.856 -0.2372  0.1756 -0.3866
  102MOL   C29538877   1.102   3.216   2.920 -0.2570  1.0597 -0.5157
  102MOL   H29638878   1.280   3.311   2.956 -0.6527  0.1258  1.0210
  102MOL   H29738879   1.491   3.227   3.005 -0.7220  0.4706 -0.3447
  102MOL   H29838880   1.645   3.050   3.043  0.3024  1.6580 -2.2228
  102MOL   H29938881   1.565   2.677   2.975 -0.9768  0.7194 -1.6680
  102MOL   H30038882   1.677   2.774   2.878 -0.2279 -1.0826 -0.7912
  102MOL   H30138883   1.659   2.795   3.055 -0.3572 -0.1733  0.1471
  102MOL   H30238884   1.373   2.780   2.828 -0.1209  0.5658 -0.6279
  102MOL   H30338885   1.215   2.958   2.807 -0.6698  0.3201  0.3398
  102MOL   H30438886   1.060   3.137   2.856 -1.3804  1.4460 -0.2681
  102MOL   H30538887   1.042   3.300   2.887 -0.1412  1.9356  1.4731
  102MOL   C30638888   1.083   3.186   3.067  0.4994 -0.3152 -0.1926
  102MOL   C30738889   0.948   3.122   3.098 -0.0629 -0.2468  0.1560
  102MOL   C30838890   0.939   3.000   3.162 -0.8896  0.2876 -0.1505
  102MOL   C30938891   0.811   2.941   3.182  0.2109  0.8705  0.2617
  102MOL   C31038892   0.693   2.997   3.127 -0.2601 -0.3321 -0.2166
  102MOL   C31138893   0.555   2.938   3.142  0.0672 -0.0586 -0.3373
  102MOL   C31238894   0.700   3.125   3.061  0.5757 -0.5014 -0.3151
  102MOL   C31338895   0.829   3.182   3.048 -0.7622  0.3081  0.2890
  102MOL   C31438896   1.104   3.322   3.151  0.3400  0.6922  0.0466
  102MOL   H31538897   1.161   3.120   3.104  2.0347  2.5799  1.9272
  102MOL   H31638898   1.034   2.954   3.182 -0.7326 -0.2958 -2.0946
  102MOL   H31738899   0.800   2.845   3.229  1.6180  0.5636 -0.0115
  102MOL   H31838900   0.500   2.998   3.215  0.8755  0.9091 -0.5219
  102MOL   H31938901   0.493   2.942   3.052  0.3320 -1.6191 -0.6036
  102MOL   H32038902   0.557   2.837   3.183 -1.4563 -0.1000 -0.3385
  102MOL   H32138903   0.618   3.185   3.023  0.6966  1.4791  2.4112
  102MOL   H32238904   0.835   3.275   2.993 -0.8733  1.2100  1.7891
  102MOL   H32338905   1.014   3.332   3.212 -0.1111  0.3914 -0.5734
  102MOL   H32438906   1.131   3.405   3.087  1.1810  0.6733  0.3714
  102MOL   C32538907   1.221   3.311   3.261  0.1936 -0.2385  0.7842
  102MOL   C32638908   1.204   3.203   3.367 -0.1624  0.0321 -0.3319
  102MOL   C32738909   1.077   3.159   3.411  0.4231 -0.6102 -0.5464
  102MOL   C32838910   1.068   3.064   3.512  1.0086 -0.2169  0.3661
  102MOL   C32938911   1.175   3.001   3.572  0.8631 -0.4151 -0.3429
  102MOL   C33038912   1.165   2.895   3.685  0.8969  0.1505 -0.6254
  102MOL   C33138913   1.303   3.029   3.515 -0.3458  0.6348  0.2236
  102MOL   C33238914   1.314   3.134   3.417 -0.5805 -0.9827 -0.1053
  102MOL   C33338915   1.245   3.444   3.340 -0.0675  0.3471  0.0622
  102MOL   H33438916   1.313   3.282   3.211 -0.8404 -0.0719 -1.2622
  102MOL   H33538917   0.984   3.200   3.376  0.3976 -0.5981 -0.4636
  102MOL   H33638918   0.971   3.031   3.546  1.9189 -1.9001  1.3619
  102MOL   H33738919   1.200   2.933   3.781 -2.0174 -1.0352  0.9671
  102MOL   H33838920   1.069   2.846   3.705  1.9879 -0.9527  2.1462
  102MOL   H33938921   1.224   2.811   3.649  0.0381 -0.8928  0.3699
  102MOL   H34038922   1.389   2.976   3.555 -0.8801 -0.9410 -0.6535
  102MOL   H34138923   1.411   3.164   3.380 -1.4044  1.9607  0.0547
  102MOL   H34238924   1.245   3.433   3.449  0.4739 -1.3980 -0.0964
  102MOL   H34338925   1.153   3.500   3.327  0.0640  0.9310  1.5415
  102MOL   C34438926   1.364   3.527   3.290 -0.3873 -0.4660  0.4714
  102MOL   C34538927   1.500   3.460   3.318 -0.3641 -0.1057 -0.8445
  102MOL   C34638928   1.526   3.409   3.453  0.3565  0.2858  0.2383
  102MOL   C34738929   1.648   3.350   3.487 -0.2364  0.4651  0.2698
  102MOL   C34838930   1.750   3.357   3.390 -0.1545 -0.0279 -0.3797
  102MOL   C34938931   1.880   3.293   3.439 -0.3995  0.0602 -0.7753
  102MOL   C35038932   1.734   3.405   3.256  0.0803 -0.0713 -0.0073
  102MOL   C35138933   1.604   3.459   3.223 -0.1664 -0.6371 -0.0824
  102MOL   C35238934   1.360   3.676   3.339 -0.1495 -0.8833 -0.6255
  102MOL   H35338935   1.355   3.536   3.181 -0.9896  0.4111  0.5864
  102MOL   H35438936   1.447   3.412   3.526  1.1695 -0.4076  1.1611
  102MOL   H35538937   1.661   3.316   3.588  1.2605 -3.2597 -1.1021
  102MOL   H35638938   1.873   3.273   3.546  0.7738 -1.7360 -1.0153
  102MOL   H35738939   1.901   3.207   3.375 -0.6440 -1.3036  0.9510
  102MOL   H35838940   1.966   3.358   3.422 -1.3588  1.7116  0.5246
  102MOL   H35938941   1.803   3.385   3.176  0.6436 -0.1040  0.4797
  102MOL   H36038942   1.587   3.488   3.120 -0.8865  0.0653  0.2305
  102MOL   H36138943   1.456   3.722   3.317 -0.1176 -1.1692 -1.1045
  102MOL   H36238944   1.348   3.680   3.447  0.0023  3.1844 -0.6920
  102MOL   C36338945   1.255   3.762   3.263 -0.0578 -0.0691  0.2075
  102MOL   C36438946   1.288   3.787   3.121 -0.4195  0.4842  0.3058
  102MOL   C36538947   1.408   3.855   3.086 -0.0803  0.3883  0.5561
  102MOL   C36638948   1.444   3.870   2.948  0.3297  0.1137  0.1832
  102MOL   C36738949   1.356   3.832   2.851  0.8511  0.4250  0.8037
  102MOL   C36838950   1.389   3.837   2.704  0.5936  0.4672  0.8346
  102MOL   C36938951   1.234   3.766   2.888  0.1203 -0.3061  0.2993
  102MOL   C37038952   1.196   3.743   3.023 -0.0793  0.5092  0.2232
  102MOL   C37138953   1.210   3.888   3.336 -0.2347  0.5225 -0.8551
  102MOL   H37238954   1.162   3.705   3.264 -1.4178  2.0631 -1.6421
  102MOL   H37338955   1.476   3.890   3.163  0.7687  0.6425 -0.2912
  102MOL   H37438956   1.539   3.912   2.918  0.4806  0.9663  1.7539
  102MOL   H37538957   1.353   3.743   2.663  1.5628  1.1027 -1.5750
  102MOL   H37638958   1.339   3.913   2.644  1.6725  0.6211  0.1119
  102MOL   H37738959   1.497   3.846   2.690  0.5234  1.4974  0.8985
  102MOL   H37838960   1.171   3.717   2.815 -2.4239  1.9543  0.8968
  102MOL   H37938961   1.115   3.675   3.048 -0.3060  0.6003 -0.2655
  102MOL   H38038962   1.286   3.965   3.347  0.2591 -0.0886  0.0442
  102MOL   H38138963   1.167   3.850   3.429  0.5143  1.3577 -0.1537
  102MOL   H38238964   1.120   3.931   3.292  0.7659  1.9139 -1.5788
  103MOL     C138965   1.466   6.912   5.132  0.1556  0.0861 -0.3402
  103MOL     C238966   1.561   6.832   5.225 -0.3198  0.0004 -0.3551
  103MOL     C338967   1.673   6.766   5.172  0.4165 -0.7154 -0.4368
  103MOL     C438968   1.770   6.707   5.253 -0.1118  0.5405  0.0098
  103MOL     C538969   1.757   6.711   5.397 -0.1454  0.4457 -0.0254
  103MOL     C638970   1.862   6.625   5.461 -0.1627 -0.0054  0.0960
  103MOL     C738971   1.644   6.773   5.448 -0.2523 -0.4004  0.2868
  103MOL     C838972   1.547   6.829   5.364  0.8426 -0.2004  0.4785
  103MOL     C938973   1.476   7.065   5.149 -0.5293 -0.1016 -0.0923
  103MOL    H1038974   1.484   6.884   5.028 -1.4491  0.4811 -0.7398
  103MOL    H1138975   1.685   6.767   5.065 -0.5539 -2.0744 -0.5684
  103MOL    H1238976   1.859   6.671   5.204  1.2442  2.4372  1.0270
  103MOL    H1338977   1.962   6.648   5.425  0.1168 -2.4970 -0.8269
  103MOL    H1438978   1.871   6.650   5.567 -1.8705 -1.7263  0.6906
  103MOL    H1538979   1.849   6.519   5.441 -0.5160  0.3553 -1.6453
  103MOL    H1638980   1.631   6.764   5.555  0.9058  1.3289  0.5931
  103MOL    H1738981   1.458   6.881   5.396  0.6050  0.5776 -1.3432
  103MOL    H1838982   1.581   7.090   5.130 -1.8134  3.0116 -3.7676
  103MOL    H1938983   1.461   7.084   5.255  1.5233 -1.3694  0.4468
  103MOL    H2038984   1.363   6.889   5.158  0.8119 -1.6420  0.7868
  103MOL    C2138985   1.380   7.154   5.062  0.2487 -0.6277  0.2728
  103MOL    C2238986   1.430   7.175   4.921 -0.0026 -0.2081 -0.3091
  103MOL    C2338987   1.533   7.266   4.898  0.3981 -0.3313 -0.2172
  103MOL    C2438988   1.588   7.279   4.768  0.7129  0.2619 -0.0013
  103MOL    C2538989   1.528   7.210   4.657  0.1164  0.7073 -1.0479
  103MOL    C2638990   1.584   7.212   4.515 -0.4436 -0.9236 -0.0837
  103MOL    C2738991   1.413   7.136   4.683  0.0627  0.7298 -0.3974
  103MOL    C2838992   1.366   7.115   4.814  0.3164  0.3660  0.3477
  103MOL    C2938993   1.349   7.285   5.144  0.4535 -0.0513 -0.0684
  103MOL    H3038994   1.280   7.113   5.045 -0.3851  0.9505  0.0318
  103MOL    H3138995   1.582   7.308   4.986 -1.4824  1.2368  0.1026
  103MOL    H3238996   1.676   7.341   4.755  0.4959  0.2085 -1.9320
  103MOL    H3338997   1.495   7.217   4.451 -0.9923  1.2544  0.8095
  103MOL    H3438998   1.642   7.299   4.484 -3.2696  0.9062 -0.4059
  103MOL    H3538999   1.626   7.122   4.470  2.5943  0.9837 -1.2101
  103MOL    H3639000   1.368   7.076   4.605 -0.6599 -0.2762  0.7821
  103MOL    H3739001   1.294   7.036   4.829  2.0775 -1.6018 -1.1942
  103MOL    H3839002   1.305   7.359   5.077 -0.3356 -0.6536 -0.2227
  103MOL    H3939003   1.443   7.334   5.168 -1.0659  1.4785  3.0070
  103MOL    C4039004   1.272   7.269   5.273 -0.1198  0.9909 -0.1952
  103MOL    C4139005   1.137   7.213   5.256  0.4121 -0.6549 -0.9144
  103MOL    C4239006   1.097   7.082   5.288  0.0688 -0.0026  0.4139
  103MOL    C4339007   0.967   7.046   5.269  0.7767  0.7104 -0.0057
  103MOL    C4439008   0.875   7.142   5.219  0.3542 -0.5078  0.0435
  103MOL    C4539009   0.735   7.092   5.190  0.2103 -0.3460  0.6052
  103MOL    C4639010   0.912   7.275   5.184 -1.1914  0.7146 -0.7425
  103MOL    C4739011   1.045   7.308   5.198  0.9804 -0.5532 -0.4294
  103MOL    C4839012   1.287   7.384   5.376 -0.5871  0.0775 -0.7089
  103MOL    H4939013   1.312   7.188   5.333  2.2489  0.1258 -2.8386
  103MOL    H5039014   1.165   7.006   5.323  0.4724  0.4027  0.5170
  103MOL    H5139015   0.926   6.947   5.282  0.3253  1.0401  1.1722
  103MOL    H5239016   0.678   7.074   5.281 -2.5357 -1.6389 -1.3158
  103MOL    H5339017   0.675   7.151   5.121 -3.7142 -4.2312  0.5307
  103MOL    H5439018   0.749   7.000   5.133 -0.2139  0.2465 -0.4659
  103MOL    H5539019   0.839   7.336   5.132 -0.9007  2.2167  0.5828
  103MOL    H5639020   1.084   7.399   5.156  0.3547  1.0869  2.4210
  103MOL    H5739021   1.206   7.453   5.351  0.2842  1.3040 -0.1414
  103MOL    H5839022   1.387   7.419   5.350  0.2169 -2.2695 -0.9198
  103MOL    C5939023   1.275   7.359   5.524 -0.0679  0.3649  0.3745
  103MOL    C6039024   1.244   7.486   5.598  0.3672 -0.5852 -0.0444
  103MOL    C6139025   1.144   7.487   5.697  0.2749 -0.2473  0.0140
  103MOL    C6239026   1.117   7.600   5.785  0.0800 -0.1067  0.1821
  103MOL    C6339027   1.207   7.706   5.778  0.0144  0.2957  0.3897
  103MOL    C6439028   1.194   7.821   5.871  0.1432 -0.4417  0.1118
  103MOL    C6539029   1.310   7.709   5.676 -0.2584 -0.8693 -0.6661
  103MOL    C6639030   1.324   7.604   5.591  0.3797  1.1934 -0.7174
  103MOL    C6739031   1.401   7.291   5.590 -0.1653 -0.0263  0.0362
  103MOL    H6839032   1.187   7.295   5.532  0.4456 -0.3752  0.2503
  103MOL    H6939033   1.085   7.397   5.703 -1.0841  0.6745  0.5918
  103MOL    H7039034   1.036   7.593   5.857  0.8011 -1.8595  0.8366
  103MOL    H7139035   1.087   7.830   5.893 -0.3266  1.2473 -2.5882
  103MOL    H7239036   1.252   7.801   5.961  0.8900  0.2430 -0.2090
  103MOL    H7339037   1.234   7.910   5.824  0.1524 -0.1508  0.6635
  103MOL    H7439038   1.385   7.786   5.672  0.0460 -0.9474  2.3756
  103MOL    H7539039   1.401   7.610   5.515  0.8454 -1.3244 -0.4705
  103MOL    H7639040   1.456   7.376   5.628 -1.1493  0.9111 -0.6102
  103MOL    H7739041   1.459   7.238   5.514  0.1378  0.5310 -0.1176
  103MOL    C7839042   1.355   7.187   5.694 -0.1288  0.7407 -0.5120
  103MOL    C7939043   1.450   7.187   5.814  0.2332  0.1819 -0.1045
  103MOL    C8039044   1.548   7.090   5.840 -0.1448  0.2728  0.0830
  103MOL    C8139045   1.634   7.095   5.952 -0.3279  0.2713  0.0506
  103MOL    C8239046   1.611   7.197   6.050 -0.0890  0.1209  0.1984
  103MOL    C8339047   1.700   7.205   6.174 -0.8415 -0.2331 -0.5813
  103MOL    C8439048   1.520   7.301   6.023  0.0315 -0.4297  0.1206
  103MOL    C8539049   1.432   7.295   5.908  0.3407  0.4375 -0.4252
  103MOL    C8639050   1.316   7.052   5.627 -0.1591 -0.1242  0.2906
  103MOL    H8739051   1.263   7.220   5.741 -1.4980 -2.0831 -1.1001
  103MOL    H8839052   1.554   7.012   5.766 -0.0723 -0.4928  0.8838
  103MOL    H8939053   1.711   7.023   5.973  1.1876  1.9364  0.3330
  103MOL    H9039054   1.667   7.132   6.248 -0.3655 -1.8666 -1.9433
  103MOL    H9139055   1.805   7.190   6.148 -1.3304 -1.7738 -1.7642
  103MOL    H9239056   1.690   7.305   6.216 -2.7805 -1.1284  1.1563
  103MOL    H9339057   1.517   7.380   6.098 -3.4606 -0.9372  0.5659
  103MOL    H9439058   1.358   7.373   5.896 -1.7040 -1.4092 -0.2548
  103MOL    H9539059   1.401   6.995   5.590  0.4193  1.5596 -1.0535
  103MOL    H9639060   1.262   7.076   5.536  0.6255 -2.5858 -0.8448
  103MOL    C9739061   1.251   6.949   5.722  0.1280 -0.0390 -0.0320
  103MOL    C9839062   1.298   6.802   5.696  0.0312  0.2113 -0.4034
  103MOL    C9939063   1.383   6.732   5.790  0.2495  0.5358  0.2128
  103MOL   C10039064   1.406   6.597   5.772  0.6019 -0.3112 -0.3051
  103MOL   C10139065   1.368   6.536   5.646 -0.0663 -0.3558  1.0620
  103MOL   C10239066   1.409   6.394   5.610 -0.0156  0.2486 -0.1668
  103MOL   C10339067   1.291   6.607   5.553  0.9740  0.5017 -0.3211
  103MOL   C10439068   1.247   6.738   5.580  0.3512  0.3678 -0.6088
  103MOL   C10539069   1.101   6.946   5.741  0.5930 -0.3550 -0.0609
  103MOL   H10639070   1.287   6.965   5.823 -0.0179 -2.3767  0.4264
  103MOL   H10739071   1.428   6.778   5.877  0.6796  0.2796  0.1284
  103MOL   H10839072   1.482   6.549   5.833  1.0639 -0.7313 -1.2061
  103MOL   H10939073   1.435   6.328   5.693 -0.3937  0.0254 -0.2278
  103MOL   H11039074   1.322   6.355   5.558  1.1406 -1.3032 -0.9928
  103MOL   H11139075   1.492   6.406   5.540  1.6118 -2.2398  1.2995
  103MOL   H11239076   1.265   6.549   5.465 -1.1144  0.9737 -0.0534
  103MOL   H11339077   1.180   6.790   5.513 -0.7006  1.0524  0.9417
  103MOL   H11439078   1.084   6.846   5.781 -1.1430  0.4875  1.4025
  103MOL   H11539079   1.060   6.959   5.641  1.9695 -0.2351 -0.6257
  103MOL   C11639080   1.041   7.046   5.840 -0.4123 -0.2107  0.1086
  103MOL   C11739081   1.112   7.033   5.977 -0.4451 -0.0598  0.9963
  103MOL   C11839082   1.156   7.152   6.040 -0.1232 -0.9638  0.4270
  103MOL   C11939083   1.218   7.145   6.171  0.1702 -0.2153 -0.1836
  103MOL   C12039084   1.247   7.024   6.230  0.8385  0.3322 -0.2172
  103MOL   C12139085   1.323   7.021   6.354 -0.3819  0.4407 -0.7553
  103MOL   C12239086   1.199   6.906   6.168  0.4997 -0.2282  0.3287
  103MOL   C12339087   1.128   6.911   6.046  0.4193  0.3571 -0.6289
  103MOL   C12439088   0.892   7.025   5.874  0.4212  0.3969 -0.6029
  103MOL   H12539089   1.059   7.146   5.803 -1.4465  0.5791  1.6705
  103MOL   H12639090   1.143   7.245   5.987 -1.6594 -1.1153  0.5220
  103MOL   H12739091   1.252   7.238   6.215 -0.4148 -0.3114  0.4779
  103MOL   H12839092   1.326   6.917   6.388 -0.7742  0.2717 -1.2284
  103MOL   H12939093   1.425   7.046   6.324 -0.0479  0.9794  0.7973
  103MOL   H13039094   1.292   7.076   6.442 -2.1065 -1.9903  0.2050
  103MOL   H13139095   1.217   6.816   6.224 -0.5398 -1.5370 -1.3976
  103MOL   H13239096   1.097   6.824   5.988  2.0511  1.2289 -2.8858
  103MOL   H13339097   0.867   7.077   5.967 -1.6347  1.0836 -1.5105
  103MOL   H13439098   0.878   6.920   5.898  2.0264  0.1105 -0.9105
  103MOL   C13539099   0.792   7.056   5.762  0.7698  0.8694  0.6405
  103MOL   C13639100   0.782   7.200   5.723 -0.8835 -0.1255  0.0080
  103MOL   C13739101   0.812   7.249   5.595  0.6905  0.4247 -0.0699
  103MOL   C13839102   0.794   7.393   5.572  0.4753 -0.1008  0.1847
  103MOL   C13939103   0.766   7.481   5.675 -0.7300 -0.4988 -0.7381
  103MOL   C14039104   0.776   7.634   5.657 -0.3075  0.3952 -0.2286
  103MOL   C14139105   0.740   7.423   5.801 -0.5476 -1.0451  0.1406
  103MOL   C14239106   0.747   7.285   5.826 -0.1767 -0.1031 -0.8471
  103MOL   C14339107   0.655   6.996   5.794 -0.1081 -0.3116 -0.0249
  103MOL   H14439108   0.830   7.009   5.672 -0.1043  0.4400  0.4867
  103MOL   H14539109   0.843   7.187   5.512 -0.7040 -0.7324  0.2495
  103MOL   H14639110   0.823   7.430   5.475 -2.3255  0.0164 -0.6760
  103MOL   H14739111   0.730   7.686   5.741  2.7122  1.5442  0.7932
  103MOL   H14839112   0.880   7.667   5.657 -1.4254  4.2078 -0.6330
  103MOL   H14939113   0.728   7.674   5.567  0.3197  2.6333  0.3981
  103MOL   H15039114   0.719   7.482   5.889  0.2118  0.0469 -0.3865
  103MOL   H15139115   0.736   7.245   5.925 -0.6790 -0.9993 -1.2652
  103MOL   H15239116   0.580   7.042   5.729 -1.6169 -2.5337  0.0633
  103MOL   H15339117   0.615   7.022   5.893 -2.7894  2.7127 -1.8040
  103MOL   C15439118   0.652   6.837   5.781 -1.1535 -0.1141 -0.4677
  103MOL   C15539119   0.738   6.780   5.668 -0.4597  1.0409  0.1256
  103MOL   C15639120   0.706   6.803   5.533  0.0704  0.8699  0.1400
  103MOL   C15739121   0.775   6.727   5.430  0.5610 -0.3929 -0.3018
  103MOL   C15839122   0.879   6.635   5.461 -0.3171 -0.6711 -0.5499
  103MOL   C15939123   0.951   6.559   5.348 -0.4049  0.0772  0.4402
  103MOL   C16039124   0.911   6.617   5.591 -0.6449 -0.2423 -0.3609
  103MOL   C16139125   0.848   6.688   5.692  0.2618  0.3463  0.1748
  103MOL   C16239126   0.505   6.786   5.760 -0.0561 -0.7505 -0.1133
  103MOL   H16339127   0.694   6.798   5.874 -0.0189  1.2689 -0.3756
  103MOL   H16439128   0.621   6.863   5.503 -0.6005  0.0768  0.4304
  103MOL   H16539129   0.737   6.734   5.329  1.9873  3.3003 -0.6360
  103MOL   H16639130   1.013   6.633   5.297  1.1274  0.4579  2.7755
  103MOL   H16739131   1.010   6.481   5.394 -0.0306 -0.0838 -0.3126
  103MOL   H16839132   0.871   6.519   5.287  2.0766 -1.9654 -1.5771
  103MOL   H16939133   0.989   6.553   5.629 -1.1022 -0.0858  0.8511
  103MOL   H17039134   0.868   6.670   5.796 -0.7182 -0.3460  0.2487
  103MOL   H17139135   0.457   6.823   5.670 -0.6236 -0.5369  0.2711
  103MOL   H17239136   0.447   6.821   5.846  1.0077 -1.7014  1.0029
  103MOL   C17339137   0.507   6.630   5.770  0.3801 -0.2151  0.5406
  103MOL   C17439138   0.376   6.570   5.714  0.5444  0.0621  0.1592
  103MOL   C17539139   0.249   6.602   5.759  0.2579 -0.6304  0.1605
  103MOL   C17639140   0.130   6.541   5.713 -0.0978 -0.2156 -0.2784
  103MOL   C17739141   0.141   6.439   5.622  0.3648 -0.0613 -0.0179
  103MOL   C17839142   0.019   6.357   5.581 -0.3207  0.0850 -0.3900
  103MOL   C17939143   0.265   6.404   5.575  0.2467  0.0736  0.0031
  103MOL   C18039144   0.382   6.472   5.611  0.2400 -0.5651  0.5476
  103MOL   C18139145   0.521   6.575   5.917  0.2015  0.0953 -0.5340
  103MOL   H18239146   0.588   6.582   5.715  2.2479  1.9016  1.3799
  103MOL   H18339147   0.249   6.672   5.841 -0.1970  0.1257 -0.4832
  103MOL   H18439148   0.048   6.548   5.783 -0.2978  0.3430 -0.5678
  103MOL   H18539149   0.034   6.302   5.487  1.4428 -2.1074  1.1171
  103MOL   H18639150   0.014   6.274   5.652  3.8400 -1.3273 -1.5919
  103MOL   H18739151   8.012   6.423   5.575 -0.5533 -0.1589  0.2399
  103MOL   H18839152   0.265   6.325   5.501 -0.8782 -0.4191  0.5133
  103MOL   H18939153   0.470   6.450   5.552 -0.2727 -0.3276 -0.3125
  103MOL   H19039154   0.435   6.605   5.977 -0.2878 -0.1632 -1.0966
  103MOL   H19139155   0.597   6.616   5.983  1.8635 -1.2800 -1.5623
  103MOL   C19239156   0.528   6.416   5.932 -0.4874 -0.3887 -0.7281
  103MOL   C19339157   0.497   6.369   6.075  0.9243  0.8679  0.1535
  103MOL   C19439158   0.577   6.415   6.185 -0.5367  0.7697 -0.2667
  103MOL   C19539159   0.558   6.368   6.316  0.3701 -0.1419 -0.3247
  103MOL   C19639160   0.462   6.266   6.335 -0.9254 -0.5856 -0.1594
  103MOL   C19739161   0.432   6.209   6.467 -0.1146 -0.5778 -0.0858
  103MOL   C19839162   0.382   6.216   6.233 -0.9271 -0.2417  1.3895
  103MOL   C19939163   0.393   6.280   6.106 -0.3180  0.5542  0.0388
  103MOL   C20039164   0.670   6.370   5.887 -0.6011 -0.1785 -0.2178
  103MOL   H20139165   0.449   6.371   5.871 -0.9554  0.1372 -0.5183
  103MOL   H20239166   0.657   6.484   6.162  0.0534  0.0570 -0.4003
  103MOL   H20339167   0.619   6.403   6.398 -1.2076 -2.2271  1.7906
  103MOL   H20439168   0.355   6.131   6.462  0.9179 -1.6063 -0.2026
  103MOL   H20539169   0.521   6.154   6.497  0.0880  0.9430  2.2181
  103MOL   H20639170   0.409   6.275   6.550 -2.4480 -1.3659 -0.0600
  103MOL   H20739171   0.299   6.150   6.252 -1.3370 -0.3172 -0.5832
  103MOL   H20839172   0.330   6.246   6.025 -0.6784  3.2429 -0.8493
  103MOL   H20939173   0.744   6.441   5.923  0.5468 -0.7070 -1.4945
  103MOL   H21039174   0.661   6.384   5.779  2.2137 -1.6868 -0.6896
  103MOL   C21139175   0.706   6.220   5.913  0.5563 -0.2086 -0.0899
  103MOL   C21239176   0.847   6.186   5.868 -0.2485  0.5129 -0.8999
  103MOL   C21339177   0.943   6.132   5.957 -0.0779  0.0241 -0.8213
  103MOL   C21439178   1.067   6.091   5.913 -0.1056  0.3648 -1.1940
  103MOL   C21539179   1.109   6.118   5.777  0.7923  0.4678  0.3743
  103MOL   C21639180   1.244   6.082   5.729  0.0438 -0.1062 -0.1218
  103MOL   C21739181   1.021   6.190   5.690  0.5252  0.4601  0.0023
  103MOL   C21839182   0.888   6.222   5.736  0.2227 -0.0501  0.4906
  103MOL   C21939183   0.603   6.122   5.846  0.1695 -0.4384  0.0239
  103MOL   H22039184   0.705   6.208   6.022 -1.9226  0.3779 -0.0149
  103MOL   H22139185   0.923   6.110   6.061 -0.5718 -0.9491 -1.1143
  103MOL   H22239186   1.136   6.051   5.986  1.6803 -1.4427 -3.7712
  103MOL   H22339187   1.247   6.098   5.621 -1.3115 -1.1662 -0.3301
  103MOL   H22439188   1.314   6.147   5.782  0.7782 -1.2436  0.3304
  103MOL   H22539189   1.260   5.975   5.746 -0.2543 -0.4263 -1.7147
  103MOL   H22639190   1.059   6.220   5.593  1.1707 -4.5250 -1.4026
  103MOL   H22739191   0.824   6.268   5.662  0.5939  2.5281  1.7295
  103MOL   H22839192   0.612   6.140   5.739 -2.7265  1.7913  0.1097
  103MOL   H22939193   0.500   6.156   5.853  0.6603  1.2618 -0.6946
  103MOL   C23039194   0.618   5.975   5.876 -0.1402  0.1803  0.2962
  103MOL   C23139195   0.593   5.900   5.746 -0.0409  0.5432 -0.2419
  103MOL   C23239196   0.704   5.842   5.683 -0.7247 -0.2408 -0.4097
  103MOL   C23339197   0.690   5.771   5.566 -0.5026 -1.0585  0.3482
  103MOL   C23439198   0.561   5.754   5.513  0.0298 -0.5180  0.1899
  103MOL   C23539199   0.550   5.669   5.389 -0.0406  0.4163 -0.4293
  103MOL   C23639200   0.449   5.810   5.575 -0.3329 -0.0330  0.8736
  103MOL   C23739201   0.465   5.876   5.698  0.1826 -0.8153 -0.0579
  103MOL   C23839202   0.533   5.931   5.995 -0.1634  0.0879  0.2025
  103MOL   H23939203   0.720   5.948   5.904  0.0742 -0.8205 -1.3800
  103MOL   H24039204   0.798   5.847   5.737 -0.5528  2.4236 -0.8794
  103MOL   H24139205   0.773   5.715   5.524 -1.8693 -0.8244 -2.7985
  103MOL   H24239206   0.579   5.714   5.295  0.3843  0.4638 -0.2756
  103MOL   H24339207   0.622   5.589   5.409 -0.1921  0.5339  0.6187
  103MOL   H24439208   0.450   5.628   5.371 -0.2710  1.5107 -1.7039
  103MOL   H24539209   0.348   5.804   5.537 -0.5556  0.3509  1.3942
  103MOL   H24639210   0.383   5.919   5.753  1.3047  0.0493  0.9534
  103MOL   H24739211   0.429   5.963   5.983 -0.6780 -1.8089 -0.6779
  103MOL   H24839212   0.575   5.988   6.077 -0.4938  2.1229 -1.0152
  103MOL   C24939213   0.517   5.783   6.032 -0.1222  1.0011  0.4941
  103MOL   C25039214   0.400   5.763   6.129 -0.4708  0.8006  0.0919
  103MOL   C25139215   0.407   5.822   6.257  1.1390  0.0811 -0.0605
  103MOL   C25239216   0.302   5.807   6.346 -0.1179  0.4258 -0.4761
  103MOL   C25339217   0.187   5.732   6.314  1.0558 -0.5952 -0.1704
  103MOL   C25439218   0.072   5.724   6.415  0.4192 -0.3863  0.3117
  103MOL   C25539219   0.181   5.670   6.188 -0.3413  0.3307  0.0609
  103MOL   C25639220   0.278   5.704   6.090  1.1660 -0.0064  0.6972
  103MOL   C25739221   0.652   5.720   6.085  0.4525  0.6410  0.4964
  103MOL   H25839222   0.480   5.729   5.946 -1.4382 -1.4818  2.5471
  103MOL   H25939223   0.497   5.874   6.285  1.3115  1.4144 -2.9226
  103MOL   H26039224   0.311   5.852   6.444  1.2420 -0.1687 -0.3225
  103MOL   H26139225   0.115   5.718   6.514 -0.3129 -0.0305  0.6536
  103MOL   H26239226   0.016   5.818   6.411  2.7589  1.1753  2.8810
  103MOL   H26339227   8.077   5.647   6.396 -3.4224  3.5504 -1.3964
  103MOL   H26439228   0.093   5.615   6.159  0.7392 -1.4925  0.1961
  103MOL   H26539229   0.268   5.657   5.993 -1.0816  1.2573  0.2965
  103MOL   H26639230   0.652   5.698   6.191  0.5404 -1.1863  0.1300
  103MOL   H26739231   0.728   5.796   6.070 -0.6732  1.5841 -0.6426
  103MOL   C26839232   0.678   5.584   6.021  0.4446 -0.0289 -0.2398
  103MOL   C26939233   0.558   5.486   6.021  1.0008  0.3715 -0.3878
  103MOL   C27039234   0.487   5.459   6.140 -0.5343 -0.7321  0.0994
  103MOL   C27139235   0.380   5.369   6.139 -0.2680  0.0254 -0.4219
  103MOL   C27239236   0.331   5.316   6.020  0.2697 -0.2684  0.2573
  103MOL   C27339237   0.206   5.231   6.021  0.9085 -0.2579 -0.9358
  103MOL   C27439238   0.400   5.349   5.899 -0.0304  0.1180  0.1112
  103MOL   C27539239   0.510   5.437   5.899  0.4396 -0.4772 -0.3344
  103MOL   C27639240   0.803   5.517   6.077 -0.7378  1.0280 -0.2695
  103MOL   H27739241   0.696   5.619   5.920  1.8574  2.2499  0.7739
  103MOL   H27839242   0.518   5.518   6.226  1.6846  0.9825 -1.8053
  103MOL   H27939243   0.326   5.349   6.229  1.2570  0.1112  0.5379
  103MOL   H28039244   0.128   5.289   5.973  1.0930  1.1782  0.4331
  103MOL   H28139245   0.209   5.145   5.954  0.9249 -1.9488  1.1588
  103MOL   H28239246   0.175   5.187   6.116  0.1644  2.5899  0.2160
  103MOL   H28339247   0.363   5.309   5.806 -2.0762 -0.7268  1.2388
  103MOL   H28439248   0.556   5.464   5.805  2.0049 -1.0582  0.2397
  103MOL   H28539249   0.808   5.412   6.046 -1.5562  1.1500 -0.8479
  103MOL   H28639250   0.802   5.518   6.186 -4.3173  1.0463 -0.2174
  103MOL   C28739251   0.941   5.574   6.027  0.0381 -0.5685 -0.0182
  103MOL   C28839252   0.963   5.582   5.878 -0.1145  0.5432 -0.0468
  103MOL   C28939253   1.043   5.686   5.826  0.8062 -0.4720 -0.2041
  103MOL   C29039254   1.088   5.687   5.698 -0.1157  0.0808 -0.4382
  103MOL   C29139255   1.034   5.590   5.612  0.1084  0.3609 -0.0918
  103MOL   C29239256   1.089   5.591   5.467 -0.6083  0.1638 -0.2116
  103MOL   C29339257   0.944   5.490   5.658  0.2756 -0.4919 -0.2267
  103MOL   C29439258   0.913   5.482   5.795 -0.1922  0.4517 -0.2436
  103MOL   C29539259   1.065   5.513   6.097  0.2760 -0.3372  0.1839
  103MOL   H29639260   0.940   5.679   6.057  1.1838 -0.4349 -0.4173
  103MOL   H29739261   1.071   5.769   5.889  1.6759 -0.1892 -0.9588
  103MOL   H29839262   1.158   5.757   5.655 -0.5492  1.0857  0.4535
  103MOL   H29939263   1.165   5.514   5.464  1.1043  1.7475  1.4952
  103MOL   H30039264   1.002   5.581   5.403  0.4437 -0.1103 -1.6105
  103MOL   H30139265   1.144   5.684   5.453 -0.8395 -0.0445 -2.6736
  103MOL   H30239266   0.913   5.405   5.599 -0.3120 -0.6072  0.2347
  103MOL   H30339267   0.855   5.402   5.838  1.9202  0.4041  2.6907
  103MOL   H30439268   1.149   5.545   6.035 -0.0125 -1.4424 -0.7848
  103MOL   H30539269   1.048   5.406   6.091  0.0123 -0.3474  1.1501
  103MOL   C30639270   1.090   5.566   6.239 -0.1246  0.0697 -0.0328
  103MOL   C30739271   1.169   5.695   6.240  0.2859  0.1659 -0.4142
  103MOL   C30839272   1.310   5.699   6.205 -0.1487  0.1113  0.1613
  103MOL   C30939273   1.379   5.822   6.206 -0.3130  0.1491  0.3525
  103MOL   C31039274   1.307   5.937   6.232  0.1975  0.7981  0.1751
  103MOL   C31139275   1.376   6.075   6.227 -0.3762  0.3007 -0.3586
  103MOL   C31239276   1.169   5.937   6.264  0.1926  0.4039 -0.9188
  103MOL   C31339277   1.099   5.814   6.269  0.1822 -0.2442 -0.1602
  103MOL   C31439278   1.164   5.474   6.337 -0.4721 -0.0561 -0.0916
  103MOL   H31539279   0.998   5.595   6.289  0.0374  0.7702 -0.1403
  103MOL   H31639280   1.361   5.613   6.164 -1.2375 -1.3225  1.7380
  103MOL   H31739281   1.485   5.824   6.185 -0.6650  0.8183 -1.3776
  103MOL   H31839282   1.386   6.101   6.121 -0.1652  1.5815 -0.0243
  103MOL   H31939283   1.306   6.147   6.268 -2.1927 -1.0764 -0.9644
  103MOL   H32039284   1.475   6.087   6.272 -0.7432  0.1580  0.4806
  103MOL   H32139285   1.104   6.022   6.281 -1.6371 -1.5725  2.4708
  103MOL   H32239286   0.993   5.807   6.290  0.4123 -0.1387  1.0630
  103MOL   H32339287   1.165   5.534   6.429 -2.0308  0.0012 -0.1018
  103MOL   H32439288   1.268   5.453   6.312 -0.1361  1.0991  0.2549
  103MOL   C32539289   1.088   5.342   6.366  0.3628  0.0409  0.4631
  103MOL   C32639290   0.948   5.378   6.416 -0.9131 -0.4932  0.2932
  103MOL   C32739291   0.927   5.445   6.544  0.0564 -0.2177  0.2428
  103MOL   C32839292   0.794   5.479   6.579 -0.0700  0.1776  0.3825
  103MOL   C32939293   0.686   5.436   6.502  0.6829 -0.3017 -0.2771
  103MOL   C33039294   0.540   5.472   6.539 -0.8539  0.1027  0.1389
  103MOL   C33139295   0.704   5.357   6.388  0.5237  0.2788  0.6435
  103MOL   C33239296   0.836   5.334   6.344 -0.1027  0.5162 -0.0409
  103MOL   C33339297   1.154   5.246   6.462 -0.0286 -0.5280 -0.0647
  103MOL   H33439298   1.081   5.296   6.267  2.2838  2.4743 -0.8676
  103MOL   H33539299   1.012   5.470   6.607  0.5366 -1.6990  0.1919
  103MOL   H33639300   0.776   5.540   6.666  1.4258  1.3898 -0.1297
  103MOL   H33739301   0.532   5.486   6.647 -1.6358  3.9791 -0.3594
  103MOL   H33839302   0.493   5.552   6.483 -0.5538 -0.8938 -1.5773
  103MOL   H33939303   0.480   5.382   6.522 -4.4581  2.3006  0.8424
  103MOL   H34039304   0.618   5.326   6.331  1.4454 -0.7449 -0.2293
  103MOL   H34139305   0.851   5.283   6.249 -1.7705  1.6858 -0.9530
  103MOL   H34239306   1.152   5.294   6.559 -0.1787 -0.3803 -0.1413
  103MOL   H34339307   1.258   5.244   6.430  0.5682  2.3261  1.5704
  103MOL   C34439308   1.086   5.097   6.469 -0.2569 -0.2618 -0.0129
  103MOL   C34539309   1.155   5.025   6.583 -0.6624 -0.3830 -0.2740
  103MOL   C34639310   1.076   4.986   6.690 -0.2466  0.3300  1.1188
  103MOL   C34739311   1.135   4.908   6.796  0.1233  0.0317 -0.0360
  103MOL   C34839312   1.274   4.879   6.797  0.6330 -0.3983 -0.5851
  103MOL   C34939313   1.334   4.808   6.913 -0.3523  0.2209  0.3659
  103MOL   C35039314   1.348   4.920   6.683  0.3125  0.0183 -0.4201
  103MOL   C35139315   1.290   4.989   6.579  0.7506 -0.4199 -0.4773
  103MOL   C35239316   1.096   5.020   6.335 -0.0635 -0.4175 -0.4808
  103MOL   H35339317   0.983   5.115   6.500 -0.1624  1.0786 -0.4423
  103MOL   H35439318   0.975   5.024   6.693 -0.2903  0.5705 -2.2489
  103MOL   H35539319   1.070   4.868   6.872  0.6693 -0.9312 -0.0544
  103MOL   H35639320   1.281   4.837   7.003 -1.0740 -0.6912  0.2342
  103MOL   H35739321   1.333   4.700   6.904  0.7648  0.2151  0.1805
  103MOL   H35839322   1.439   4.837   6.913  0.0572 -1.2543  1.6656
  103MOL   H35939323   1.448   4.881   6.677  1.6042  3.3025 -1.0341
  103MOL   H36039324   1.340   5.026   6.490  1.4646  2.8361  1.1962
  103MOL   H36139325   1.202   5.012   6.312  0.5429 -1.0291  2.3563
  103MOL   H36239326   1.053   5.069   6.247  1.2626 -2.0366 -2.0906
  103MOL   C36339327   1.023   4.881   6.333  0.2125 -0.3505  0.4760
  103MOL   C36439328   1.069   4.816   6.200  0.6266  0.8445  0.0335
  103MOL   C36539329   1.036   4.873   6.078  0.0179 -0.1248 -0.8615
  103MOL   C36639330   1.056   4.805   5.957 -0.2583  0.6288 -0.0074
  103MOL   C36739331   1.117   4.683   5.957  0.4347  0.2740  0.3234
  103MOL   C36839332   1.146   4.608   5.832 -0.4391 -0.1338 -0.5563
  103MOL   C36939333   1.153   4.629   6.081 -0.6902  0.4434  0.4184
  103MOL   C37039334   1.126   4.687   6.208  0.3066  0.0874  0.1323
  103MOL   C37139335   0.871   4.890   6.353  0.5365  0.1588  0.1922
  103MOL   H37239336   1.061   4.805   6.401  0.7995 -1.3007 -0.8743
  103MOL   H37339337   0.980   4.966   6.079 -0.9996 -0.7408 -0.4887
  103MOL   H37439338   1.024   4.845   5.862  1.3873  0.8277 -0.4970
  103MOL   H37539339   1.242   4.555   5.835 -0.2668  0.2239  0.4120
  103MOL   H37639340   1.069   4.535   5.808 -0.5100 -0.3096  0.2080
  103MOL   H37739341   1.130   4.671   5.745  0.9459  0.8463 -0.1287
  103MOL   H37839342   1.207   4.536   6.088 -2.0277 -0.3836 -0.1310
  103MOL   H37939343   1.165   4.638   6.297  1.0866  0.6894  0.1293
  103MOL   H38039344   0.838   4.946   6.265  1.5836 -1.9114 -1.5854
  103MOL   H38139345   0.853   4.951   6.441 -0.4622 -0.6988  0.6008
  103MOL   H38239346   0.818   4.795   6.358 -3.3331  2.0623 -2.1707
  104MOL     C139347   6.400   6.797   0.952 -0.0964 -0.1035 -0.7253
  104MOL     C239348   6.334   6.751   0.823  0.0499 -0.5221  1.0762
  104MOL     C339349   6.399   6.771   0.698  0.3014 -0.1561 -0.7952
  104MOL     C439350   6.331   6.730   0.578 -0.0843 -0.1494  0.0673
  104MOL     C539351   6.207   6.670   0.581  0.2971  0.5400 -0.2789
  104MOL     C639352   6.142   6.636   0.444  1.0831 -0.0212  0.1692
  104MOL     C739353   6.144   6.640   0.703 -0.1036  0.5487 -0.0668
  104MOL     C839354   6.211   6.681   0.823 -0.4948 -0.0911  0.1402
  104MOL     C939355   6.324   6.910   1.023 -0.1975  0.7640  0.1002
  104MOL    H1039356   6.401   6.709   1.017  0.6065 -1.0918 -2.0709
  104MOL    H1139357   6.493   6.822   0.681 -0.2145  0.2854 -2.3968
  104MOL    H1239358   6.374   6.751   0.481 -1.1138  2.1840  0.0929
  104MOL    H1339359   6.141   6.529   0.421 -0.6111  0.3007 -1.3994
  104MOL    H1439360   6.037   6.666   0.449  1.3795  1.0753 -0.2481
  104MOL    H1539361   6.171   6.691   0.355  1.2277 -1.0711 -0.4478
  104MOL    H1639362   6.046   6.594   0.708 -0.2933  0.7860 -1.3553
  104MOL    H1739363   6.160   6.654   0.914  1.7243 -2.5889  0.7136
  104MOL    H1839364   6.238   6.861   1.070  2.9625 -1.4268  3.9327
  104MOL    H1939365   6.294   6.983   0.949 -2.2160  1.4056  1.4951
  104MOL    H2039366   6.504   6.829   0.945 -0.0580  0.3436  1.4815
  104MOL    C2139367   6.410   6.981   1.132 -0.4645 -0.4745 -0.3989
  104MOL    C2239368   6.441   6.892   1.258  0.4176 -0.2886 -0.5037
  104MOL    C2339369   6.350   6.868   1.361  0.8509 -0.0315  0.4392
  104MOL    C2439370   6.371   6.778   1.469  0.0094 -0.5969 -0.4234
  104MOL    C2539371   6.503   6.728   1.491 -0.7602  0.7092 -0.2687
  104MOL    C2639372   6.536   6.660   1.625 -0.0303 -0.1670 -0.3456
  104MOL    C2739373   6.594   6.751   1.393 -0.4005  0.0294 -0.4144
  104MOL    C2839374   6.563   6.820   1.273 -0.0180 -0.3103 -0.2707
  104MOL    C2939375   6.348   7.121   1.162 -0.4874 -0.0863 -0.4942
  104MOL    H3039376   6.510   7.000   1.093  1.0326 -1.3626  2.8200
  104MOL    H3139377   6.252   6.913   1.348  0.6507  0.1783  2.4515
  104MOL    H3239378   6.297   6.760   1.545 -0.0894 -0.5239 -0.5011
  104MOL    H3339379   6.494   6.559   1.624 -1.4202  0.3351  2.8933
  104MOL    H3439380   6.644   6.643   1.629  0.0555  0.2531 -0.8023
  104MOL    H3539381   6.482   6.711   1.704  0.7339 -2.0456  1.4291
  104MOL    H3639382   6.693   6.709   1.400  1.2565  4.0289  1.3813
  104MOL    H3739383   6.645   6.826   1.203 -0.1959 -2.0365 -0.6669
  104MOL    H3839384   6.386   7.150   1.260 -1.8130 -0.8325  0.2596
  104MOL    H3939385   6.240   7.108   1.171 -0.5685  0.2507 -0.9753
  104MOL    C4039386   6.354   7.230   1.056 -0.3989 -0.6149 -0.5170
  104MOL    C4139387   6.499   7.229   1.003 -0.3342 -0.5531 -0.5382
  104MOL    C4239388   6.616   7.241   1.085 -0.1908 -0.5961 -0.1568
  104MOL    C4339389   6.744   7.248   1.031 -0.0266  0.0553  0.5814
  104MOL    C4439390   6.760   7.238   0.892 -0.6157 -0.0186 -0.2729
  104MOL    C4539391   6.896   7.248   0.820  0.2718  0.4182 -0.0340
  104MOL    C4639392   6.647   7.229   0.812  0.0512  0.2054  0.6679
  104MOL    C4739393   6.519   7.213   0.862 -0.0978  0.3310  0.2769
  104MOL    C4839394   6.322   7.377   1.110 -0.3956 -0.5010  0.2593
  104MOL    H4939395   6.292   7.202   0.971 -0.3682 -1.5359 -0.2445
  104MOL    H5039396   6.612   7.251   1.193 -1.4649  1.5436 -0.3771
  104MOL    H5139397   6.833   7.255   1.093  1.1374  2.5499 -1.3114
  104MOL    H5239398   6.912   7.146   0.784 -1.7141 -0.2570  0.9660
  104MOL    H5339399   6.895   7.318   0.736 -0.0792  0.4431 -0.0082
  104MOL    H5439400   6.974   7.274   0.892  0.6931  1.1080 -0.7290
  104MOL    H5539401   6.641   7.222   0.705 -0.8461  1.8310  0.6035
  104MOL    H5639402   6.437   7.194   0.794 -0.2799  2.3645 -0.0959
  104MOL    H5739403   6.394   7.398   1.189 -2.0527  2.7966  0.9890
  104MOL    H5839404   6.227   7.389   1.163  0.8198  1.3779  2.1161
  104MOL    C5939405   6.323   7.488   1.007  0.0589 -0.7359  0.2209
  104MOL    C6039406   6.344   7.620   1.078 -0.5639  0.1151 -0.1356
  104MOL    C6139407   6.247   7.725   1.073  0.5956  0.3819  0.1595
  104MOL    C6239408   6.267   7.849   1.133  0.5750  0.3410 -0.3779
  104MOL    C6339409   6.391   7.882   1.194  0.0809 -0.3952  0.0200
  104MOL    C6439410   6.396   8.018   1.256 -0.7269 -0.5198  0.2546
  104MOL    C6539411   6.481   7.777   1.208 -0.0474  0.1735  0.1822
  104MOL    C6639412   6.461   7.650   1.144 -0.7066 -0.2599  0.1287
  104MOL    C6739413   6.209   7.482   0.900  0.5905 -0.2368  0.0838
  104MOL    H6839414   6.415   7.469   0.950  0.1604  1.4266 -0.3799
  104MOL    H6939415   6.152   7.712   1.024  0.5829  1.0779 -0.0020
  104MOL    H7039416   6.178   7.910   1.138 -1.3567 -2.2938 -1.1053
  104MOL    H7139417   6.495   8.049   1.290 -0.2817 -0.2110 -1.2926
  104MOL    H7239418   6.375   0.007   1.174 -1.0517  1.5474  2.0262
  104MOL    H7339419   6.314   8.034   1.326 -1.4032 -3.1026  0.1075
  104MOL    H7439420   6.572   7.806   1.259 -0.2013 -1.0554  1.1492
  104MOL    H7539421   6.541   7.577   1.146 -0.6798 -0.3523 -2.6947
  104MOL    H7639422   6.126   7.515   0.961  0.2293 -0.2571 -0.3912
  104MOL    H7739423   6.189   7.378   0.874 -0.2681 -0.5113  1.7842
  104MOL    C7839424   6.208   7.568   0.774  0.1426 -0.6575 -0.3714
  104MOL    C7939425   6.065   7.552   0.700 -0.9730  0.3722  0.0104
  104MOL    C8039426   5.995   7.666   0.666 -0.3664  0.6186  0.6477
  104MOL    C8139427   5.883   7.669   0.582  0.8232  0.2364 -0.1099
  104MOL    C8239428   5.840   7.543   0.531 -0.3965 -0.1856  0.1224
  104MOL    C8339429   5.716   7.531   0.443 -0.4248  0.1836 -0.9996
  104MOL    C8439430   5.912   7.425   0.560 -0.0699  0.2007  0.0978
  104MOL    C8539431   6.025   7.433   0.647 -0.2140  1.4204 -0.0694
  104MOL    C8639432   6.321   7.543   0.669  0.2254  0.2200 -0.1114
  104MOL    H8739433   6.212   7.669   0.814  1.3160 -0.2796 -1.4025
  104MOL    H8839434   6.036   7.757   0.707  0.6666  0.7896 -0.7529
  104MOL    H8939435   5.841   7.759   0.541  0.8564  0.8038  1.0942
  104MOL    H9039436   5.674   7.431   0.431 -1.6331  0.7810 -1.8340
  104MOL    H9139437   5.647   7.604   0.485 -0.6027 -0.7867  0.4275
  104MOL    H9239438   5.752   7.571   0.348  2.3843 -0.1685 -0.1346
  104MOL    H9339439   5.889   7.329   0.517  0.2015  0.0482  0.2914
  104MOL    H9439440   6.088   7.349   0.673  1.1025  2.9128  1.6171
  104MOL    H9539441   6.270   7.534   0.573  1.0479 -1.9297 -0.3732
  104MOL    H9639442   6.370   7.446   0.678 -1.3657 -0.6614 -0.7356
  104MOL    C9739443   6.430   7.662   0.673 -0.6979 -0.0428 -0.6004
  104MOL    C9839444   6.374   7.806   0.661  0.0653 -0.1538  0.0883
  104MOL    C9939445   6.415   7.906   0.750 -0.1618  0.3574 -0.5249
  104MOL   C10039446   6.368   8.041   0.737  0.0735  0.6981  0.2289
  104MOL   C10139447   6.269   8.067   0.635 -0.8101 -0.6717 -0.2548
  104MOL   C10239448   6.236   0.134   0.610 -0.6978 -0.0028  0.1299
  104MOL   C10339449   6.221   7.961   0.554  0.1442  0.0520 -0.6156
  104MOL   C10439450   6.281   7.837   0.559 -0.2641 -0.1493  0.6022
  104MOL   C10539451   6.545   7.644   0.570 -0.1832  0.3721 -0.7211
  104MOL   H10639452   6.483   7.658   0.768 -0.1932  1.9405 -0.7872
  104MOL   H10739453   6.472   7.870   0.834 -1.8957 -1.5810 -0.1104
  104MOL   H10839454   6.405   0.039   0.802  0.3350  3.1049 -2.7057
  104MOL   H10939455   6.129   0.152   0.604 -0.4434  1.8645  0.8184
  104MOL   H11039456   6.273   0.203   0.686 -1.5004  0.2902  0.2563
  104MOL   H11139457   6.282   0.161   0.514  1.7623  2.2719  1.8594
  104MOL   H11239458   6.138   7.982   0.487 -0.2531 -0.7715 -0.3828
  104MOL   H11339459   6.247   7.764   0.487  3.3833 -1.0030 -0.3755
  104MOL   H11439460   6.591   7.740   0.546 -0.2944  0.7965  0.6872
  104MOL   H11539461   6.490   7.603   0.486  1.7373 -0.7473 -1.4534
  104MOL   C11639462   6.648   7.541   0.622  0.0283  0.3112 -0.0442
  104MOL   C11739463   6.736   7.615   0.723  0.4462 -0.0904 -0.2976
  104MOL   C11839464   6.734   7.569   0.855  0.5160  0.4736  0.5563
  104MOL   C11939465   6.820   7.628   0.951  0.2229  0.1303  0.2449
  104MOL   C12039466   6.906   7.732   0.917 -0.4092 -0.3989 -0.1809
  104MOL   C12139467   6.996   7.785   1.016 -0.0460 -0.0773 -0.5279
  104MOL   C12239468   6.909   7.781   0.784 -0.4389 -1.0091  0.5600
  104MOL   C12339469   6.819   7.730   0.688 -0.1794  0.8551 -0.2753
  104MOL   C12439470   6.743   7.491   0.514 -0.8473  0.6368 -0.9599
  104MOL   H12539471   6.601   7.451   0.663  0.6266  0.7092  1.5586
  104MOL   H12639472   6.683   7.477   0.880 -0.0689  0.8727  0.8175
  104MOL   H12739473   6.813   7.599   1.055 -0.6329  0.1119  0.1908
  104MOL   H12839474   7.005   7.725   1.107  1.1999  2.0142  0.7802
  104MOL   H12939475   7.092   7.806   0.970  0.3151  0.5834  0.5037
  104MOL   H13039476   6.955   7.880   1.051  3.6774  0.7502  1.8506
  104MOL   H13139477   6.969   7.864   0.749 -1.0036 -0.4005  1.0141
  104MOL   H13239478   6.832   7.773   0.590 -1.4792  2.3691  0.1939
  104MOL   H13339479   6.793   7.405   0.558 -1.9383 -0.5502 -2.0162
  104MOL   H13439480   6.823   7.564   0.504  0.2549 -0.2704  0.9340
  104MOL   C13539481   6.679   7.440   0.381 -0.3646  0.2794 -0.6291
  104MOL   C13639482   6.569   7.339   0.398 -0.3461 -0.0224 -0.0877
  104MOL   C13739483   6.436   7.367   0.360 -0.2144 -0.0335  0.5239
  104MOL   C13839484   6.331   7.279   0.390  0.4044  0.7535  0.0554
  104MOL   C13939485   6.356   7.156   0.453  0.0548 -0.2266  0.0176
  104MOL   C14039486   6.242   7.066   0.484  0.5826  0.1033  0.0635
  104MOL   C14139487   6.492   7.120   0.476  0.2390 -0.3307  0.5414
  104MOL   C14239488   6.593   7.216   0.448 -0.1712 -0.2128  0.0541
  104MOL   C14339489   6.780   7.407   0.265  0.0940 -0.2761  0.3126
  104MOL   H14439490   6.635   7.534   0.347  2.4624  1.9856  0.2286
  104MOL   H14539491   6.412   7.458   0.305 -1.6802  0.2730  1.6413
  104MOL   H14639492   6.232   7.303   0.356  0.6710  1.3490 -0.3082
  104MOL   H14739493   6.271   6.968   0.447  1.8264  0.0701  1.0845
  104MOL   H14839494   6.239   7.063   0.593  1.2850 -0.9191  0.0649
  104MOL   H14939495   6.146   7.093   0.440  0.2144  0.7572  1.2310
  104MOL   H15039496   6.526   7.025   0.514  0.5935 -0.2668  0.3835
  104MOL   H15139497   6.692   7.193   0.482 -0.4719 -1.8366 -0.1244
  104MOL   H15239498   6.834   7.316   0.290  0.8349 -0.1033 -0.6408
  104MOL   H15339499   6.850   7.490   0.265 -0.5313  0.2980 -2.4384
  104MOL   C15439500   6.720   7.391   0.120  0.2293 -0.1980  0.1436
  104MOL   C15539501   6.743   7.249   0.064 -0.1625 -0.0645 -1.6981
  104MOL   C15639502   6.851   7.210   8.069 -0.5243 -0.0313  0.2609
  104MOL   C15739503   6.852   7.082   8.011 -0.5534  0.6520  0.5023
  104MOL   C15839504   6.752   6.988   8.026  1.0506 -0.8683  0.0268
  104MOL   C15939505   6.764   6.852   7.961 -0.1856  0.1156  0.3952
  104MOL   C16039506   6.652   7.026   0.034  0.3273 -0.2907 -0.6024
  104MOL   C16139507   6.648   7.151   0.098  0.2998  0.3346  0.9187
  104MOL   C16239508   6.758   7.501   0.024 -0.4041 -0.9290 -0.2771
  104MOL   H16339509   6.611   7.386   0.118  0.2078  0.2568  0.0899
  104MOL   H16439510   6.918   7.292   8.044  1.7360 -2.4121 -1.8913
  104MOL   H16539511   6.940   7.052   7.956 -0.0840  2.7147  0.0661
  104MOL   H16639512   6.698   6.779   8.008 -3.5750  1.9755 -1.2868
  104MOL   H16739513   6.739   6.852   7.854 -1.0811 -1.7740  0.5750
  104MOL   H16839514   6.864   6.813   7.978 -0.8858 -1.2667  1.4358
  104MOL   H16939515   6.571   6.956   0.050 -1.4699  1.7204 -0.6978
  104MOL   H17039516   6.582   7.165   0.182 -1.6812 -0.9096 -0.3703
  104MOL   H17139517   6.712   7.463   8.013 -1.1961 -0.9706  0.1397
  104MOL   H17239518   6.864   7.498   8.079  0.3360  1.5720  2.3536
  104MOL   C17339519   6.705   7.650   0.054  0.0196  0.4644 -0.6973
  104MOL   C17439520   6.558   7.676   0.103 -0.3118 -0.8183 -0.0381
  104MOL   C17539521   6.527   7.781   0.192 -0.3053  0.1521 -0.6719
  104MOL   C17639522   6.395   7.804   0.227  0.5660 -0.4836 -0.7037
  104MOL   C17739523   6.293   7.719   0.174 -0.8230 -0.9070  0.0091
  104MOL   C17839524   6.145   7.746   0.200  0.6521 -0.3572 -0.5925
  104MOL   C17939525   6.322   7.612   0.090 -0.1292 -0.1051  0.3870
  104MOL   C18039526   6.458   7.592   0.047  0.1412 -0.2131  0.3024
  104MOL   C18139527   6.712   7.749   8.021 -0.2615 -0.9114 -0.1621
  104MOL   H18239528   6.762   7.687   0.140 -1.0816 -2.5159  1.3932
  104MOL   H18339529   6.601   7.853   0.223  0.5754 -0.0328 -2.2637
  104MOL   H18439530   6.376   7.877   0.305 -0.7702 -0.6498 -0.8559
  104MOL   H18539531   6.079   7.762   0.114 -1.9272 -0.2742  1.3415
  104MOL   H18639532   6.112   7.654   0.248  0.9368 -0.7828 -1.1953
  104MOL   H18739533   6.141   7.830   0.269  0.1474  0.0360 -1.0907
  104MOL   H18839534   6.244   7.547   0.054  0.8742 -1.4761  0.6513
  104MOL   H18939535   6.474   7.511   8.058 -1.7834 -1.5834  1.4218
  104MOL   H19039536   6.699   7.854   8.048  1.7483 -0.8233  0.4996
  104MOL   H19139537   6.637   7.720   7.947 -1.5370 -2.4159  1.6723
  104MOL   C19239538   6.839   7.730   7.933 -0.2423  0.4351 -0.0590
  104MOL   C19339539   6.970   7.741   8.010 -0.0789  0.4555 -0.2714
  104MOL   C19439540   7.064   7.639   7.997 -0.5677  0.0122 -0.7254
  104MOL   C19539541   7.191   7.652   8.064 -0.4555 -0.3981 -0.3902
  104MOL   C19639542   7.214   7.765   0.068  0.0107 -1.1093  0.1919
  104MOL   C19739543   7.354   7.781   0.126  0.0778 -0.3502  0.0224
  104MOL   C19839544   7.115   7.867   0.080 -0.4104  1.0512  0.2463
  104MOL   C19939545   6.994   7.856   0.012 -0.2519  0.0410 -0.4265
  104MOL   C20039546   6.842   7.829   7.813 -0.1634 -0.3635  0.7264
  104MOL   H20139547   6.822   7.632   7.888 -4.5153  1.6187 -1.2548
  104MOL   H20239548   7.048   7.554   7.933  0.8205 -0.8537  0.0388
  104MOL   H20339549   7.274   7.585   8.045 -0.4368 -0.1036 -1.3760
  104MOL   H20439550   7.409   7.847   0.059 -2.9752 -0.4648 -2.7081
  104MOL   H20539551   7.342   7.823   0.226 -0.3337  0.9026 -0.5536
  104MOL   H20639552   7.402   7.683   0.129 -0.4685 -0.6626 -1.1972
  104MOL   H20739553   7.136   7.952   0.143  0.2294  0.9662  0.1543
  104MOL   H20839554   6.917   7.931   0.026  1.5468  1.7695  0.3416
  104MOL   H20939555   6.897   7.921   7.832  1.9776 -1.5991  0.6159
  104MOL   H21039556   6.737   7.851   7.792  0.7252  1.5528 -1.9438
  104MOL   C21139557   6.914   7.762   7.697 -0.0071  0.2230  0.1486
  104MOL   C21239558   7.067   7.776   7.699 -0.5607 -0.0890  0.0235
  104MOL   C21339559   7.129   7.905   7.707 -0.3958  0.2522  0.5585
  104MOL   C21439560   7.262   7.917   7.706 -0.3150  0.2067  0.1350
  104MOL   C21539561   7.354   7.814   7.713 -0.4200 -0.0276  0.4073
  104MOL   C21639562   7.501   7.840   7.730  0.8055 -0.3772 -0.2192
  104MOL   C21739563   7.296   7.687   7.699  0.4089  1.4093 -0.5231
  104MOL   C21839564   7.152   7.668   7.695  0.5908  0.0666 -0.0384
  104MOL   C21939565   6.846   7.811   7.562 -0.7415  0.0293  0.2614
  104MOL   H22039566   6.905   7.654   7.688  0.3295  0.0030  2.3103
  104MOL   H22139567   7.069   7.994   7.721 -0.3507  0.4759 -0.6835
  104MOL   H22239568   7.291   8.020   7.711 -1.4588  0.4865  1.1790
  104MOL   H22339569   7.548   7.742   7.735  0.5352 -0.4758  0.5048
  104MOL   H22439570   7.537   7.900   7.647 -0.1294 -1.1082 -1.1631
  104MOL   H22539571   7.517   7.906   7.816 -1.2779 -0.0262 -0.0701
  104MOL   H22639572   7.351   7.594   7.700 -1.2237  0.4286  0.0146
  104MOL   H22739573   7.111   7.569   7.682  1.2537 -0.3545  0.9759
  104MOL   H22839574   6.899   7.762   7.480  0.6940 -0.4913  1.4601
  104MOL   H22939575   6.857   7.919   7.554  1.5248 -0.0258  2.0646
  104MOL   C23039576   6.697   7.785   7.539  0.6309  0.6800  0.1695
  104MOL   C23139577   6.647   7.649   7.598  0.2570 -0.1890 -0.6768
  104MOL   C23239578   6.690   7.524   7.545  0.3063 -0.1007  0.7411
  104MOL   C23339579   6.632   7.404   7.589 -0.3489  0.2272 -0.4348
  104MOL   C23439580   6.542   7.415   7.695 -0.7419 -0.2399 -0.3300
  104MOL   C23539581   6.485   7.288   7.763  0.0217 -0.6895  0.0376
  104MOL   C23639582   6.498   7.534   7.748  0.3248  0.1656  0.0477
  104MOL   C23739583   6.556   7.651   7.703 -0.1067 -0.1474 -0.4347
  104MOL   C23839584   6.645   7.800   7.394 -0.2839 -0.3890 -0.8016
  104MOL   H23939585   6.639   7.862   7.589 -0.3362 -0.4374  0.7881
  104MOL   H24039586   6.755   7.527   7.458 -2.4829 -1.8049 -1.4772
  104MOL   H24139587   6.646   7.304   7.552 -0.8234 -0.8189  2.1075
  104MOL   H24239588   6.502   7.215   7.684 -0.0299 -0.6670  0.0062
  104MOL   H24339589   6.542   7.240   7.844  1.5465  1.9096  0.5568
  104MOL   H24439590   6.382   7.280   7.798  0.4925 -1.3910  1.3362
  104MOL   H24539591   6.423   7.542   7.826 -1.8098 -1.9526 -1.7315
  104MOL   H24639592   6.516   7.742   7.745 -1.8307 -1.9221  1.9580
  104MOL   H24739593   6.694   7.737   7.320  1.0660 -0.3156  0.0154
  104MOL   H24839594   6.663   7.897   7.348 -0.8752 -0.0541 -0.3333
  104MOL   C24939595   6.495   7.764   7.381  0.1001  0.3744 -0.5350
  104MOL   C25039596   6.468   7.728   7.236  0.1920  0.4610 -1.1582
  104MOL   C25139597   6.458   7.594   7.203  0.0108 -0.7626  0.1877
  104MOL   C25239598   6.409   7.549   7.073  0.4512 -0.4387  0.3338
  104MOL   C25339599   6.383   7.650   6.982 -0.0413  0.2266 -0.1001
  104MOL   C25439600   6.319   7.601   6.852  0.1139 -0.0368  0.2580
  104MOL   C25539601   6.399   7.789   7.012 -0.1337 -0.0034 -0.2899
  104MOL   C25639602   6.444   7.825   7.139  0.3805  0.2069 -0.3711
  104MOL   C25739603   6.402   7.879   7.437  0.6034 -0.6108  0.2791
  104MOL   H25839604   6.474   7.673   7.438  0.0988  0.7342  0.0365
  104MOL   H25939605   6.469   7.514   7.274  2.6551  0.4751  1.2149
  104MOL   H26039606   6.388   7.444   7.059  0.0327 -0.3801  0.5055
  104MOL   H26139607   6.309   7.688   6.788  1.9165 -1.0328 -1.4271
  104MOL   H26239608   6.390   7.545   6.792 -0.3836 -0.9606  0.5164
  104MOL   H26339609   6.218   7.566   6.876  0.1769 -1.0824 -0.9224
  104MOL   H26439610   6.375   7.859   6.934 -2.6478 -0.9861 -0.4329
  104MOL   H26539611   6.456   7.932   7.150 -0.4765  0.1860  0.9355
  104MOL   H26639612   6.426   7.974   7.391 -0.8272 -0.0856  0.5806
  104MOL   H26739613   6.414   7.899   7.544 -1.4708  1.6513  0.1335
  104MOL   C26839614   6.245   7.852   7.418 -0.2795  0.0002 -0.1171
  104MOL   C26939615   6.169   7.984   7.436  0.3306 -0.0579 -0.4782
  104MOL   C27039616   6.091   8.035   7.327  0.1055  0.3820  0.3651
  104MOL   C27139617   6.020   0.076   7.346 -0.1765  0.1435  0.5556
  104MOL   C27239618   6.015   0.151   7.467 -0.4543 -0.0354 -0.8937
  104MOL   C27339619   5.915   0.266   7.479 -0.0263 -0.7689 -0.4029
  104MOL   C27439620   6.098   0.105   7.572  0.3472  0.1183  0.6370
  104MOL   C27539621   6.177   8.068   7.553  0.4717 -0.4330  0.4340
  104MOL   C27639622   6.194   7.741   7.513 -0.7212 -0.0635 -0.4891
  104MOL   H27739623   6.241   7.825   7.312  2.8878 -0.2018 -0.2269
  104MOL   H27839624   6.090   7.976   7.237 -4.0985 -0.2305  0.7139
  104MOL   H27939625   5.963   0.110   7.261  1.7950  0.2608 -0.7688
  104MOL   H28039626   5.946   0.335   7.557 -0.5324 -1.0117  0.0189
  104MOL   H28139627   5.918   0.318   7.383  2.6360 -1.9361 -0.9787
  104MOL   H28239628   5.813   0.232   7.498 -0.0327 -1.2698 -1.3028
  104MOL   H28339629   6.101   0.156   7.668  2.7398 -0.0520  0.6702
  104MOL   H28439630   6.236   8.034   7.637  0.7250 -0.8082  0.1064
  104MOL   H28539631   6.272   7.699   7.576 -0.8169 -1.7207 -1.4332
  104MOL   H28639632   6.184   7.658   7.443 -0.7534 -0.5632  0.1128
  104MOL   C28739633   6.060   7.754   7.591 -0.7014  0.8984 -0.6239
  104MOL   C28839634   6.068   7.646   7.698 -0.5038 -0.7825 -0.2989
  104MOL   C28939635   6.093   7.513   7.662  0.0694 -0.6168  0.1249
  104MOL   C29039636   6.094   7.406   7.753 -0.8863  0.3605  0.0834
  104MOL   C29139637   6.097   7.436   7.889 -0.0564  0.0613  0.3933
  104MOL   C29239638   6.117   7.318   7.985  0.2152 -0.2316 -0.2614
  104MOL   C29339639   6.070   7.570   7.928 -0.1262 -0.0134  0.5653
  104MOL   C29439640   6.045   7.676   7.835  0.2986  0.3868  0.2122
  104MOL   C29539641   5.929   7.758   7.499 -0.1694  0.5481 -0.7256
  104MOL   H29639642   6.070   7.846   7.648 -0.9935  0.5840 -0.0537
  104MOL   H29739643   6.102   7.491   7.557 -1.5169  1.0346 -0.3960
  104MOL   H29839644   6.112   7.309   7.708 -0.6706  0.2304  0.4443
  104MOL   H29939645   6.200   7.255   7.951 -1.7595 -1.6148 -2.7476
  104MOL   H30039646   6.144   7.347   0.006  0.6438  0.4659 -0.5694
  104MOL   H30139647   6.023   7.262   7.977  0.2581 -0.0721 -2.1571
  104MOL   H30239648   6.059   7.597   8.032 -0.4731  0.1476  0.4903
  104MOL   H30339649   6.013   7.775   7.863 -0.3284  0.3443 -0.3548
  104MOL   H30439650   5.914   7.660   7.454 -0.4676  0.1500  0.2455
  104MOL   H30539651   5.937   7.840   7.426  1.2963  0.8265 -0.2829
  104MOL   C30639652   5.792   7.789   7.580  0.1065 -0.0967  0.3197
  104MOL   C30739653   5.664   7.794   7.496  0.4668 -0.5543 -0.6838
  104MOL   C30839654   5.651   7.881   7.384  0.4366  0.2507 -0.1652
  104MOL   C30939655   5.529   7.894   7.324  0.2224 -0.2178  0.4467
  104MOL   C31039656   5.418   7.824   7.356 -0.1109  0.9709  0.3578
  104MOL   C31139657   5.288   7.863   7.290 -0.3381 -0.3532  0.0355
  104MOL   C31239658   5.432   7.728   7.456 -0.1334 -0.5603 -0.3589
  104MOL   C31339659   5.553   7.712   7.518 -0.5047  0.7939  0.3867
  104MOL   C31439660   5.804   7.927   7.656 -0.4839 -0.7674  0.6669
  104MOL   H31539661   5.777   7.705   7.648  1.0828  0.1377  0.8441
  104MOL   H31639662   5.735   7.937   7.345 -1.2159  3.8056  1.2171
  104MOL   H31739663   5.525   7.971   7.249 -0.0084 -0.4257  0.2463
  104MOL   H31839664   5.305   7.939   7.214 -1.1034  0.2118  0.4140
  104MOL   H31939665   5.243   7.776   7.244  0.7170 -0.1405 -1.4394
  104MOL   H32039666   5.219   7.906   7.363  0.4826  1.1540 -0.0558
  104MOL   H32139667   5.348   7.669   7.490  0.9188 -1.3177  0.9572
  104MOL   H32239668   5.554   7.637   7.596  0.7134  0.8084  0.4014
  104MOL   H32339669   5.845   8.000   7.586 -2.4919  0.3378  0.5980
  104MOL   H32439670   5.878   7.912   7.734 -0.1354 -2.1656  0.0884
  104MOL   C32539671   5.684   7.991   7.716  0.1433 -0.3249  0.5506
  104MOL   C32639672   5.706   0.064   7.746 -0.2830  0.6806  0.7713
  104MOL   C32739673   5.610   0.161   7.708  0.5641 -0.1119  0.2170
  104MOL   C32839674   5.621   0.296   7.741 -0.0436  0.2881 -0.2200
  104MOL   C32939675   5.738   0.341   7.811  0.2687 -0.3670 -0.2944
  104MOL   C33039676   5.762   0.490   7.844 -0.6652 -0.0806 -0.2322
  104MOL   C33139677   5.831   0.247   7.861  0.0167  0.2028 -0.4217
  104MOL   C33239678   5.811   0.110   7.831  0.1346 -0.2006  0.1447
  104MOL   C33339679   5.650   7.915   7.848  0.0040 -0.0189 -1.0006
  104MOL   H33439680   5.604   7.991   7.642  0.9276 -2.6998 -0.3556
  104MOL   H33539681   5.520   0.126   7.659 -0.3224 -0.4421  2.0254
  104MOL   H33639682   5.549   0.371   7.710 -1.3756  0.0075  2.1158
  104MOL   H33739683   5.686   0.518   7.917  0.4036  1.2097  0.4141
  104MOL   H33839684   5.857   0.501   7.897 -1.5162  1.1014  1.0915
  104MOL   H33939685   5.753   0.555   7.757 -2.6427  0.5055  0.3814
  104MOL   H34039686   5.914   0.274   7.926  1.2857  0.4850 -2.1271
  104MOL   H34139687   5.885   0.038   7.863  1.9948  1.9737  0.9152
  104MOL   H34239688   5.730   7.942   7.917 -1.2628  0.4823  0.2963
  104MOL   H34339689   5.663   7.808   7.829 -2.2432 -0.1822 -1.7579
  104MOL   C34439690   5.513   7.943   7.910 -0.0012  0.1391  0.3426
  104MOL   C34539691   5.528   7.940   8.059  0.6213 -0.4822 -0.3260
  104MOL   C34639692   5.497   7.839   0.071  0.1734  0.4089  0.1249
  104MOL   C34739693   5.522   7.855   0.212 -1.4593  0.8822 -0.3078
  104MOL   C34839694   5.573   7.971   0.264  0.7456 -0.3406  0.4502
  104MOL   C34939695   5.590   7.992   0.415  0.2562  0.0167  0.1700
  104MOL   C35039696   5.609   8.073   0.172  0.0332 -0.1094 -0.3574
  104MOL   C35139697   5.583   8.055   0.033 -0.3005  0.0400 -0.5040
  104MOL   C35239698   5.401   7.855   7.852 -1.0031  0.1244  0.2018
  104MOL   H35339699   5.486   8.043   7.876  0.8451  0.2492 -0.0157
  104MOL   H35439700   5.463   7.743   0.036 -1.0202  0.2451  1.7037
  104MOL   H35539701   5.508   7.770   0.277 -1.4398  0.8735 -0.3145
  104MOL   H35639702   5.623   7.899   0.463 -0.1239 -0.8882 -1.2817
  104MOL   H35739703   5.655   8.076   0.437 -0.3000  0.2812  0.8115
  104MOL   H35839704   5.495   8.009   0.465  0.5472  1.2331  0.3191
  104MOL   H35939705   5.662   0.078   0.213 -0.1020 -1.0852  1.9581
  104MOL   H36039706   5.629   0.052   8.054  1.9800 -0.1460  0.9507
  104MOL   H36139707   5.415   7.752   7.884  1.7844  0.9796  2.0127
  104MOL   H36239708   5.409   7.853   7.744  0.6921 -0.0950  0.3048
  104MOL   C36339709   5.264   7.899   7.907  0.0287 -0.1266 -0.6403
  104MOL   C36439710   5.151   7.804   7.874 -0.0821 -0.4962  0.0124
  104MOL   C36539711   5.097   7.772   7.745 -0.3451 -0.2594  0.1785
  104MOL   C36639712   4.987   7.688   7.736  0.1784  0.3087  0.2322
  104MOL   C36739713   4.930   7.622   7.846  0.2307 -0.2148 -0.3996
  104MOL   C36839714   4.815   7.510   7.833 -0.0139  0.1537  0.7135
  104MOL   C36939715   4.985   7.648   7.973 -0.3783 -0.0042 -0.2629
  104MOL   C37039716   5.096   7.734   7.986 -0.6725  0.0319 -0.5873
  104MOL   C37139717   5.228   8.041   7.876  0.0940 -0.0232  0.0807
  104MOL   H37239718   5.270   7.899   8.016  0.8531 -1.9581 -0.6758
  104MOL   H37339719   5.136   7.817   7.655  0.2943 -0.3177  0.4222
  104MOL   H37439720   4.945   7.662   7.640  1.1346 -2.0621  0.3999
  104MOL   H37539721   4.719   7.562   7.832 -2.0461 -3.4851  0.3874
  104MOL   H37639722   4.832   7.449   7.744  1.5656 -0.9109  1.7104
  104MOL   H37739723   4.824   7.442   7.918 -1.1420 -0.9171 -0.0126
  104MOL   H37839724   4.942   7.603   8.061 -1.5320  0.6147 -0.4927
  104MOL   H37939725   5.134   7.757   0.005 -0.1839 -1.3886 -0.4260
  104MOL   H38039726   5.296   0.021   7.937  0.6153 -1.1176  0.5979
  104MOL   H38139727   5.131   8.067   7.919  0.7899  1.7033  0.6421
  104MOL   H38239728   5.236   8.069   7.771  0.3300  3.0770  0.8719
  105MOL     C139729   1.763   7.995   7.965  0.4466  0.1965 -0.2360
  105MOL     C239730   1.648   7.889   7.944  0.7535 -0.7020  0.2212
  105MOL     C339731   1.514   7.922   7.927  0.0919  0.1967  0.1191
  105MOL     C439732   1.414   7.830   7.885  0.0526 -0.9503  0.0285
  105MOL     C539733   1.452   7.693   7.872 -0.2481  0.3729 -0.6139
  105MOL     C639734   1.364   7.587   7.811  0.4035  0.2604 -0.8469
  105MOL     C739735   1.587   7.656   7.900  0.1289  0.4481 -0.4100
  105MOL     C839736   1.686   7.755   7.931  0.4431 -0.1779  0.2440
  105MOL     C939737   1.805   8.061   7.834  0.2109 -0.1049 -0.2338
  105MOL    H1039738   1.739   8.058   8.050 -0.9613  1.7018 -1.7120
  105MOL    H1139739   1.480   8.024   7.942  1.0762  0.7303 -1.1701
  105MOL    H1239740   1.313   7.863   7.864  0.3191  0.0502  0.2782
  105MOL    H1339741   1.308   7.632   7.729 -0.8549 -0.3836 -0.3584
  105MOL    H1439742   1.423   7.504   7.772 -1.7381 -0.4320 -2.7652
  105MOL    H1539743   1.287   7.550   7.878  1.3516  2.9491  1.8569
  105MOL    H1639744   1.621   7.553   7.896 -2.0835 -0.4162  1.5553
  105MOL    H1739745   1.791   7.730   7.928  0.8790  1.6033  0.1671
  105MOL    H1839746   1.715   0.035   7.805  1.0457  1.3055 -0.2176
  105MOL    H1939747   1.816   7.984   7.758 -1.3527 -0.7438  0.1528
  105MOL    H2039748   1.857   7.944   7.986  1.1040  1.0608 -1.0207
  105MOL    C2139749   1.917   0.084   7.847 -0.1966 -0.3651  0.2419
  105MOL    C2239750   1.866   0.210   7.912 -0.4954  0.3242 -0.3377
  105MOL    C2339751   1.775   0.297   7.850 -0.6681  0.8843  0.1272
  105MOL    C2439752   1.744   0.423   7.904  0.8196  0.2710 -0.5589
  105MOL    C2539753   1.800   0.459   8.028  0.0623 -0.3257  0.2006
  105MOL    C2639754   1.749   0.593   0.015  0.1617  0.3140  0.3468
  105MOL    C2739755   1.893   0.377   0.010 -0.4158 -0.3098  0.0644
  105MOL    C2839756   1.921   0.254   8.038 -0.2917  0.4949 -0.8057
  105MOL    C2939757   1.980   0.109   7.703 -0.0806  0.7430  0.1355
  105MOL    H3039758   1.991   0.041   7.914  0.7394  2.7779  1.3229
  105MOL    H3139759   1.743   0.275   7.750  0.9373 -0.1626 -0.1763
  105MOL    H3239760   1.675   0.486   7.850 -0.4035  0.6460  1.3845
  105MOL    H3339761   1.796   0.678   8.045 -1.8436  1.4580  0.3813
  105MOL    H3439762   1.642   0.597   8.077  0.0201 -0.7787  0.9099
  105MOL    H3539763   1.770   0.611   0.120  1.1181  0.7591  0.0929
  105MOL    H3639764   1.921   0.401   0.112  2.2097 -0.9453 -0.4733
  105MOL    H3739765   1.989   0.189   0.013 -0.3995 -0.5396 -1.8870
  105MOL    H3839766   1.910   0.162   7.638 -1.8081 -2.0682 -0.3726
  105MOL    H3939767   1.993   0.009   7.660 -1.7867  1.3176 -1.8168
  105MOL    C4039768   2.109   0.185   7.699 -0.5238 -0.7487  0.5749
  105MOL    C4139769   2.213   0.128   7.802 -0.1930  0.5384  0.5495
  105MOL    C4239770   2.259   8.077   7.794  0.2450 -0.2833 -0.2120
  105MOL    C4339771   2.349   8.027   7.886  0.8201  0.0981  0.6112
  105MOL    C4439772   2.390   0.031   7.993  0.3605 -0.1152 -0.2936
  105MOL    C4539773   2.472   8.051   0.027 -0.4941 -0.0159 -0.1450
  105MOL    C4639774   2.342   0.158   7.999  0.2548  0.1327 -0.2910
  105MOL    C4739775   2.259   0.211   7.905  1.0640  0.6476  0.2663
  105MOL    C4839776   2.105   0.343   7.703  0.7761 -0.1650  0.3911
  105MOL    H4939777   2.156   0.170   7.602 -1.2231 -0.1180  0.1306
  105MOL    H5039778   2.241   8.011   7.710  1.2412 -3.9523  2.3318
  105MOL    H5139779   2.388   7.926   7.879  1.2842  0.2579  0.9008
  105MOL    H5239780   2.530   7.963   0.002  0.4701  0.1810  1.3042
  105MOL    H5339781   2.541   0.041   0.074 -0.3556  0.7344 -1.4537
  105MOL    H5439782   2.399   8.020   0.102  1.2539 -1.2882  1.0530
  105MOL    H5539783   2.385   0.218   8.078  0.3766 -0.9867  0.4983
  105MOL    H5639784   2.221   0.312   7.916 -0.3878  0.2888 -1.2342
  105MOL    H5739785   2.207   0.382   7.710  0.3183  1.0594  0.3590
  105MOL    H5839786   2.054   0.376   7.794  1.3455 -0.5391  0.8495
  105MOL    C5939787   2.042   0.413   7.586 -0.0933 -0.1260  0.1925
  105MOL    C6039788   2.098   0.384   7.445 -0.0371 -0.4157  0.4133
  105MOL    C6139789   2.219   0.448   7.398 -0.1623 -0.1035  0.2766
  105MOL    C6239790   2.259   0.429   7.262 -0.1939 -0.0274 -0.1729
  105MOL    C6339791   2.191   0.338   7.178 -0.2807  0.0449  0.1247
  105MOL    C6439792   2.248   0.302   7.045 -0.4544 -0.1708  0.5147
  105MOL    C6539793   2.081   0.276   7.227  0.5665  0.3105  0.0019
  105MOL    C6639794   2.035   0.294   7.359 -0.5385 -0.4147  0.8350
  105MOL    C6739795   2.012   0.563   7.611 -0.3632  0.7613 -0.8453
  105MOL    H6839796   1.939   0.377   7.583 -0.7911  1.5027  2.6887
  105MOL    H6939797   2.275   0.512   7.465 -1.0927 -1.2169  2.1589
  105MOL    H7039798   2.351   0.474   7.229 -0.3029  0.8775  0.7190
  105MOL    H7139799   2.253   0.389   6.979  1.2613 -1.0265 -0.5435
  105MOL    H7239800   2.349   0.261   7.055  0.7555  1.6008 -3.0899
  105MOL    H7339801   2.195   0.219   6.999 -1.4365  0.8907 -0.2948
  105MOL    H7439802   2.030   0.209   7.160  3.8334 -1.3290 -0.9614
  105MOL    H7539803   1.938   0.256   7.386 -0.3229 -1.0474  0.7187
  105MOL    H7639804   2.106   0.605   7.644 -1.4848  1.4647  1.5632
  105MOL    H7739805   1.949   0.564   7.700 -0.1090 -1.6039 -0.6006
  105MOL    C7839806   1.962   0.647   7.493 -0.6075  0.0860 -0.1494
  105MOL    C7939807   1.982   0.792   7.512  0.2318  0.4141  0.1471
  105MOL    C8039808   2.093   0.854   7.453 -0.2003  0.3429 -0.5759
  105MOL    C8139809   2.128   0.986   7.482  0.4855 -0.1956 -0.3471
  105MOL    C8239810   2.052   1.059   7.580  0.4851  0.1300 -0.5240
  105MOL    C8339811   2.090   1.196   7.616  0.7484 -0.1075 -0.7569
  105MOL    C8439812   1.951   0.996   7.650 -0.2382  0.0483  0.1954
  105MOL    C8539813   1.907   0.865   7.609 -0.1933  0.3088  0.3317
  105MOL    C8639814   1.814   0.610   7.455 -0.4218  0.1859 -0.1996
  105MOL    H8739815   2.022   0.626   7.405 -1.6071 -0.7257 -0.6535
  105MOL    H8839816   2.159   0.793   7.394 -1.1293 -0.7320 -0.5237
  105MOL    H8939817   2.220   1.025   7.443  0.7355 -2.4465 -2.1626
  105MOL    H9039818   2.069   1.256   7.528 -1.0140  0.8653  0.2972
  105MOL    H9139819   2.043   1.239   7.705 -0.3829 -2.4832 -0.1434
  105MOL    H9239820   2.196   1.195   7.642 -0.0292  0.0711  2.7870
  105MOL    H9339821   1.896   1.039   7.733 -1.0720  0.6381 -0.6501
  105MOL    H9439822   1.836   0.820   7.676 -1.8461  0.7793 -1.0604
  105MOL    H9539823   1.742   0.674   7.504  0.6614  2.4498 -1.4880
  105MOL    H9639824   1.783   0.506   7.470  0.7551  0.0302  1.2111
  105MOL    C9739825   1.776   0.634   7.300 -0.2769 -0.0721  0.0096
  105MOL    C9839826   1.632   0.640   7.290  0.8900  0.2987  0.2095
  105MOL    C9939827   1.548   0.540   7.350  0.5013  0.4623  0.0611
  105MOL   C10039828   1.412   0.556   7.343  0.4808  1.2094  0.1287
  105MOL   C10139829   1.350   0.664   7.272  0.2680  0.6794 -0.2217
  105MOL   C10239830   1.201   0.691   7.268  0.5880 -0.3357 -0.1179
  105MOL   C10339831   1.431   0.756   7.210  0.4949  0.4847 -0.2749
  105MOL   C10439832   1.570   0.743   7.224  0.3695 -0.7143 -0.6091
  105MOL   C10539833   1.842   0.536   7.202 -0.0274 -0.0401  0.1700
  105MOL   H10639834   1.814   0.733   7.273  2.5030 -1.2844 -0.7009
  105MOL   H10739835   1.571   0.458   7.417  0.3264 -0.8078 -1.4030
  105MOL   H10839836   1.342   0.491   7.394  0.9482  0.0385 -0.7187
  105MOL   H10939837   1.166   0.791   7.293 -0.6227 -0.6879 -0.3607
  105MOL   H11039838   1.168   0.680   7.165  0.6470  1.4953 -0.3444
  105MOL   H11139839   1.141   0.622   7.328  3.5022 -1.4500  1.6074
  105MOL   H11239840   1.391   0.839   7.153  0.6293  0.3652 -0.5445
  105MOL   H11339841   1.622   0.822   7.171  1.2562 -0.6856  0.2698
  105MOL   H11439842   1.804   0.436   7.224 -0.7815  0.7698  2.7482
  105MOL   H11539843   1.949   0.521   7.216  0.0958  0.3467 -0.3545
  105MOL   C11639844   1.818   0.558   7.050  0.0414  0.5326  0.0676
  105MOL   C11739845   1.758   0.432   6.976  0.7408 -0.1364 -0.0841
  105MOL   C11839846   1.619   0.428   6.957  0.7139  0.4007 -0.1234
  105MOL   C11939847   1.549   0.307   6.926  0.4222  0.2507  0.2156
  105MOL   C12039848   1.626   0.191   6.902  0.2553  0.1620 -0.0870
  105MOL   C12139849   1.561   0.066   6.867 -0.3110 -0.2220 -0.3048
  105MOL   C12239850   1.767   0.195   6.912 -0.0799  0.0807 -0.3189
  105MOL   C12339851   1.835   0.312   6.959  0.2979  0.6734  0.3506
  105MOL   C12439852   1.951   0.595   6.976  0.6086  0.4330 -0.2386
  105MOL   H12539853   1.742   0.636   7.059  0.2955  0.5747  1.9262
  105MOL   H12639854   1.554   0.509   6.984  0.8785 -0.2218  2.2769
  105MOL   H12739855   1.442   0.312   6.913  0.1824 -1.8300  1.2490
  105MOL   H12839856   1.537   0.060   6.761 -1.1108 -0.0822 -0.1367
  105MOL   H12939857   1.607   8.057   6.910 -1.7424 -0.4661  0.7685
  105MOL   H13039858   1.471   0.069   6.928 -1.1915  0.5396 -1.6054
  105MOL   H13139859   1.823   0.104   6.897  2.2498  1.5480 -0.7382
  105MOL   H13239860   1.943   0.306   6.960  0.3272  0.3936 -1.7527
  105MOL   H13339861   1.919   0.593   6.871  0.8741  1.7150 -0.3614
  105MOL   H13439862   2.028   0.518   6.974 -0.5480 -0.7453 -0.2775
  105MOL   C13539863   2.013   0.730   7.003  0.0867  0.1790  0.3358
  105MOL   C13639864   1.916   0.847   7.022 -0.1513 -0.6399  0.1390
  105MOL   C13739865   1.925   0.929   7.137 -0.0458 -0.4822 -0.7495
  105MOL   C13839866   1.849   1.042   7.138 -0.1731 -0.6534 -0.0125
  105MOL   C13939867   1.752   1.071   7.042 -0.3301  0.5563  0.3799
  105MOL   C14039868   1.672   1.197   7.056  0.3981 -0.2550 -0.6809
  105MOL   C14139869   1.735   0.982   6.935 -0.0164  0.7142 -0.2133
  105MOL   C14239870   1.819   0.868   6.924 -0.4092 -0.2012  0.0484
  105MOL   C14339871   2.139   0.765   6.918 -0.3666 -0.6059 -0.0712
  105MOL   H14439872   2.058   0.718   7.101  0.7688  0.9022  0.1162
  105MOL   H14539873   2.007   0.916   7.205 -0.8100 -2.1167 -0.1130
  105MOL   H14639874   1.864   1.108   7.222 -0.3233  0.2183 -0.6727
  105MOL   H14739875   1.605   1.192   7.142  1.0438 -4.2926 -0.3024
  105MOL   H14839876   1.754   1.269   7.064 -0.0927  0.2564 -0.1787
  105MOL   H14939877   1.617   1.225   6.966  0.5163  2.3983  0.0328
  105MOL   H15039878   1.668   0.999   6.852 -0.0037 -0.1272 -0.3973
  105MOL   H15139879   1.817   0.801   6.839 -1.0737 -0.5456  0.3362
  105MOL   H15239880   2.112   0.850   6.854  1.0413  1.1008  1.5521
  105MOL   H15339881   2.166   0.692   6.841 -0.5336 -2.7562  1.8582
  105MOL   C15439882   2.265   0.794   7.003  0.4001  0.4129 -0.5329
  105MOL   C15539883   2.263   0.926   7.083  0.3264  0.4478  0.6567
  105MOL   C15639884   2.193   1.038   7.040  0.2268 -0.2370 -0.3802
  105MOL   C15739885   2.205   1.163   7.108  0.1301  0.7995 -0.3975
  105MOL   C15839886   2.306   1.174   7.206 -0.6595 -0.7504 -0.0062
  105MOL   C15939887   2.326   1.309   7.275 -0.1881 -0.5980  0.1126
  105MOL   C16039888   2.386   1.067   7.243 -0.1716  0.3404  0.4602
  105MOL   C16139889   2.360   0.945   7.187  0.0740 -0.2267 -0.0248
  105MOL   C16239890   2.396   0.785   6.919 -0.3232 -0.1948 -0.3781
  105MOL   H16339891   2.279   0.711   7.071 -1.4951  0.3559 -0.2089
  105MOL   H16439892   2.130   1.030   6.953  1.1498  0.6288 -1.1341
  105MOL   H16539893   2.156   1.248   7.063 -1.3112 -0.5343 -1.3808
  105MOL   H16639894   2.360   1.295   7.378  2.4536  2.7556 -0.2094
  105MOL   H16739895   2.392   1.367   7.211 -2.7128 -0.2249 -2.2052
  105MOL   H16839896   2.232   1.360   7.260 -0.7544 -1.5329  0.4426
  105MOL   H16939897   2.460   1.074   7.322  0.3150  1.8039 -0.1032
  105MOL   H17039898   2.410   0.857   7.224 -0.2346 -0.6184 -0.5288
  105MOL   H17139899   2.394   0.708   6.842 -1.2577  2.7233 -3.3988
  105MOL   H17239900   2.480   0.764   6.985 -1.3260 -0.0307  0.9652
  105MOL   C17339901   2.458   0.910   6.850 -0.1025  0.0970  0.0875
  105MOL   C17439902   2.385   0.966   6.722 -0.0527 -0.6205  0.0724
  105MOL   C17539903   2.342   1.100   6.715 -0.3466  0.0084  0.2543
  105MOL   C17639904   2.271   1.147   6.605 -0.2286  0.1440 -0.4485
  105MOL   C17739905   2.247   1.065   6.490  0.5367 -0.3961 -0.5520
  105MOL   C17839906   2.169   1.119   6.372  0.3286 -0.0953  0.0276
  105MOL   C17939907   2.291   0.928   6.495 -0.0915 -0.5591 -0.9006
  105MOL   C18039908   2.360   0.882   6.611  0.2325 -0.2818  1.0786
  105MOL   C18139909   2.607   0.889   6.824 -0.1215  0.9356  0.0731
  105MOL   H18239910   2.452   0.991   6.923 -0.4923 -1.2555  1.5694
  105MOL   H18339911   2.352   1.168   6.799 -2.4630 -2.0741  2.2568
  105MOL   H18439912   2.243   1.251   6.607 -0.2008  0.1338  0.5438
  105MOL   H18539913   2.177   1.058   6.282  0.6301  0.5126 -0.3572
  105MOL   H18639914   2.062   1.129   6.394  0.5774  2.6464  0.1658
  105MOL   H18739915   2.205   1.219   6.350  1.2242 -0.6717 -1.1546
  105MOL   H18839916   2.276   0.860   6.412 -0.2923  0.0741 -1.3876
  105MOL   H18939917   2.387   0.778   6.616  1.1945 -0.0121  1.6490
  105MOL   H19039918   2.603   0.814   6.745 -2.2040 -0.5680  1.5449
  105MOL   H19139919   2.657   0.850   6.912 -1.9106 -0.4429  0.5131
  105MOL   C19239920   2.699   1.013   6.791 -0.2253 -1.2046  0.0029
  105MOL   C19339921   2.835   0.960   6.742 -0.6182  0.1509  0.6678
  105MOL   C19439922   2.849   0.939   6.599 -0.2048  0.6675  0.5456
  105MOL   C19539923   2.974   0.893   6.547  0.2178  0.0575 -0.2708
  105MOL   C19639924   3.068   0.842   6.636 -0.2600 -0.6885 -0.0058
  105MOL   C19739925   3.202   0.809   6.575 -0.4056  0.2697  0.9449
  105MOL   C19839926   3.057   0.862   6.776 -0.3561 -0.5440 -0.0651
  105MOL   C19939927   2.936   0.915   6.825  0.5262 -0.3822 -0.1691
  105MOL   C20039928   2.705   1.118   6.908 -0.2240  0.0224 -0.0168
  105MOL   H20139929   2.669   1.071   6.703  0.3432  0.5644  0.9385
  105MOL   H20239930   2.767   0.972   6.537 -0.3816 -1.1756 -0.2238
  105MOL   H20339931   2.984   0.879   6.440 -0.3471  0.0834 -0.3276
  105MOL   H20439932   3.268   0.761   6.647  0.6701 -0.9025 -0.7879
  105MOL   H20539933   3.192   0.743   6.489 -0.0585  0.0579  1.0668
  105MOL   H20639934   3.248   0.904   6.548 -1.5814  0.5682 -0.0746
  105MOL   H20739935   3.135   0.831   6.844 -1.3513  0.1283  1.4138
  105MOL   H20839936   2.913   0.916   6.931 -0.1499  0.5400 -0.3084
  105MOL   H20939937   2.729   1.054   6.993  1.6315  0.1012 -0.4603
  105MOL   H21039938   2.602   1.151   6.922 -0.6710 -1.8266  1.2264
  105MOL   C21139939   2.805   1.231   6.896 -0.2932 -0.7980  0.5149
  105MOL   C21239940   2.818   1.304   7.030 -0.3251  0.1406  1.2906
  105MOL   C21339941   2.702   1.333   7.109  0.1687 -0.5879  0.2117
  105MOL   C21439942   2.721   1.376   7.238 -0.2783 -0.3068  0.2774
  105MOL   C21539943   2.849   1.400   7.289 -0.0026 -0.0832 -0.5750
  105MOL   C21639944   2.859   1.454   7.432 -0.2169  0.0997 -0.2354
  105MOL   C21739945   2.966   1.357   7.219 -0.3646 -0.9620 -0.3046
  105MOL   C21839946   2.949   1.318   7.087  0.8436  0.4593  0.5898
  105MOL   C21939947   2.791   1.345   6.776 -0.6891 -0.2378 -1.0630
  105MOL   H22039948   2.905   1.190   6.878  0.5234 -0.0348  2.9941
  105MOL   H22139949   2.605   1.331   7.062 -0.5613 -1.2126  1.6955
  105MOL   H22239950   2.632   1.399   7.296 -0.4111 -1.5663  0.5801
  105MOL   H22339951   2.776   1.522   7.450 -1.6181 -1.1475 -1.8431
  105MOL   H22439952   2.852   1.373   7.505  0.0809 -1.0421 -1.4519
  105MOL   H22539953   2.949   1.515   7.427 -0.2516  0.1289 -0.5002
  105MOL   H22639954   3.064   1.376   7.260 -1.4174 -1.2592  2.4463
  105MOL   H22739955   3.032   1.295   7.023 -0.3200  0.8905 -1.1265
  105MOL   H22839956   2.794   1.446   6.815  0.7922 -0.3027 -0.9800
  105MOL   H22939957   2.694   1.329   6.730 -1.5154  2.0027 -0.1333
  105MOL   C23039958   2.895   1.335   6.669  0.6024 -0.9115  0.6351
  105MOL   C23139959   3.040   1.341   6.714  0.1763 -0.2318 -0.5390
  105MOL   C23239960   3.123   1.232   6.679 -0.6758  0.5006 -0.0281
  105MOL   C23339961   3.260   1.232   6.721 -0.3387 -0.5049 -0.2048
  105MOL   C23439962   3.304   1.336   6.806  0.8906 -0.6532 -0.0390
  105MOL   C23539963   3.440   1.335   6.872  0.4307 -0.6330 -0.8676
  105MOL   C23639964   3.219   1.445   6.833  0.0709 -1.4905  0.3282
  105MOL   C23739965   3.086   1.450   6.787  0.6218  0.3695  0.2340
  105MOL   C23839966   2.862   1.443   6.559  0.4239  0.3986 -0.1891
  105MOL   H23939967   2.872   1.239   6.623  0.4822 -0.3099 -0.5578
  105MOL   H24039968   3.081   1.158   6.613  0.8119 -0.8269  0.4868
  105MOL   H24139969   3.326   1.152   6.694  0.8190  0.3277  0.0903
  105MOL   H24239970   3.467   1.395   6.959 -0.1911 -2.3362  0.5281
  105MOL   H24339971   3.446   1.231   6.905  1.8283 -0.9138 -1.9550
  105MOL   H24439972   3.519   1.349   6.798 -1.5643  2.5344 -2.4755
  105MOL   H24539973   3.261   1.516   6.903 -3.1306  1.1302 -0.2450
  105MOL   H24639974   3.018   1.525   6.825  0.3325 -0.0629  0.5795
  105MOL   H24739975   2.939   1.433   6.483 -0.9788 -2.3031 -1.3449
  105MOL   H24839976   2.866   1.546   6.593 -2.0450 -0.5140  3.1520
  105MOL   C24939977   2.732   1.424   6.482  0.3939 -0.6448  1.1863
  105MOL   C25039978   2.724   1.296   6.403 -0.1418 -0.2753  0.1787
  105MOL   C25139979   2.828   1.247   6.325 -0.3994  0.6184 -0.5337
  105MOL   C25239980   2.821   1.120   6.265  0.4969 -0.2551  0.0797
  105MOL   C25339981   2.700   1.043   6.273 -0.2337 -0.2767 -0.1911
  105MOL   C25439982   2.683   0.909   6.202 -0.1986 -0.1244  1.0997
  105MOL   C25539983   2.594   1.089   6.352 -0.3951 -0.7076  0.1701
  105MOL   C25639984   2.609   1.213   6.420 -0.0047 -0.2532 -0.0360
  105MOL   C25739985   2.733   1.544   6.379 -0.1417  0.5085  0.5558
  105MOL   H25839986   2.647   1.445   6.547 -1.3219  0.4822 -1.3345
  105MOL   H25939987   2.919   1.302   6.303  0.4042 -0.7268 -0.5858
  105MOL   H26039988   2.907   1.088   6.209  0.3213 -3.4683  1.5223
  105MOL   H26139989   2.732   0.909   6.105  0.1088  1.8869  1.2396
  105MOL   H26239990   2.732   0.831   6.261  0.6217 -0.4663 -0.0230
  105MOL   H26339991   2.582   0.890   6.166 -0.7718  2.6804  1.0901
  105MOL   H26439992   2.497   1.045   6.367  0.1214 -1.9404  0.0004
  105MOL   H26539993   2.518   1.247   6.469 -0.8399  1.0936 -2.4435
  105MOL   H26639994   2.835   1.556   6.342 -0.9112  0.1865 -1.7750
  105MOL   H26739995   2.708   1.629   6.441 -2.4857 -0.2045  0.6476
  105MOL   C26839996   2.622   1.534   6.265 -0.4973  0.5693  0.3610
  105MOL   C26939997   2.655   1.650   6.167 -0.7740 -0.3082  0.6389
  105MOL   C27039998   2.767   1.631   6.073  0.6105  0.7821 -0.7059
  105MOL   C27139999   2.805   1.734   5.990 -0.1594 -0.0647  0.8273
  105MOL   C27240000   2.722   1.849   5.975 -0.5208 -0.0001 -0.1792
  105MOL   C27340001   2.762   1.970   5.880 -0.3613 -0.0517  0.3321
  105MOL   C27440002   2.604   1.855   6.053 -0.0066  0.0784  0.0456
  105MOL   C27540003   2.577   1.768   6.155  0.2197  0.3263  0.0806
  105MOL   C27640004   2.476   1.531   6.317 -0.2609  0.7215 -0.0512
  105MOL   H27740005   2.635   1.440   6.211 -0.6953  0.9713 -0.3851
  105MOL   H27840006   2.828   1.542   6.072  0.0272  0.3718 -0.2844
  105MOL   H27940007   2.885   1.715   5.921 -3.0133  1.1896 -2.9855
  105MOL   H28040008   2.842   2.030   5.924 -0.3937 -0.9442  1.5998
  105MOL   H28140009   2.802   1.926   5.789 -0.4705 -0.5007  0.5042
  105MOL   H28240010   2.678   2.038   5.867  0.5904  1.5001  1.9550
  105MOL   H28340011   2.546   1.939   6.018 -3.1939 -2.0985 -0.1349
  105MOL   H28440012   2.499   1.779   6.229 -1.3147  0.1051 -1.4495
  105MOL   H28540013   2.447   1.624   6.366  0.4134  1.0968 -0.3516
  105MOL   H28640014   2.475   1.466   6.404  2.1227  1.3987  0.5207
  105MOL   C28740015   2.365   1.502   6.214  0.3230  0.1303 -0.2501
  105MOL   C28840016   2.229   1.524   6.291 -1.1788 -0.0025  0.6041
  105MOL   C28940017   2.127   1.587   6.217 -0.0293 -0.8883 -0.7707
  105MOL   C29040018   2.001   1.603   6.276 -0.6305  0.0704 -0.1225
  105MOL   C29140019   1.974   1.570   6.411  0.4153  0.4375 -0.4674
  105MOL   C29240020   1.841   1.583   6.478 -0.8508 -0.2935 -0.0011
  105MOL   C29340021   2.078   1.502   6.483 -0.0559 -0.2093  0.9511
  105MOL   C29440022   2.207   1.482   6.426 -0.0765  0.3548  0.1178
  105MOL   C29540023   2.379   1.358   6.143 -0.3014 -0.0015 -0.9874
  105MOL   H29640024   2.357   1.578   6.136 -0.0527 -0.2724 -0.6116
  105MOL   H29740025   2.147   1.616   6.115 -0.4916  2.4476  0.0176
  105MOL   H29840026   1.928   1.654   6.215  1.8472  2.6402 -1.0897
  105MOL   H29940027   1.770   1.507   6.446 -1.6146  0.5110 -0.2189
  105MOL   H30040028   1.862   1.561   6.583  0.1654  2.6955  0.4658
  105MOL   H30140029   1.805   1.685   6.472  2.6849  0.9219 -2.0400
  105MOL   H30240030   2.060   1.472   6.585 -0.6222  2.6458  1.7377
  105MOL   H30340031   2.285   1.427   6.479 -0.0914 -0.6709 -0.9036
  105MOL   H30440032   2.278   1.316   6.142 -1.0493  1.4757  2.7176
  105MOL   H30540033   2.427   1.283   6.207  1.7343 -0.3703 -2.8790
  105MOL   C30640034   2.436   1.358   5.997  0.2462  0.1008  0.1091
  105MOL   C30740035   2.352   1.435   5.897 -0.2700 -0.2020  0.0178
  105MOL   C30840036   2.224   1.380   5.857  0.2818  0.0691  0.6336
  105MOL   C30940037   2.156   1.435   5.749  0.0120 -0.4936 -0.4300
  105MOL   C31040038   2.199   1.561   5.703 -0.2110  0.1009  0.6576
  105MOL   C31140039   2.127   1.628   5.586  0.0557  0.3764 -0.0522
  105MOL   C31240040   2.320   1.617   5.743  0.2404  0.4009 -0.1396
  105MOL   C31340041   2.405   1.553   5.839  0.0033 -0.2258 -0.1638
  105MOL   C31440042   2.463   1.214   5.956 -0.3360  0.2208  0.0828
  105MOL   H31540043   2.534   1.406   5.998  0.6340 -0.6348 -1.2052
  105MOL   H31640044   2.198   1.278   5.885 -2.1381  0.4180 -0.2165
  105MOL   H31740045   2.071   1.383   5.706  0.5820 -2.0908  0.3516
  105MOL   H31840046   2.022   1.640   5.612 -0.1214 -1.6126  0.2790
  105MOL   H31940047   2.167   1.729   5.590 -0.2686  0.4597  1.5132
  105MOL   H32040048   2.154   1.572   5.496  0.4436  0.7681 -0.1821
  105MOL   H32140049   2.347   1.713   5.703 -1.5253  1.5295  1.3088
  105MOL   H32240050   2.502   1.599   5.851  1.4353 -1.0355 -6.6447
  105MOL   H32340051   2.369   1.159   5.948  1.0305 -2.2021  0.1678
  105MOL   H32440052   2.527   1.168   6.031 -1.4520 -0.7170  0.4772
  105MOL   C32540053   2.525   1.204   5.823  0.2961  0.5508 -0.0472
  105MOL   C32640054   2.502   1.060   5.770  0.1802  0.3622  0.0864
  105MOL   C32740055   2.383   1.017   5.708 -0.1477 -0.2382  0.6226
  105MOL   C32840056   2.369   0.886   5.657 -0.0003 -0.1623  0.6181
  105MOL   C32940057   2.473   0.792   5.680 -0.4823  0.3007  1.4115
  105MOL   C33040058   2.468   0.654   5.623  0.1320  0.4878  0.1693
  105MOL   C33140059   2.591   0.833   5.739 -0.0868  0.5116 -0.8631
  105MOL   C33240060   2.605   0.965   5.784 -0.1049 -0.3590  0.6669
  105MOL   C33340061   2.665   1.264   5.807 -0.0965 -0.5533  0.1174
  105MOL   H33440062   2.453   1.258   5.761 -0.3854  0.1862  0.4072
  105MOL   H33540063   2.297   1.082   5.697 -0.7181 -1.1886 -0.5934
  105MOL   H33640064   2.283   0.862   5.595  0.2462 -1.0392  0.6098
  105MOL   H33740065   2.417   0.645   5.527  0.8674  0.4275 -0.2256
  105MOL   H33840066   2.570   0.616   5.613  0.2479  0.6422  0.7504
  105MOL   H33940067   2.409   0.587   5.686  0.2232 -0.3323 -0.5911
  105MOL   H34040068   2.669   0.759   5.747  0.2787  0.8695 -1.1027
  105MOL   H34140069   2.693   0.996   5.839 -0.7023 -0.0904  1.4919
  105MOL   H34240070   2.744   1.205   5.852  0.4196  2.0901  2.8788
  105MOL   H34340071   2.682   1.354   5.867 -0.1740  0.3037 -1.1301
  105MOL   C34440072   2.713   1.293   5.668 -0.5758 -0.0203  0.0251
  105MOL   C34540073   2.850   1.362   5.674  0.7190  0.0278  0.8016
  105MOL   C34640074   2.871   1.488   5.731  0.5455  0.1621  0.4289
  105MOL   C34740075   2.986   1.564   5.703 -0.9457 -0.8702  0.3027
  105MOL   C34840076   3.089   1.508   5.627  0.4004  0.1312  0.7936
  105MOL   C34940077   3.215   1.588   5.593  0.2296 -0.4824 -0.5120
  105MOL   C35040078   3.084   1.368   5.590  0.3863  0.6522 -0.4477
  105MOL   C35140079   2.959   1.300   5.615  0.4141  0.1609 -0.1495
  105MOL   C35240080   2.616   1.391   5.590 -0.8069  0.8770  0.9520
  105MOL   H35340081   2.733   1.202   5.611  1.4449 -0.4056  1.2805
  105MOL   H35440082   2.791   1.539   5.784 -2.2303 -0.4228 -3.0028
  105MOL   H35540083   2.992   1.662   5.748  1.2699 -0.1713 -1.4630
  105MOL   H35640084   3.262   1.554   5.501  1.4349  2.9163 -1.1933
  105MOL   H35740085   3.201   1.695   5.584  3.8932  0.0895 -0.0289
  105MOL   H35840086   3.294   1.574   5.667 -0.7107 -1.3384  0.3600
  105MOL   H35940087   3.158   1.306   5.542  1.2207  0.7007  0.7400
  105MOL   H36040088   2.943   1.201   5.576 -0.3093  0.3711 -0.3999
  105MOL   H36140089   2.676   1.449   5.520  1.3507 -0.2854  1.7733
  105MOL   H36240090   2.566   1.463   5.654 -0.1873  1.1651  1.1126
  105MOL   C36340091   2.527   1.314   5.493 -1.2375 -0.0355  0.8028
  105MOL   C36440092   2.598   1.243   5.387  0.3621  0.5487 -0.1398
  105MOL   C36540093   2.581   1.101   5.381  0.3919  1.1180  0.4898
  105MOL   C36640094   2.658   1.013   5.292  0.2418 -0.3915  0.5239
  105MOL   C36740095   2.738   1.075   5.199 -0.3357 -0.7075  0.2698
  105MOL   C36840096   2.802   1.001   5.085 -0.8227  0.2685 -0.2638
  105MOL   C36940097   2.754   1.213   5.207 -0.0773 -0.4127  0.1044
  105MOL   C37040098   2.684   1.303   5.292  0.5034  0.6784 -0.2260
  105MOL   C37140099   2.410   1.395   5.435 -0.8822  0.0597  0.6121
  105MOL   H37240100   2.472   1.237   5.546 -0.9557 -2.3507 -2.1130
  105MOL   H37340101   2.519   1.050   5.452 -0.9592  1.4323 -0.4605
  105MOL   H37440102   2.650   0.906   5.298 -2.7522 -0.2273  0.2715
  105MOL   H37540103   2.896   0.953   5.112 -1.4589 -0.8636 -0.0751
  105MOL   H37640104   2.734   0.920   5.061 -1.1375  0.3040  0.5006
  105MOL   H37740105   2.813   1.057   4.992 -1.5590  0.1744 -0.4074
  105MOL   H37840106   2.809   1.255   5.123 -1.3599  1.6353  0.2527
  105MOL   H37940107   2.690   1.409   5.274 -0.4795  0.5229 -1.4694
  105MOL   H38040108   2.433   1.471   5.360 -2.2583 -0.7749 -0.6690
  105MOL   H38140109   2.365   1.457   5.512 -1.6124 -1.5874  1.5311
  105MOL   H38240110   2.340   1.324   5.390  1.0636 -1.5803  0.1120
  106MOL     C140111   3.689   3.172   6.335 -0.4635  0.0194  0.2332
  106MOL     C240112   3.779   3.292   6.318 -0.0730 -0.2538  0.3170
  106MOL     C340113   3.910   3.299   6.363 -0.5095 -0.7009  0.9632
  106MOL     C440114   3.982   3.421   6.351  0.5788 -0.3528  0.0753
  106MOL     C540115   3.924   3.541   6.312  0.3968 -0.8296  0.2363
  106MOL     C640116   4.007   3.668   6.309  0.0167 -0.9619  0.2614
  106MOL     C740117   3.794   3.538   6.266 -0.1048  0.3503 -0.4698
  106MOL     C840118   3.723   3.414   6.270 -1.0205  0.2101  0.5721
  106MOL     C940119   3.577   3.209   6.436 -0.0942  1.0511  0.1848
  106MOL    H1040120   3.642   3.153   6.239  1.5936 -0.4632 -0.6993
  106MOL    H1140121   3.949   3.211   6.413 -1.4834 -1.9861 -0.4683
  106MOL    H1240122   4.087   3.416   6.375  0.5808 -1.6096 -0.1333
  106MOL    H1340123   3.995   3.710   6.209  0.8955 -1.6363 -0.1380
  106MOL    H1440124   3.979   3.733   6.391  0.7217 -1.0896  0.6128
  106MOL    H1540125   4.108   3.634   6.332 -0.7301 -0.7512  4.1253
  106MOL    H1640126   3.747   3.634   6.250 -0.9133 -0.2771 -1.9278
  106MOL    H1740127   3.618   3.415   6.244 -0.2760  0.3180 -2.7380
  106MOL    H1840128   3.521   3.287   6.385 -1.7009 -0.1878  0.0313
  106MOL    H1940129   3.617   3.244   6.531  0.1199  1.4157 -0.0373
  106MOL    H2040130   3.745   3.081   6.356  0.1138  0.4837  0.7450
  106MOL    C2140131   3.462   3.105   6.460  0.2831 -0.0832  0.2451
  106MOL    C2240132   3.331   3.160   6.508 -0.3175  0.1433 -0.4364
  106MOL    C2340133   3.211   3.123   6.442  0.8810 -0.0834 -0.2662
  106MOL    C2440134   3.087   3.176   6.475 -0.2313 -0.1657 -0.3020
  106MOL    C2540135   3.076   3.261   6.587  0.0511 -0.0650 -0.3441
  106MOL    C2640136   2.949   3.330   6.622 -0.6305 -0.0491  0.0366
  106MOL    C2740137   3.192   3.302   6.653 -0.2205  0.4035  0.2656
  106MOL    C2840138   3.317   3.251   6.616 -0.0467 -0.1250  0.0690
  106MOL    C2940139   3.516   3.000   6.556 -0.7904  0.1657  0.1496
  106MOL    H3040140   3.438   3.069   6.360 -0.9273  0.2615  0.3995
  106MOL    H3140141   3.218   3.049   6.363 -0.6720 -1.5367  0.9233
  106MOL    H3240142   2.996   3.158   6.419  0.6575 -1.0395 -1.4785
  106MOL    H3340143   2.884   3.334   6.535 -0.5960  1.2441  0.0584
  106MOL    H3440144   2.891   3.276   6.697 -0.9916 -0.8131 -0.7855
  106MOL    H3540145   2.972   3.426   6.668  0.7138 -0.5694  0.4621
  106MOL    H3640146   3.185   3.377   6.731 -0.1048  2.2150 -1.4201
  106MOL    H3740147   3.404   3.283   6.672 -0.8689  1.1536  0.6383
  106MOL    H3840148   3.512   3.047   6.655 -0.8857  0.5663 -0.0437
  106MOL    H3940149   3.615   2.963   6.531 -0.6775  2.0043 -2.2276
  106MOL    C4040150   3.424   2.869   6.567 -0.4483 -0.4740  0.2242
  106MOL    C4140151   3.403   2.827   6.713  0.0070 -0.1373  0.2133
  106MOL    C4240152   3.517   2.824   6.799 -0.4046 -0.9384 -0.1504
  106MOL    C4340153   3.499   2.793   6.940 -0.3278  0.0069  0.2576
  106MOL    C4440154   3.368   2.780   6.989  0.5150  0.5661 -0.0888
  106MOL    C4540155   3.346   2.763   7.135  0.1797  0.4368 -0.4910
  106MOL    C4640156   3.255   2.761   6.903 -0.5532  0.2754 -0.1071
  106MOL    C4740157   3.279   2.791   6.768 -0.0013 -1.1260 -0.1726
  106MOL    C4840158   3.484   2.755   6.479 -0.4633 -0.3463 -0.6337
  106MOL    H4940159   3.326   2.898   6.529 -0.9337 -0.6897  1.3196
  106MOL    H5040160   3.617   2.832   6.760 -0.7108 -0.5679 -0.8713
  106MOL    H5140161   3.580   2.811   7.009 -0.0007  2.7937 -0.8017
  106MOL    H5240162   3.403   2.838   7.191  0.6626  0.0768 -0.4886
  106MOL    H5340163   3.242   2.765   7.165 -0.0663 -2.4699 -1.0070
  106MOL    H5440164   3.380   2.662   7.158 -0.5116  0.3085 -0.0042
  106MOL    H5540165   3.152   2.741   6.930 -0.8683  2.1498  0.1418
  106MOL    H5640166   3.194   2.806   6.702 -0.2941  4.5821  1.2137
  106MOL    H5740167   3.415   2.675   6.505  0.4919 -0.5053  1.4565
  106MOL    H5840168   3.573   2.716   6.528 -1.3113 -1.7612 -0.1797
  106MOL    C5940169   3.502   2.769   6.328 -0.1580 -0.5909 -0.9240
  106MOL    C6040170   3.368   2.804   6.257  0.2176 -0.0088  0.0492
  106MOL    C6140171   3.368   2.899   6.156 -0.6583 -0.4046 -0.5206
  106MOL    C6240172   3.253   2.933   6.089 -0.0220 -0.1962 -0.0404
  106MOL    C6340173   3.140   2.847   6.103  0.9401 -0.0677 -0.2361
  106MOL    C6440174   3.021   2.857   6.005  0.6863  0.1531 -0.1206
  106MOL    C6540175   3.136   2.749   6.205 -0.3374  0.2372 -0.4895
  106MOL    C6640176   3.248   2.729   6.281 -0.1415 -1.0221  0.1954
  106MOL    C6740177   3.569   2.644   6.259  0.1169  0.7378  1.0540
  106MOL    H6840178   3.567   2.853   6.306  1.1149 -0.3270  3.3463
  106MOL    H6940179   3.461   2.947   6.129 -1.5582  2.2524  0.9054
  106MOL    H7040180   3.262   3.010   6.013  0.4153 -1.3992 -1.2218
  106MOL    H7140181   2.993   2.764   5.956  1.6412 -0.9656  1.4360
  106MOL    H7240182   2.938   2.885   6.069  1.5571  0.2498  0.9802
  106MOL    H7340183   3.043   2.938   5.935  1.7414 -0.1117 -0.0989
  106MOL    H7440184   3.054   2.682   6.226 -0.3321  0.8005  1.4143
  106MOL    H7540185   3.257   2.635   6.333 -1.2986 -1.4013 -0.2844
  106MOL    H7640186   3.546   2.640   6.153  1.9100  3.4829  0.5197
  106MOL    H7740187   3.528   2.558   6.312 -2.0078  2.3010  2.0354
  106MOL    C7840188   3.727   2.630   6.266 -0.2799  0.1196 -0.0872
  106MOL    C7940189   3.795   2.753   6.204  0.6883 -0.1667  0.2517
  106MOL    C8040190   3.758   2.796   6.073  0.5373 -0.9338  0.4664
  106MOL    C8140191   3.804   2.924   6.020  0.6200  0.0491 -0.0236
  106MOL    C8240192   3.903   2.996   6.092  0.1076 -0.1285  0.0931
  106MOL    C8340193   3.954   3.131   6.046  0.0602 -0.5118  0.0931
  106MOL    C8440194   3.943   2.942   6.220 -0.1812 -0.3050  0.3024
  106MOL    C8540195   3.893   2.823   6.278 -0.6998 -0.0096 -0.4115
  106MOL    C8640196   3.785   2.501   6.208  0.0048  0.5913 -0.5497
  106MOL    H8740197   3.752   2.630   6.372 -4.3611  0.2259  0.9789
  106MOL    H8840198   3.691   2.747   6.003  1.6895 -0.4970 -0.9759
  106MOL    H8940199   3.770   2.966   5.926  2.1170  2.1929  0.3493
  106MOL    H9040200   3.967   3.133   5.938  0.5355  0.4766  0.1602
  106MOL    H9140201   3.889   3.212   6.079 -0.7156 -0.7746 -0.7988
  106MOL    H9240202   4.050   3.157   6.091  0.0956 -2.9348  1.5277
  106MOL    H9340203   4.031   2.992   6.258  0.0634  0.3158 -1.0372
  106MOL    H9440204   3.928   2.789   6.374 -2.2378 -2.1994 -0.5768
  106MOL    H9540205   3.893   2.508   6.193  0.0095  0.8315 -0.4038
  106MOL    H9640206   3.747   2.476   6.109 -0.0157  2.0707 -0.9294
  106MOL    C9740207   3.766   2.378   6.302  0.5758  0.5568  0.4038
  106MOL    C9840208   3.869   2.378   6.417  0.1510  0.6145  0.5495
  106MOL    C9940209   4.012   2.362   6.396 -0.0703 -0.0503  0.5027
  106MOL   C10040210   4.094   2.355   6.507  0.0158 -0.9052  0.0322
  106MOL   C10140211   4.040   2.373   6.639 -0.2412 -0.1083  1.0502
  106MOL   C10240212   4.128   2.378   6.762  0.4487  0.9029 -0.2696
  106MOL   C10340213   3.900   2.386   6.653 -0.3322  0.9256  0.1802
  106MOL   C10440214   3.815   2.388   6.544 -0.4516 -0.2945  0.3909
  106MOL   C10540215   3.742   2.245   6.235 -0.1865  0.4423 -0.1322
  106MOL   H10640216   3.670   2.406   6.344  0.2782 -0.1664  0.2036
  106MOL   H10740217   4.048   2.335   6.298  2.0125  1.5891  0.7852
  106MOL   H10840218   4.200   2.340   6.496  0.1800 -0.4647  0.9455
  106MOL   H10940219   4.235   2.370   6.745  0.6519 -0.4778  1.4939
  106MOL   H11040220   4.111   2.470   6.819  1.1328  0.1429  1.1866
  106MOL   H11140221   4.098   2.302   6.835  1.1754  0.9294  0.0564
  106MOL   H11240222   3.870   2.399   6.756 -0.7947  1.0917  0.0241
  106MOL   H11340223   3.711   2.409   6.567 -0.0165  3.0750 -0.4546
  106MOL   H11440224   3.840   2.232   6.188 -0.9059 -2.1205 -1.0279
  106MOL   H11540225   3.667   2.259   6.159  0.5298  0.0762 -0.9175
  106MOL   C11640226   3.727   2.118   6.324  0.0229  0.3826  0.2411
  106MOL   C11740227   3.805   2.000   6.252  0.5157  0.3457  0.3306
  106MOL   C11840228   3.892   1.918   6.322 -0.1930  0.2233  0.3528
  106MOL   C11940229   3.967   1.820   6.251 -0.2788 -0.9131  0.5935
  106MOL   C12040230   3.936   1.797   6.115 -0.5537 -0.1125  0.4134
  106MOL   C12140231   4.020   1.696   6.037  0.4331  0.0295  0.1231
  106MOL   C12240232   3.843   1.877   6.045 -0.9387 -0.0205 -0.0655
  106MOL   C12340233   3.783   1.982   6.114  0.0321 -0.1396  0.5667
  106MOL   C12440234   3.579   2.083   6.339 -0.6985 -0.8671 -0.5717
  106MOL   H12540235   3.781   2.132   6.417 -0.0464  1.6542  0.0960
  106MOL   H12640236   3.926   1.940   6.422 -0.6283  1.5278  0.2263
  106MOL   H12740237   4.038   1.760   6.306  1.2165 -1.1500 -1.5420
  106MOL   H12840238   4.049   1.754   5.950  1.0098  0.9413  0.9101
  106MOL   H12940239   4.100   1.637   6.081  1.3433 -0.5138 -2.1703
  106MOL   H13040240   3.940   1.630   6.005  0.1422  1.2741 -1.7998
  106MOL   H13140241   3.827   1.870   5.939 -0.4131 -0.1776 -0.1309
  106MOL   H13240242   3.712   2.040   6.056 -0.0767 -0.0123  0.8242
  106MOL   H13340243   3.576   1.995   6.404 -2.3993 -1.1404 -0.9979
  106MOL   H13440244   3.558   2.058   6.235 -0.5580  3.1780 -1.6568
  106MOL   C13540245   3.474   2.189   6.374 -0.3301  0.1869  0.8239
  106MOL   C13640246   3.477   2.236   6.519 -0.2826  0.1406  0.5774
  106MOL   C13740247   3.437   2.367   6.550 -0.2666  0.5515 -0.0675
  106MOL   C13840248   3.433   2.418   6.686  0.0955  0.8780 -0.6010
  106MOL   C13940249   3.473   2.338   6.794 -0.4138  0.1248 -0.1687
  106MOL   C14040250   3.473   2.390   6.929 -0.6159  0.1575  0.3065
  106MOL   C14140251   3.531   2.209   6.763 -0.3926  0.5323  0.7712
  106MOL   C14240252   3.536   2.168   6.629 -0.1531  0.0113  0.4881
  106MOL   C14340253   3.338   2.124   6.346  0.0104  0.0043  0.4130
  106MOL   H14440254   3.485   2.277   6.310 -1.0571 -0.8878 -0.8141
  106MOL   H14540255   3.412   2.438   6.473  0.4803  1.9994  1.0028
  106MOL   H14640256   3.399   2.518   6.705  1.3908  0.9356  1.4577
  106MOL   H14740257   3.383   2.450   6.940 -1.2107 -0.5094 -0.7960
  106MOL   H14840258   3.466   2.315   7.008  2.5203 -0.1837  0.2950
  106MOL   H14940259   3.560   2.451   6.953  1.5253 -1.3030 -3.3577
  106MOL   H15040260   3.570   2.144   6.839 -0.9346 -2.3336 -1.3067
  106MOL   H15140261   3.563   2.067   6.603  0.0714  0.7581 -2.3955
  106MOL   H15240262   3.273   2.200   6.388  0.0973  0.8410 -0.9577
  106MOL   H15340263   3.334   2.037   6.412 -0.8340  0.6165  1.1866
  106MOL   C15440264   3.283   2.082   6.205  0.6820 -0.2918 -0.0651
  106MOL   C15540265   3.322   2.201   6.112  1.1407  0.0539 -0.2333
  106MOL   C15640266   3.256   2.325   6.122 -0.1472  0.0891 -0.0301
  106MOL   C15740267   3.291   2.434   6.046 -0.4750 -0.4864 -0.0380
  106MOL   C15840268   3.404   2.424   5.960  0.5638 -0.3148  0.5347
  106MOL   C15940269   3.474   2.543   5.900  0.2828  0.3636 -0.2291
  106MOL   C16040270   3.476   2.301   5.954 -0.0236 -0.1530  0.2845
  106MOL   C16140271   3.433   2.191   6.030 -1.1074  0.0317  0.9283
  106MOL   C16240272   3.131   2.056   6.201 -0.1494 -0.1085 -0.1136
  106MOL   H16340273   3.314   1.985   6.165  0.9293 -0.0966 -0.3484
  106MOL   H16440274   3.174   2.333   6.191  0.1040  0.2916  0.2484
  106MOL   H16540275   3.237   2.527   6.062 -0.4998 -0.1663 -1.9098
  106MOL   H16640276   3.414   2.634   5.891  0.2530  0.6859  2.7571
  106MOL   H16740277   3.574   2.564   5.938  0.6782  1.8712 -2.0375
  106MOL   H16840278   3.494   2.516   5.796 -0.2224  2.3015 -0.8576
  106MOL   H16940279   3.568   2.284   5.900 -0.0476 -3.1529  1.0658
  106MOL   H17040280   3.493   2.102   6.018 -0.1340  0.8756 -0.6892
  106MOL   H17140281   3.100   2.055   6.096 -1.1502 -1.9022  0.1833
  106MOL   H17240282   3.080   2.144   6.238 -0.1503  0.0999 -0.6075
  106MOL   C17340283   3.089   1.924   6.272  0.1296  0.4146  0.6149
  106MOL   C17440284   3.126   1.787   6.208  0.4176 -0.3873  0.0888
  106MOL   C17540285   3.143   1.674   6.299  0.3311 -0.3573 -0.1702
  106MOL   C17640286   3.167   1.550   6.240 -0.5303  0.2317 -0.2063
  106MOL   C17740287   3.169   1.526   6.102 -0.6752  0.6256 -0.3478
  106MOL   C17840288   3.211   1.399   6.041 -0.5407  0.3423 -0.2963
  106MOL   C17940289   3.156   1.639   6.013  0.4419 -0.9091  0.0786
  106MOL   C18040290   3.136   1.768   6.069 -0.2360  0.4228 -0.5815
  106MOL   C18140291   2.948   1.922   6.329  0.1050  0.0907  0.5192
  106MOL   H18240292   3.148   1.920   6.363 -0.3334  0.6806  0.9272
  106MOL   H18340293   3.137   1.679   6.407  1.5731 -0.5591 -0.0824
  106MOL   H18440294   3.186   1.464   6.302 -2.1424 -0.4500 -0.6167
  106MOL   H18540295   3.303   1.419   5.987 -0.5043  0.3696 -0.2256
  106MOL   H18640296   3.233   1.323   6.117 -0.9285 -0.4057 -0.9306
  106MOL   H18740297   3.138   1.361   5.970 -1.8785  0.1756  1.1481
  106MOL   H18840298   3.173   1.618   5.908  0.2055 -1.5268  0.1618
  106MOL   H18940299   3.124   1.845   5.994 -1.1371 -0.5949 -1.4856
  106MOL   H19040300   2.938   1.824   6.376 -2.4728  0.0996  0.0548
  106MOL   H19140301   2.881   1.936   6.244  0.8660  0.4182 -0.0354
  106MOL   C19240302   2.941   2.021   6.450  0.1580  0.3940  0.1901
  106MOL   C19340303   3.033   1.983   6.569  0.5056  0.0330 -0.5848
  106MOL   C19440304   3.108   2.085   6.635  0.0153 -0.2444  0.2855
  106MOL   C19540305   3.207   2.048   6.728  0.5814  1.0685 -0.3816
  106MOL   C19640306   3.216   1.915   6.776 -0.5764  0.1838 -0.1183
  106MOL   C19740307   3.318   1.871   6.881  0.0341 -0.3362  0.7557
  106MOL   C19840308   3.111   1.828   6.731 -0.2833  0.2269 -0.2639
  106MOL   C19940309   3.026   1.855   6.625 -0.0011  0.6032 -0.4803
  106MOL   C20040310   2.801   2.054   6.512 -0.5091  0.0534  0.1434
  106MOL   H20140311   2.980   2.120   6.428 -1.7152  0.9093 -0.8928
  106MOL   H20240312   3.095   2.189   6.606 -1.0002  0.3375  2.6735
  106MOL   H20340313   3.270   2.127   6.765 -2.6704  3.2667  0.7588
  106MOL   H20440314   3.394   1.816   6.826 -1.4824 -1.4313 -0.3108
  106MOL   H20540315   3.356   1.960   6.930 -0.4240  1.7449 -2.4799
  106MOL   H20640316   3.283   1.796   6.952  1.6257  0.3789  2.3051
  106MOL   H20740317   3.124   1.726   6.766 -0.2601  0.6828  1.0873
  106MOL   H20840318   2.962   1.777   6.587  0.1829 -0.3174  1.0360
  106MOL   H20940319   2.819   2.128   6.590 -0.1970 -0.3997  0.4995
  106MOL   H21040320   2.754   1.971   6.564  0.2500 -0.2231  0.3874
  106MOL   C21140321   2.691   2.103   6.412 -0.8598 -0.0223  0.0171
  106MOL   C21240322   2.739   2.211   6.315  0.0709  0.2604 -0.1791
  106MOL   C21340323   2.790   2.329   6.371  0.2453 -0.2730  0.1384
  106MOL   C21440324   2.859   2.425   6.296 -0.6623 -0.7340 -0.5656
  106MOL   C21540325   2.838   2.410   6.154 -0.7449  0.5038  0.3379
  106MOL   C21640326   2.863   2.526   6.067  0.3055  0.0081  0.0629
  106MOL   C21740327   2.786   2.297   6.096 -0.1176 -0.2161  0.5065
  106MOL   C21840328   2.734   2.194   6.174  0.5688  0.1043 -0.4166
  106MOL   C21940329   2.561   2.150   6.484  0.2525  0.1515  0.8111
  106MOL   H22040330   2.671   2.014   6.353 -3.6489  0.6342 -0.1208
  106MOL   H22140331   2.786   2.331   6.479 -0.0585 -0.8731  0.1348
  106MOL   H22240332   2.906   2.513   6.337 -0.9987 -0.0445 -1.6433
  106MOL   H22340333   2.970   2.545   6.067  0.4690 -0.8785  0.6233
  106MOL   H22440334   2.822   2.521   5.967 -1.9236  0.6094  0.9021
  106MOL   H22540335   2.818   2.616   6.111 -1.1224  0.4632 -2.2601
  106MOL   H22640336   2.781   2.292   5.988  1.4294  2.0291  0.2959
  106MOL   H22740337   2.698   2.104   6.126  2.3748 -0.7104 -0.2850
  106MOL   H22840338   2.584   2.227   6.557 -1.5271  2.0476 -0.5376
  106MOL   H22940339   2.523   2.065   6.540 -0.0253 -0.7001 -0.6466
  106MOL   C23040340   2.458   2.201   6.386 -0.7437 -0.2666  0.1369
  106MOL   C23140341   2.347   2.274   6.466  0.3779  0.0856  0.1192
  106MOL   C23240342   2.239   2.200   6.519 -0.1460  0.1413 -0.1414
  106MOL   C23340343   2.135   2.269   6.591 -0.4708 -0.3646 -0.2224
  106MOL   C23440344   2.144   2.410   6.612 -0.1391  0.5804 -0.0271
  106MOL   C23540345   2.032   2.478   6.684 -0.4065 -0.1024  0.8633
  106MOL   C23640346   2.247   2.483   6.552  0.2343 -0.7444  0.0002
  106MOL   C23740347   2.344   2.413   6.479 -0.1240  0.6198  0.0459
  106MOL   C23840348   2.405   2.099   6.282  0.8849  0.0039 -0.1431
  106MOL   H23940349   2.504   2.279   6.325 -1.8697 -0.0896 -0.4960
  106MOL   H24040350   2.246   2.092   6.518  0.6500  0.1725  1.0346
  106MOL   H24140351   2.059   2.212   6.643 -2.3242  1.5712 -0.7698
  106MOL   H24240352   2.007   2.417   6.770 -1.9540 -0.9204 -0.1514
  106MOL   H24340353   2.048   2.586   6.692 -0.7948 -0.0282  0.6192
  106MOL   H24440354   1.943   2.460   6.624 -0.6347 -2.5341  1.9033
  106MOL   H24540355   2.237   2.590   6.553  0.9629 -0.6422 -1.7688
  106MOL   H24640356   2.426   2.472   6.440  1.7893 -2.1020 -0.1572
  106MOL   H24740357   2.349   2.025   6.339 -1.6793  0.2022 -2.2850
  106MOL   H24840358   2.479   2.046   6.222  0.9608  0.1937 -0.2167
  106MOL   C24940359   2.306   2.158   6.181  0.1754 -0.6528  0.4014
  106MOL   C25040360   2.226   2.045   6.124 -0.5948 -0.3195 -0.2920
  106MOL   C25140361   2.270   1.958   6.020  0.3766 -0.2848  0.0746
  106MOL   C25240362   2.175   1.863   5.963  0.0441 -0.0164  0.2316
  106MOL   C25340363   2.047   1.840   6.014 -0.4535  0.2377 -0.0335
  106MOL   C25440364   1.937   1.748   5.962 -0.7377  0.4277  0.7501
  106MOL   C25540365   2.007   1.918   6.123  0.3633 -0.0952  0.0444
  106MOL   C25640366   2.095   2.018   6.174  0.2721  0.6454  0.1528
  106MOL   C25740367   2.375   2.230   6.071 -0.2871 -0.4064  0.3621
  106MOL   H25840368   2.244   2.235   6.226  0.4107  0.7792 -1.6283
  106MOL   H25940369   2.363   1.975   5.967  0.9574  3.4380  2.1493
  106MOL   H26040370   2.209   1.802   5.881 -0.0477  0.2023  0.0306
  106MOL   H26140371   1.944   1.762   5.854 -0.3874 -0.5664  0.6431
  106MOL   H26240372   1.941   1.641   5.980  0.0508  0.2960 -0.1671
  106MOL   H26340373   1.836   1.787   5.977 -0.6757  0.6399  0.6217
  106MOL   H26440374   1.913   1.906   6.175 -0.7510  1.7935 -1.4650
  106MOL   H26540375   2.060   2.074   6.260 -0.9046 -0.6366  0.5317
  106MOL   H26640376   2.453   2.160   6.042 -0.0356 -0.0575  0.1876
  106MOL   H26740377   2.435   2.311   6.113 -0.9662  1.1018 -1.5006
  106MOL   C26840378   2.292   2.283   5.953 -0.0569 -0.0900 -0.4723
  106MOL   C26940379   2.371   2.295   5.828  0.0404 -0.3541  0.0017
  106MOL   C27040380   2.323   2.234   5.715  0.5742 -0.6765  0.6083
  106MOL   C27140381   2.399   2.257   5.595 -0.2786 -0.3306  0.3181
  106MOL   C27240382   2.523   2.324   5.594  0.2640  0.0670 -0.7074
  106MOL   C27340383   2.611   2.329   5.465 -0.0585 -0.7234 -0.7265
  106MOL   C27440384   2.576   2.367   5.719  0.3682  0.0814 -0.9564
  106MOL   C27540385   2.500   2.357   5.837 -0.5409  0.3967 -0.6265
  106MOL   C27640386   2.211   2.412   5.997 -0.3298  0.2083 -0.4655
  106MOL   H27740387   2.215   2.210   5.926  1.1077 -1.4426 -0.2020
  106MOL   H27840388   2.230   2.179   5.721 -0.2503  0.8366  2.4824
  106MOL   H27940389   2.366   2.216   5.501 -0.3108 -0.7096  0.4931
  106MOL   H28040390   2.555   2.356   5.375  1.4307 -1.8018 -1.9873
  106MOL   H28140391   2.690   2.403   5.478 -0.1101 -0.9307  0.7439
  106MOL   H28240392   2.656   2.233   5.440 -2.7121 -2.0598 -0.5888
  106MOL   H28340393   2.675   2.409   5.721  0.2576  0.3723 -1.4019
  106MOL   H28440394   2.533   2.400   5.930 -2.3703  0.0890  0.2010
  106MOL   H28540395   2.278   2.493   6.025 -2.6211  1.8520  0.3512
  106MOL   H28640396   2.159   2.389   6.090 -3.4912  1.2525 -1.9033
  106MOL   C28740397   2.115   2.481   5.908  0.4012 -0.1099 -0.3113
  106MOL   C28840398   2.175   2.591   5.817  0.1608  0.0000  0.5935
  106MOL   C28940399   2.193   2.568   5.680  0.6150 -0.3330 -0.6727
  106MOL   C29040400   2.219   2.674   5.589  0.4580 -0.8132  0.2980
  106MOL   C29140401   2.242   2.807   5.642 -0.1902 -0.0271 -0.6904
  106MOL   C29240402   2.271   2.923   5.547  0.5843 -0.0016 -0.3240
  106MOL   C29340403   2.240   2.821   5.783  0.1619 -0.3569 -0.2845
  106MOL   C29440404   2.212   2.718   5.867  0.4629  0.2271  0.1146
  106MOL   C29540405   1.988   2.544   5.977  0.1448 -0.0271 -1.4350
  106MOL   H29640406   2.069   2.409   5.841 -1.5605  0.2837  0.5691
  106MOL   H29740407   2.168   2.474   5.633  3.1461 -0.3656 -2.0605
  106MOL   H29840408   2.224   2.659   5.482 -1.6387  2.2411 -0.2806
  106MOL   H29940409   2.180   2.936   5.489  0.5309  0.7831 -0.0833
  106MOL   H30040410   2.304   3.012   5.601  0.9137 -0.8837  0.9499
  106MOL   H30140411   2.358   2.900   5.485 -0.1330 -0.2808 -1.2422
  106MOL   H30240412   2.259   2.915   5.831  2.2779  0.2199 -2.1728
  106MOL   H30340413   2.208   2.750   5.970  0.3712  2.7048 -0.6363
  106MOL   H30440414   2.027   2.624   6.040  1.1783 -2.1792  0.7089
  106MOL   H30540415   1.930   2.487   6.050 -2.5935  2.3222 -1.6616
  106MOL   C30640416   1.881   2.612   5.878  0.3303 -1.3660 -0.3857
  106MOL   C30740417   1.810   2.733   5.947 -0.2990 -0.0271  0.3327
  106MOL   C30840418   1.678   2.728   5.987 -0.1911  0.9486  0.5693
  106MOL   C30940419   1.619   2.843   6.042  0.2587  0.5710  0.2047
  106MOL   C31040420   1.698   2.955   6.079 -0.1387 -0.0923  0.1096
  106MOL   C31140421   1.638   3.074   6.149 -0.2120 -0.0173 -0.4633
  106MOL   C31240422   1.838   2.954   6.048 -0.7271 -0.3146  0.1583
  106MOL   C31340423   1.892   2.842   5.978  0.2640 -0.4966  0.6623
  106MOL   C31440424   1.777   2.511   5.808 -0.1073  0.3053  0.4216
  106MOL   H31540425   1.943   2.657   5.800  1.6105 -2.4555 -0.0081
  106MOL   H31640426   1.611   2.644   5.970  2.4208 -0.7513 -1.7892
  106MOL   H31740427   1.515   2.829   6.067  0.1557 -1.2701 -1.1582
  106MOL   H31840428   1.690   3.170   6.144  0.4788 -0.4003 -0.6575
  106MOL   H31940429   1.535   3.093   6.119 -0.3698  0.2214  0.2033
  106MOL   H32040430   1.631   3.055   6.256 -0.9838 -1.4067 -0.7532
  106MOL   H32140431   1.903   3.035   6.079 -1.4877  0.3465  0.0291
  106MOL   H32240432   1.993   2.847   5.941 -0.1179 -0.6006 -0.4239
  106MOL   H32340433   1.715   2.481   5.893  0.1931  0.0395  0.5482
  106MOL   H32440434   1.838   2.427   5.773  2.2751  2.8168 -1.6114
  106MOL   C32540435   1.698   2.565   5.688  0.1558 -0.2866 -0.0204
  106MOL   C32640436   1.567   2.489   5.674  0.8102  0.2632 -0.1326
  106MOL   C32740437   1.567   2.350   5.648  0.3876  0.2071 -0.7025
  106MOL   C32840438   1.448   2.274   5.648 -0.0166 -0.0286 -0.2580
  106MOL   C32940439   1.322   2.344   5.660 -0.2047 -0.1355 -0.3193
  106MOL   C33040440   1.188   2.276   5.650  0.9327 -0.1449 -0.1447
  106MOL   C33140441   1.325   2.485   5.678  0.6253  0.1118  0.9720
  106MOL   C33240442   1.439   2.555   5.689 -0.3832  0.1701  0.2429
  106MOL   C33340443   1.781   2.590   5.557  0.7199 -0.4082  0.1028
  106MOL   H33440444   1.685   2.668   5.723  1.8118 -0.3167  0.7111
  106MOL   H33540445   1.658   2.296   5.627  0.8741  0.7592 -0.0646
  106MOL   H33640446   1.444   2.167   5.633 -2.0986 -0.3815  2.3529
  106MOL   H33740447   1.198   2.173   5.684  4.2425 -0.0374 -0.6316
  106MOL   H33840448   1.110   2.321   5.712  0.2614 -1.5566  0.0725
  106MOL   H33940449   1.151   2.280   5.547  0.9636  0.6935 -0.1314
  106MOL   H34040450   1.230   2.532   5.696  0.8349  0.6866  0.5913
  106MOL   H34140451   1.448   2.662   5.699 -1.0021  0.2882 -0.3875
  106MOL   H34240452   1.836   2.499   5.533  1.0362 -0.3039  0.4259
  106MOL   H34340453   1.848   2.675   5.571  1.9415 -1.0377 -1.6519
  106MOL   C34440454   1.710   2.639   5.431  0.0903 -0.1013 -0.1570
  106MOL   C34540455   1.806   2.661   5.319  0.3392 -0.2162  0.2586
  106MOL   C34640456   1.803   2.580   5.204 -0.4981  0.4651  0.0957
  106MOL   C34740457   1.895   2.589   5.100  0.2755  0.5186  0.2882
  106MOL   C34840458   1.992   2.690   5.107  1.0100  0.0051  0.0597
  106MOL   C34940459   2.098   2.695   4.991  0.0527 -0.0175 -0.1463
  106MOL   C35040460   2.000   2.776   5.217  0.1701 -0.2047 -0.4400
  106MOL   C35140461   1.912   2.755   5.327 -0.6403 -0.2381 -0.1254
  106MOL   C35240462   1.637   2.775   5.464  0.4453  0.3153  0.0776
  106MOL   H35340463   1.637   2.563   5.402 -0.5522  0.9058 -1.2136
  106MOL   H35440464   1.718   2.514   5.196 -0.5811  0.6866 -0.9833
  106MOL   H35540465   1.896   2.517   5.019  0.0127 -0.8375  1.4657
  106MOL   H35640466   2.062   2.706   4.889 -0.4280 -0.2789 -0.0115
  106MOL   H35740467   2.165   2.775   5.022 -1.9146  1.6730 -0.1278
  106MOL   H35840468   2.158   2.606   5.008  0.0384 -0.1856 -0.9457
  106MOL   H35940469   2.074   2.854   5.220 -0.2465  0.1427  1.2620
  106MOL   H36040470   1.929   2.829   5.403 -0.0339  0.6346 -1.1009
  106MOL   H36140471   1.711   2.848   5.496  1.5082  0.3487 -2.3252
  106MOL   H36240472   1.576   2.759   5.552 -1.2164  0.0652 -1.0884
  106MOL   C36340473   1.547   2.839   5.357  0.2750  0.0444  0.9445
  106MOL   C36440474   1.497   2.980   5.381 -0.2798 -0.6499  0.4598
  106MOL   C36540475   1.366   3.011   5.433 -0.0692 -0.4640 -0.1909
  106MOL   C36640476   1.331   3.142   5.472  0.3987 -0.2574  0.0241
  106MOL   C36740477   1.436   3.240   5.469  0.8543  0.0477 -0.2979
  106MOL   C36840478   1.402   3.382   5.524 -0.4003  0.5180 -0.5423
  106MOL   C36940479   1.565   3.215   5.421  0.2696 -0.8820  0.2861
  106MOL   C37040480   1.594   3.084   5.365  0.9286 -0.4295  0.6459
  106MOL   C37140481   1.425   2.743   5.327  0.2586  0.7483  0.2261
  106MOL   H37240482   1.594   2.851   5.260 -3.0852  0.2659 -0.6936
  106MOL   H37340483   1.288   2.936   5.438  0.3225 -0.8991 -0.4649
  106MOL   H37440484   1.231   3.163   5.506  0.1246 -1.1990 -0.1615
  106MOL   H37540485   1.368   3.439   5.438 -0.2840  0.6072 -0.5288
  106MOL   H37640486   1.316   3.383   5.591 -0.5092  0.7043 -0.6835
  106MOL   H37740487   1.487   3.437   5.565 -0.1927  0.5305 -0.9882
  106MOL   H37840488   1.635   3.297   5.421 -1.3070  0.4977 -0.6660
  106MOL   H37940489   1.700   3.073   5.344  0.4790 -2.7611 -0.5981
  106MOL   H38040490   1.376   2.726   5.423 -0.0532 -2.8210 -0.4946
  106MOL   H38140491   1.447   2.642   5.291 -2.5871  0.2458 -0.1840
  106MOL   H38240492   1.349   2.784   5.262  0.1753 -0.4225 -0.4242
  107MOL     C140493   4.893   2.608   3.789 -0.6228  0.8694 -0.3211
  107MOL     C240494   4.747   2.575   3.775 -0.6882 -0.1838 -0.4898
  107MOL     C340495   4.680   2.597   3.656  0.2193  0.4618  0.5219
  107MOL     C440496   4.550   2.553   3.639  0.7538  0.1535  0.0478
  107MOL     C540497   4.482   2.476   3.733 -0.5954  0.2411  0.2007
  107MOL     C640498   4.350   2.405   3.702 -0.1525 -0.2295  0.4483
  107MOL     C740499   4.549   2.452   3.855  0.4606 -0.5344  0.3865
  107MOL     C840500   4.686   2.499   3.876  0.7599  0.2132  0.1704
  107MOL     C940501   4.980   2.527   3.687  0.1359 -0.0429 -0.5145
  107MOL    H1040502   4.909   2.716   3.780 -0.7262  0.7583 -1.8980
  107MOL    H1140503   4.723   2.666   3.585  0.0880  0.7224  0.6936
  107MOL    H1240504   4.507   2.571   3.541 -1.2421  0.0268  0.8668
  107MOL    H1340505   4.290   2.399   3.793  0.6603 -0.8870  0.9584
  107MOL    H1440506   4.291   2.440   3.618  0.4861 -2.1402 -0.8431
  107MOL    H1540507   4.371   2.300   3.681 -1.7229 -0.5766  0.5698
  107MOL    H1640508   4.499   2.398   3.934 -0.4413 -0.5716 -0.2091
  107MOL    H1740509   4.746   2.465   3.960  2.0794 -0.1686 -0.9105
  107MOL    H1840510   5.051   2.598   3.646 -0.5816  1.2420  0.4272
  107MOL    H1940511   4.912   2.504   3.605  1.0183 -0.3636 -1.1647
  107MOL    H2040512   4.920   2.582   3.892 -1.9348 -1.2762 -0.4996
  107MOL    C2140513   5.037   2.393   3.750 -0.5847 -0.2532  0.1498
  107MOL    C2240514   5.130   2.423   3.866  0.6833 -0.7549 -1.4521
  107MOL    C2340515   5.237   2.516   3.854 -0.3108 -0.4633 -0.7552
  107MOL    C2440516   5.329   2.540   3.955  0.0652 -0.1912 -0.1287
  107MOL    C2540517   5.321   2.462   4.075  1.1475 -0.3374  0.7155
  107MOL    C2640518   5.417   2.481   4.190  0.7518  0.0019  0.3842
  107MOL    C2740519   5.216   2.370   4.098  0.3974  0.4631  0.0458
  107MOL    C2840520   5.118   2.360   3.993  0.2472  0.1029  0.2537
  107MOL    C2940521   5.098   2.301   3.639  0.6666  1.0442  0.5806
  107MOL    H3040522   4.951   2.349   3.799 -1.1201 -0.6379 -1.1299
  107MOL    H3140523   5.252   2.564   3.758  1.4296  1.8801  0.6330
  107MOL    H3240524   5.419   2.596   3.937  1.2602 -0.9871  3.0651
  107MOL    H3340525   5.371   2.449   4.283  1.4577 -0.4203  0.5843
  107MOL    H3440526   5.513   2.432   4.176  0.7260  0.6762 -2.6335
  107MOL    H3540527   5.432   2.587   4.210  0.2946  0.8454 -3.3743
  107MOL    H3640528   5.208   2.323   4.195  0.6128  0.2255 -0.0524
  107MOL    H3740529   5.036   2.290   3.999 -0.5785  0.8881 -1.3699
  107MOL    H3840530   5.167   2.233   3.688  0.0653  0.6840  0.9360
  107MOL    H3940531   5.174   2.353   3.580  1.8391  0.2614  1.3943
  107MOL    C4040532   4.999   2.215   3.562 -0.5724  1.0883 -0.2147
  107MOL    C4140533   4.898   2.159   3.651 -0.1726  0.5317  0.0587
  107MOL    C4240534   4.939   2.061   3.740  0.9238  0.2128  0.2783
  107MOL    C4340535   4.842   1.997   3.827 -0.0002  0.0403  0.1267
  107MOL    C4440536   4.708   2.041   3.821  0.4509 -0.0709  0.2106
  107MOL    C4540537   4.603   1.972   3.913  0.0296  0.5064 -0.5536
  107MOL    C4640538   4.669   2.136   3.727  0.1755 -0.1184  0.3397
  107MOL    C4740539   4.760   2.192   3.641 -0.6536 -0.2296  0.4751
  107MOL    C4840540   5.065   2.111   3.475  0.0355  0.0746  0.4068
  107MOL    H4940541   4.941   2.282   3.497 -1.3800  0.4299 -0.1764
  107MOL    H5040542   5.043   2.035   3.743  0.6345 -1.2495 -1.5322
  107MOL    H5140543   4.868   1.908   3.883 -1.2775 -0.6583 -0.3591
  107MOL    H5240544   4.634   1.873   3.947 -2.8188 -1.1273 -2.5388
  107MOL    H5340545   4.600   2.020   4.012  0.5421 -1.8089  0.6202
  107MOL    H5440546   4.506   1.963   3.864 -0.2577  0.9407 -0.0805
  107MOL    H5540547   4.564   2.162   3.725 -0.1365 -1.2920  0.7885
  107MOL    H5640548   4.737   2.260   3.561  0.4233 -1.5011 -0.9514
  107MOL    H5740549   4.988   2.049   3.429  1.0889 -1.6605  0.9520
  107MOL    H5840550   5.123   2.034   3.525  2.3408  1.8640  0.5780
  107MOL    C5940551   5.150   2.173   3.362 -0.4488 -0.8845 -0.6111
  107MOL    C6040552   5.076   2.267   3.266 -0.3291 -0.1340  0.5474
  107MOL    C6140553   5.106   2.408   3.269 -0.0805  0.0160  0.4654
  107MOL    C6240554   5.053   2.488   3.169 -0.1708 -0.3234  0.1496
  107MOL    C6340555   4.962   2.435   3.078 -0.2443 -0.2894  0.1688
  107MOL    C6440556   4.902   2.525   2.975  0.1303  0.5183 -0.4180
  107MOL    C6540557   4.924   2.299   3.079  0.8877 -0.7660  0.7514
  107MOL    C6640558   4.980   2.216   3.177  0.2376  0.1380  0.0629
  107MOL    C6740559   5.222   2.070   3.286 -0.1751 -0.0369  0.5776
  107MOL    H6840560   5.226   2.225   3.420 -1.6696 -0.8146  0.9484
  107MOL    H6940561   5.182   2.448   3.334  1.0822  1.5852 -1.7918
  107MOL    H7040562   5.083   2.592   3.175  1.4266 -0.9011  2.6072
  107MOL    H7140563   4.877   2.464   2.888 -1.9363  0.0275  0.4777
  107MOL    H7240564   4.813   2.576   3.013  0.1624  0.7344 -0.6313
  107MOL    H7340565   4.975   2.597   2.941  0.3376  0.2858 -0.4696
  107MOL    H7440566   4.844   2.264   3.015  2.1949 -0.7331 -0.9340
  107MOL    H7540567   4.948   2.113   3.187  0.5208  0.0246 -0.1881
  107MOL    H7640568   5.154   2.010   3.226 -1.8499  3.2775 -0.9652
  107MOL    H7740569   5.262   1.997   3.357 -1.3047  0.9804  2.3095
  107MOL    C7840570   5.335   2.114   3.194  0.1831  0.1680 -0.2732
  107MOL    C7940571   5.348   2.029   3.070 -0.2039  0.1851 -0.2102
  107MOL    C8040572   5.299   2.087   2.950 -0.0794  0.3539  0.5028
  107MOL    C8140573   5.290   2.008   2.837  0.6016  0.4383  0.1236
  107MOL    C8240574   5.340   1.874   2.831  0.1938  0.0102 -0.3025
  107MOL    C8340575   5.326   1.785   2.712 -0.2892 -0.0377  0.2581
  107MOL    C8440576   5.385   1.817   2.956  0.0981 -0.1877  0.3941
  107MOL    C8540577   5.387   1.892   3.077  0.2230  0.3841 -0.5869
  107MOL    C8640578   5.467   2.116   3.277  0.9320  0.7611  0.2855
  107MOL    H8740579   5.317   2.218   3.167 -0.9152  0.0498 -0.0457
  107MOL    H8840580   5.271   2.191   2.951 -0.4083  0.2732  2.2817
  107MOL    H8940581   5.253   2.053   2.746 -1.6737 -0.1297  0.7152
  107MOL    H9040582   5.240   1.717   2.716  0.1062 -0.5052  0.8396
  107MOL    H9140583   5.312   1.846   2.623 -1.9922  0.0033  0.5271
  107MOL    H9240584   5.414   1.721   2.705  0.5476  1.0051  1.2221
  107MOL    H9340585   5.415   1.713   2.951 -0.9208 -0.3489 -3.7856
  107MOL    H9440586   5.432   1.850   3.166 -0.7757  1.5452  0.4804
  107MOL    H9540587   5.527   2.027   3.258 -0.7837 -0.3665  0.1364
  107MOL    H9640588   5.445   2.100   3.382 -0.2762 -1.9617 -0.3490
  107MOL    C9740589   5.564   2.235   3.259  0.4126  0.6498  0.3772
  107MOL    C9840590   5.500   2.370   3.300 -0.0717  0.3747 -0.6667
  107MOL    C9940591   5.446   2.459   3.204  0.2010 -0.2296  0.1550
  107MOL   C10040592   5.408   2.590   3.240 -0.0976 -0.1739 -0.1977
  107MOL   C10140593   5.414   2.631   3.375 -0.1457  0.4407 -0.4060
  107MOL   C10240594   5.394   2.772   3.412  0.9394  0.6509  0.0688
  107MOL   C10340595   5.463   2.537   3.471 -0.1093 -0.2709  0.7429
  107MOL   C10440596   5.512   2.408   3.436 -0.0137  0.3571 -0.4312
  107MOL   C10540597   5.623   2.242   3.117  0.1491 -1.0608  0.0232
  107MOL   H10640598   5.645   2.227   3.331  0.9175 -0.7995 -0.3490
  107MOL   H10740599   5.439   2.432   3.100 -2.5444 -0.8046  0.4407
  107MOL   H10840600   5.384   2.661   3.163  0.8656  0.1230 -0.2311
  107MOL   H10940601   5.324   2.781   3.495  1.4157  2.6128  0.2920
  107MOL   H11040602   5.489   2.805   3.455  1.2360 -0.7076  0.4908
  107MOL   H11140603   5.360   2.842   3.336 -0.5466 -1.5598 -1.3456
  107MOL   H11240604   5.483   2.579   3.569 -0.1640 -0.9507  1.0500
  107MOL   H11340605   5.552   2.341   3.511  1.3400 -0.5886 -1.9597
  107MOL   H11440606   5.692   2.327   3.111  1.6521 -2.2271  0.4925
  107MOL   H11540607   5.540   2.247   3.046  0.8629  1.3607 -0.7100
  107MOL   C11640608   5.724   2.123   3.082  0.2871 -0.0367  0.7479
  107MOL   C11740609   5.836   2.078   3.174 -0.0472  0.0944 -0.4641
  107MOL   C11840610   5.931   2.179   3.207  0.4387 -0.9571  0.2621
  107MOL   C11940611   6.022   2.155   3.314  0.3394 -0.3269  0.3887
  107MOL   C12040612   6.023   2.031   3.377 -0.4244 -0.5578 -0.3092
  107MOL   C12140613   6.121   1.999   3.489  0.1254 -0.2297 -0.1934
  107MOL   C12240614   5.922   1.940   3.355  0.0478  0.8629 -0.2346
  107MOL   C12340615   5.826   1.961   3.257 -0.2255 -0.3579  0.2011
  107MOL   C12440616   5.776   2.148   2.935 -0.2932 -0.5573  0.5131
  107MOL   H12540617   5.653   2.041   3.081 -0.5661  0.6969  0.0772
  107MOL   H12640618   5.926   2.273   3.154 -0.2582 -2.0487 -1.6357
  107MOL   H12740619   6.091   2.232   3.343 -0.8201  0.7717  0.2894
  107MOL   H12840620   6.084   1.921   3.555  2.0479 -0.7774  0.2576
  107MOL   H12940621   6.219   1.973   3.450  0.1104 -0.3824 -0.1319
  107MOL   H13040622   6.123   2.086   3.555 -2.7621 -0.6589  0.5491
  107MOL   H13140623   5.901   1.847   3.406  1.7865 -0.4416 -1.7874
  107MOL   H13240624   5.748   1.889   3.238 -0.1348 -0.7432  1.2640
  107MOL   H13340625   5.828   2.243   2.931  0.1279 -0.7368  1.5926
  107MOL   H13440626   5.697   2.172   2.864  0.7292 -1.5100 -0.9629
  107MOL   C13540627   5.861   2.029   2.892 -0.7766  0.3552 -0.5313
  107MOL   C13640628   5.961   2.079   2.788 -0.2299 -0.5003 -1.2294
  107MOL   C13740629   5.911   2.142   2.673  0.0384  0.5475  0.2605
  107MOL   C13840630   5.989   2.180   2.566 -0.5353  0.0964  0.5755
  107MOL   C13940631   6.123   2.165   2.579  0.2994  0.5908 -0.2489
  107MOL   C14040632   6.223   2.197   2.466 -0.2945 -0.1070  0.4345
  107MOL   C14140633   6.183   2.105   2.692  0.9530  0.2835  0.0725
  107MOL   C14240634   6.102   2.061   2.797  0.9831  0.2823  0.5913
  107MOL   C14340635   5.786   1.903   2.856 -0.4193 -0.6298 -0.0142
  107MOL   H14440636   5.919   1.990   2.976  1.1460  2.4489 -0.8423
  107MOL   H14540637   5.807   2.169   2.665 -0.9111 -2.7243  0.8290
  107MOL   H14640638   5.939   2.225   2.481  1.1516 -0.1464 -0.5730
  107MOL   H14740639   6.171   2.266   2.399 -0.4547 -0.2090  0.4534
  107MOL   H14840640   6.312   2.253   2.496 -1.0669  2.3232 -1.6203
  107MOL   H14940641   6.246   2.105   2.414 -0.7926  0.7606 -1.3642
  107MOL   H15040642   6.286   2.073   2.695  0.4130 -1.7496 -1.9465
  107MOL   H15140643   6.149   2.012   2.880  0.2598 -2.3642 -0.5164
  107MOL   H15240644   5.690   1.940   2.821  2.1127  3.7072 -2.8415
  107MOL   H15340645   5.770   1.838   2.942 -0.7373  0.7202  0.9654
  107MOL   C15440646   5.844   1.813   2.747  0.2566  0.4190  0.1944
  107MOL   C15540647   5.740   1.740   2.668 -0.0049  0.9254  0.2088
  107MOL   C15640648   5.675   1.813   2.568 -0.8436  0.2904 -0.1645
  107MOL   C15740649   5.564   1.765   2.494 -0.7291  0.6216 -0.1980
  107MOL   C15840650   5.537   1.627   2.503  0.2454 -0.0451  0.3139
  107MOL   C15940651   5.428   1.568   2.415  0.3522  0.8292 -0.4130
  107MOL   C16040652   5.606   1.545   2.599 -0.4521 -0.7445 -0.1138
  107MOL   C16140653   5.699   1.608   2.688  0.9683 -0.2741 -0.5961
  107MOL   C16240654   5.962   1.732   2.798 -0.3646 -0.4345  0.2618
  107MOL   H16340655   5.896   1.859   2.664 -0.6787  1.5415  0.2127
  107MOL   H16440656   5.687   1.920   2.553 -1.1071  0.3689  0.1997
  107MOL   H16540657   5.515   1.837   2.430  0.7879  0.7500 -1.2339
  107MOL   H16640658   5.364   1.645   2.371  0.4146  0.4086 -1.2549
  107MOL   H16740659   5.484   1.508   2.343 -1.3486  0.6619 -1.6483
  107MOL   H16840660   5.367   1.500   2.473  0.3074  0.1427 -1.2535
  107MOL   H16940661   5.577   1.443   2.617 -2.4498 -0.4473 -1.3689
  107MOL   H17040662   5.743   1.552   2.770  0.4630  0.1714 -0.0192
  107MOL   H17140663   5.918   1.670   2.877 -0.8822 -1.3058 -0.6980
  107MOL   H17240664   6.014   1.801   2.865  0.1488 -0.2476 -0.3317
  107MOL   C17340665   6.062   1.643   2.710  0.4627 -0.1680  0.2274
  107MOL   C17440666   6.164   1.576   2.798 -0.4416  0.6243 -0.1440
  107MOL   C17540667   6.142   1.442   2.838 -0.0940 -0.0440  0.4277
  107MOL   C17640668   6.233   1.374   2.914  0.5170 -0.4634  0.9465
  107MOL   C17740669   6.354   1.441   2.954  0.4197  0.2004 -0.0056
  107MOL   C17840670   6.475   1.364   3.010  0.1028 -0.4515 -0.3096
  107MOL   C17940671   6.374   1.581   2.922 -1.1978 -0.5152 -0.4531
  107MOL   C18040672   6.284   1.641   2.836  0.3445  0.3861 -0.1704
  107MOL   C18140673   6.128   1.705   2.586  0.1580  0.5329 -0.1957
  107MOL   H18240674   6.000   1.566   2.664  0.3998 -0.3378  0.5931
  107MOL   H18340675   6.066   1.378   2.796 -1.3167  3.1654 -2.5505
  107MOL   H18440676   6.219   1.270   2.939  1.4116 -0.5242  1.1935
  107MOL   H18540677   6.450   1.334   3.112 -2.1577  0.8582 -0.4488
  107MOL   H18640678   6.488   1.274   2.950 -1.0696 -0.0405 -1.2075
  107MOL   H18740679   6.567   1.421   3.008 -0.6349  0.7287 -0.9031
  107MOL   H18840680   6.474   1.620   2.930 -1.1768 -0.4909 -0.7917
  107MOL   H18940681   6.299   1.739   2.794 -1.4106 -0.4488 -2.8570
  107MOL   H19040682   6.201   1.636   2.544 -0.3308  0.0601 -0.2806
  107MOL   H19140683   6.184   1.792   2.620 -0.7405  0.8989  0.3705
  107MOL   C19240684   6.034   1.725   2.460  0.0525 -0.4512 -0.0896
  107MOL   C19340685   6.012   1.604   2.373 -0.5705 -0.4151 -0.3656
  107MOL   C19440686   6.120   1.547   2.306  0.3666 -0.0658 -0.2483
  107MOL   C19540687   6.096   1.446   2.207  0.4216 -0.0333 -0.3398
  107MOL   C19640688   5.965   1.397   2.191 -0.1605  0.3029 -0.6798
  107MOL   C19740689   5.938   1.283   2.096 -0.4559 -0.5985  0.0274
  107MOL   C19840690   5.859   1.453   2.258  0.8090  0.0453 -0.1823
  107MOL   C19940691   5.881   1.550   2.354 -0.2274 -0.0991 -0.1048
  107MOL   C20040692   6.063   1.857   2.376 -0.4180  0.6582  0.1986
  107MOL   H20140693   5.935   1.751   2.496 -0.2062  0.1564 -1.2027
  107MOL   H20240694   6.222   1.581   2.312  0.5730 -0.1443 -2.8020
  107MOL   H20340695   6.175   1.399   2.151  2.1939  2.0154  0.3544
  107MOL   H20440696   5.872   1.320   2.018 -0.1034 -0.5587 -0.2517
  107MOL   H20540697   6.037   1.255   2.060 -0.3563 -1.3006  0.8306
  107MOL   H20640698   5.903   1.194   2.149  0.4235 -1.5863 -1.0198
  107MOL   H20740699   5.758   1.421   2.239  1.3621  0.8020 -5.1638
  107MOL   H20840700   5.791   1.600   2.386 -0.5971  1.7102 -3.6899
  107MOL   H20940701   6.172   1.850   2.388 -0.2459 -1.3321 -2.2465
  107MOL   H21040702   6.038   1.947   2.433 -1.2669  1.2045 -1.0097
  107MOL   C21140703   5.989   1.872   2.238 -0.1550 -0.6507 -1.0184
  107MOL   C21240704   6.088   1.955   2.150  0.3307 -0.0550 -0.3238
  107MOL   C21340705   6.077   2.096   2.135 -0.5707  0.2950 -0.4180
  107MOL   C21440706   6.159   2.165   2.045 -0.0598 -0.4733 -0.1067
  107MOL   C21540707   6.256   2.098   1.975 -0.3942  0.4621  0.2298
  107MOL   C21640708   6.364   2.183   1.901 -0.1330 -0.2555 -0.4230
  107MOL   C21740709   6.271   1.960   1.980 -1.0500  0.0105  0.0209
  107MOL   C21840710   6.192   1.889   2.071 -0.0850 -0.1070  0.6866
  107MOL   C21940711   5.843   1.926   2.237  0.7162 -0.2133  1.3963
  107MOL   H22040712   5.982   1.771   2.196  1.0712 -1.0836 -0.1965
  107MOL   H22140713   5.998   2.148   2.187  0.4639  1.2754  0.2172
  107MOL   H22240714   6.153   2.273   2.044  0.0319 -0.4699 -2.3674
  107MOL   H22340715   6.326   2.205   1.802 -0.3552  3.4595  0.4219
  107MOL   H22440716   6.357   2.278   1.954  0.6192 -0.6395  0.3788
  107MOL   H22540717   6.464   2.139   1.896  1.0377  2.3930 -0.6916
  107MOL   H22640718   6.355   1.914   1.930 -1.1907 -0.6109  0.3564
  107MOL   H22740719   6.213   1.784   2.082 -0.9018 -0.5621 -1.6458
  107MOL   H22840720   5.840   2.033   2.259 -0.5158 -0.0521  0.4593
  107MOL   H22940721   5.790   1.888   2.324 -0.2219 -0.4768  0.7153
  107MOL   C23040722   5.768   1.885   2.110  0.1065  0.3062 -0.3941
  107MOL   C23140723   5.776   1.982   1.994 -0.1770  0.2804  0.7295
  107MOL   C23240724   5.703   2.105   1.995  0.1029 -0.1013  0.6270
  107MOL   C23340725   5.706   2.182   1.881  0.3739 -0.1509 -0.4174
  107MOL   C23440726   5.775   2.141   1.766  0.5842  0.1799  0.4493
  107MOL   C23540727   5.755   2.219   1.640 -0.5661 -0.1859  1.1487
  107MOL   C23640728   5.855   2.033   1.769  0.2031  0.2075 -0.6249
  107MOL   C23740729   5.861   1.951   1.886  0.2798  0.2769  0.4998
  107MOL   C23840730   5.627   1.826   2.129  0.1965 -0.0531 -0.2545
  107MOL   H23940731   5.830   1.806   2.067  1.9273  1.6650 -0.3390
  107MOL   H24040732   5.641   2.127   2.081 -1.1337  0.4078 -0.3686
  107MOL   H24140733   5.650   2.275   1.876  0.3111 -0.1642  0.0872
  107MOL   H24240734   5.706   2.154   1.567 -0.0470 -0.4054  0.9889
  107MOL   H24340735   5.705   2.315   1.644  1.7694  1.3717 -3.3803
  107MOL   H24440736   5.842   2.242   1.578  0.7630 -3.9748  1.4376
  107MOL   H24540737   5.925   2.010   1.690 -0.1203  0.5184 -1.0070
  107MOL   H24640738   5.926   1.864   1.889  0.4978  0.2994 -2.2564
  107MOL   H24740739   5.559   1.896   2.177  2.1279 -0.0180  2.5808
  107MOL   H24840740   5.635   1.736   2.191 -0.1242 -0.4050 -0.7273
  107MOL   C24940741   5.554   1.782   1.997  1.3281 -0.1775 -0.1920
  107MOL   C25040742   5.405   1.767   2.020 -0.0158  0.1300  0.5176
  107MOL   C25140743   5.322   1.880   1.998 -0.0530  0.9631 -0.7223
  107MOL   C25240744   5.184   1.878   2.029  0.5646  0.5265 -0.0375
  107MOL   C25340745   5.127   1.755   2.060 -0.0860 -0.1179  0.2576
  107MOL   C25440746   4.975   1.738   2.056 -0.5817  0.3877 -0.5503
  107MOL   C25540747   5.204   1.638   2.076 -0.0038 -0.2445 -0.4222
  107MOL   C25640748   5.344   1.647   2.057 -0.0243  0.1806  0.5589
  107MOL   C25740749   5.624   1.661   1.929  0.6171 -0.0855  0.6695
  107MOL   H25840750   5.566   1.875   1.941  1.5085 -0.9234 -1.3962
  107MOL   H25940751   5.355   1.980   1.975 -0.6594  1.2755 -0.2530
  107MOL   H26040752   5.126   1.968   2.014 -0.3172  0.6854  3.7677
  107MOL   H26140753   4.929   1.774   2.148 -0.5188 -1.2259  0.1159
  107MOL   H26240754   4.939   1.803   1.976 -0.3373 -0.8359 -1.6732
  107MOL   H26340755   4.944   1.635   2.041 -0.1362 -0.0148  1.2553
  107MOL   H26440756   5.167   1.542   2.107  0.5085 -0.2842  0.0826
  107MOL   H26540757   5.394   1.552   2.069  0.0054  0.4960  3.2123
  107MOL   H26640758   5.595   1.569   1.980  0.4209 -0.5721 -0.2976
  107MOL   H26740759   5.733   1.661   1.941  0.7759 -0.2124 -0.6914
  107MOL   C26840760   5.584   1.633   1.781  0.0831 -0.0772  0.3400
  107MOL   C26940761   5.626   1.495   1.729 -0.1101  0.7969  1.1920
  107MOL   C27040762   5.524   1.393   1.720 -0.1210 -0.7540  0.4756
  107MOL   C27140763   5.558   1.270   1.673 -0.0154 -0.7618  0.4083
  107MOL   C27240764   5.691   1.242   1.641 -0.0525 -0.0847 -0.2518
  107MOL   C27340765   5.726   1.097   1.603 -0.2979  0.1225  0.5110
  107MOL   C27440766   5.791   1.335   1.651 -0.1124 -0.0878 -0.7766
  107MOL   C27540767   5.763   1.468   1.699  1.0227  0.4719  0.7036
  107MOL   C27640768   5.626   1.743   1.679  0.5916  0.4403  0.0646
  107MOL   H27740769   5.475   1.640   1.771  0.1107  2.1119  1.2055
  107MOL   H27840770   5.420   1.412   1.743  0.2051 -0.9630  2.1832
  107MOL   H27940771   5.485   1.191   1.679 -0.3151 -0.4106  1.4174
  107MOL   H28040772   5.691   1.030   1.682 -0.0968 -0.3605  0.1965
  107MOL   H28140773   5.660   1.074   1.519 -0.8966  4.1823 -0.2167
  107MOL   H28240774   5.832   1.078   1.585 -0.0901  2.2445 -0.6527
  107MOL   H28340775   5.893   1.320   1.616 -0.0087  1.2904 -1.1120
  107MOL   H28440776   5.837   1.542   1.723  1.5741 -0.9372  3.5142
  107MOL   H28540777   5.735   1.743   1.688  0.6534  0.8556 -0.6330
  107MOL   H28640778   5.598   1.841   1.718 -1.8251 -0.7574  1.3885
  107MOL   C28740779   5.586   1.722   1.532 -0.3192 -0.3344  0.3592
  107MOL   C28840780   5.701   1.753   1.434 -0.8508 -0.7213  0.0015
  107MOL   C28940781   5.775   1.653   1.367 -1.3207 -0.2716 -0.2556
  107MOL   C29040782   5.890   1.690   1.287 -0.6306  0.3216 -0.4098
  107MOL   C29140783   5.936   1.825   1.277 -0.9520  0.6593 -0.2059
  107MOL   C29240784   6.053   1.855   1.192 -0.4065 -0.0589  0.7504
  107MOL   C29340785   5.865   1.923   1.351  0.4569 -0.8724  0.6756
  107MOL   C29440786   5.758   1.885   1.438 -0.0246  0.5493 -0.3596
  107MOL   C29540787   5.448   1.777   1.490 -0.3997 -0.1176  0.1549
  107MOL   H29640788   5.586   1.614   1.513  1.8910 -0.1637 -0.7164
  107MOL   H29740789   5.747   1.548   1.365  2.1979 -1.2849 -1.2201
  107MOL   H29840790   5.940   1.624   1.218  0.4866  1.4256 -0.6809
  107MOL   H29940791   6.067   1.961   1.172 -0.1770 -0.5881 -2.1480
  107MOL   H30040792   6.148   1.812   1.223  0.6556  0.6906 -1.3683
  107MOL   H30140793   6.022   1.811   1.097 -1.4171 -1.7249  1.8270
  107MOL   H30240794   5.895   2.024   1.327 -1.3462 -0.5455 -0.3651
  107MOL   H30340795   5.717   1.968   1.495 -1.8374  0.1022 -0.9677
  107MOL   H30440796   5.445   1.879   1.527 -2.1472 -0.2968  0.5722
  107MOL   H30540797   5.365   1.724   1.538 -0.7300 -0.0658 -0.3510
  107MOL   C30640798   5.433   1.786   1.339 -0.1542  0.1551 -0.1943
  107MOL   C30740799   5.320   1.882   1.306 -0.2501 -0.5376 -0.9525
  107MOL   C30840800   5.352   1.998   1.232  0.6837 -0.7460 -0.5606
  107MOL   C30940801   5.253   2.098   1.211 -0.9827 -0.6036 -0.0380
  107MOL   C31040802   5.131   2.085   1.276  1.3873  0.0574 -0.1449
  107MOL   C31140803   5.038   2.205   1.280  0.6165 -0.4505  0.1089
  107MOL   C31240804   5.094   1.971   1.345  0.6909 -0.0728  0.3942
  107MOL   C31340805   5.190   1.871   1.362 -0.4924 -0.1260 -0.7397
  107MOL   C31440806   5.407   1.644   1.278  0.0957 -0.2692  0.2602
  107MOL   H31540807   5.524   1.817   1.288 -0.8672  1.8960 -0.4228
  107MOL   H31640808   5.451   2.003   1.188  0.4838  0.7795 -0.8892
  107MOL   H31740809   5.277   2.190   1.159 -1.0170 -0.3766  0.3506
  107MOL   H31840810   4.934   2.177   1.297  0.3154 -0.6705 -2.0717
  107MOL   H31940811   5.067   2.280   1.354 -1.2158 -1.2446  1.6793
  107MOL   H32040812   5.040   2.248   1.180  1.1860  0.6699  0.5921
  107MOL   H32140813   5.000   1.950   1.394 -0.9495  3.2877 -1.1227
  107MOL   H32240814   5.169   1.775   1.405 -0.5826 -0.4963 -1.5873
  107MOL   H32340815   5.346   1.594   1.354  1.1227  1.1266  2.0376
  107MOL   H32440816   5.498   1.587   1.260 -1.0875 -1.3755 -2.4883
  107MOL   C32540817   5.309   1.634   1.152 -0.3644  0.2023  0.0860
  107MOL   C32640818   5.261   1.496   1.127  0.2298  0.0137  0.7049
  107MOL   C32740819   5.340   1.402   1.070 -0.1615  0.1252  0.1666
  107MOL   C32840820   5.299   1.271   1.044 -0.3789 -0.6167 -0.4042
  107MOL   C32940821   5.169   1.229   1.093 -0.4817  0.6647 -0.7112
  107MOL   C33040822   5.128   1.082   1.098 -0.6794 -0.7924 -0.9590
  107MOL   C33140823   5.089   1.324   1.161 -0.5451  0.0192 -0.0766
  107MOL   C33240824   5.135   1.457   1.174  0.4961  0.0541  0.2741
  107MOL   C33340825   5.370   1.709   1.034 -0.1946  0.1903  0.2090
  107MOL   H33440826   5.217   1.685   1.180 -0.0456  1.8794 -1.8161
  107MOL   H33540827   5.442   1.426   1.043  0.3893  0.1424  2.1922
  107MOL   H33640828   5.368   1.205   0.993 -0.6627 -0.6086 -0.8035
  107MOL   H33740829   5.212   1.014   1.087 -0.9990 -1.2452 -0.6421
  107MOL   H33840830   5.069   1.063   1.188 -1.5775 -1.4180 -1.6694
  107MOL   H33940831   5.060   1.067   1.014 -0.3171 -3.0922 -0.8729
  107MOL   H34040832   4.991   1.290   1.191 -0.9081  0.7407 -0.4240
  107MOL   H34140833   5.067   1.523   1.225  0.1973 -0.1025  0.0801
  107MOL   H34240834   5.461   1.659   1.002  0.2427  0.2173  1.3608
  107MOL   H34340835   5.413   1.802   1.073 -0.4435  0.4178 -0.0581
  107MOL   C34440836   5.276   1.744   0.917  0.1609 -0.4183 -0.2268
  107MOL   C34540837   5.351   1.774   0.792  0.9719 -0.2964  0.2599
  107MOL   C34640838   5.430   1.886   0.773  0.1135  0.6145  0.0934
  107MOL   C34740839   5.505   1.895   0.651 -0.4065 -0.5635  0.1612
  107MOL   C34840840   5.496   1.793   0.549  0.6162  0.1077  0.3999
  107MOL   C34940841   5.563   1.817   0.412 -0.3373  0.5003 -0.2266
  107MOL   C35040842   5.414   1.687   0.577 -0.0090 -0.7735 -0.5993
  107MOL   C35140843   5.343   1.673   0.693  0.7015  0.4313 -0.3893
  107MOL   C35240844   5.171   1.859   0.961  0.3384 -0.0230 -0.2754
  107MOL   H35340845   5.220   1.651   0.912  0.2922 -0.5642  1.0131
  107MOL   H35440846   5.442   1.962   0.850 -0.4675 -1.2739  2.1096
  107MOL   H35540847   5.571   1.978   0.630 -1.0890  0.5987  2.4456
  107MOL   H35640848   5.654   1.874   0.428  1.3454 -2.5424  1.7526
  107MOL   H35740849   5.592   1.722   0.367  2.1223  1.6053 -1.0751
  107MOL   H35840850   5.500   1.875   0.346 -2.0061 -3.1045 -1.9713
  107MOL   H35940851   5.421   1.598   0.516  0.1503 -0.6433 -0.7679
  107MOL   H36040852   5.288   1.581   0.706  0.8586  0.4346  0.3342
  107MOL   H36140853   5.214   1.958   0.974  0.9708 -0.3110 -0.1277
  107MOL   H36240854   5.133   1.851   1.063  0.9405  1.5741  0.0777
  107MOL   C36340855   5.059   1.889   0.856 -0.1824 -0.8765  0.2737
  107MOL   C36440856   4.977   2.010   0.899 -0.0853  0.9697  0.1456
  107MOL   C36540857   4.864   1.992   0.976  0.3379 -0.6820  0.2530
  107MOL   C36640858   4.795   2.101   1.027  0.9623 -0.3017 -0.1774
  107MOL   C36740859   4.832   2.236   0.997 -0.3109  0.0641 -0.2128
  107MOL   C36840860   4.750   2.351   1.034 -0.7366  0.1722  0.9356
  107MOL   C36940861   4.946   2.250   0.915 -0.2009 -0.1722 -0.1878
  107MOL   C37040862   5.018   2.139   0.867  0.2468  0.0948  0.2282
  107MOL   C37140863   4.976   1.760   0.826 -0.3266 -0.6576 -0.2165
  107MOL   H37240864   5.111   1.918   0.764 -1.6668  3.5851  0.7488
  107MOL   H37340865   4.833   1.893   1.005  1.2448 -2.0738 -3.1918
  107MOL   H37440866   4.705   2.083   1.084  0.4826 -1.0568 -1.1659
  107MOL   H37540867   4.719   2.339   1.138  0.3038  1.0297  1.3433
  107MOL   H37640868   4.812   2.440   1.025 -1.0548  0.2832 -0.2296
  107MOL   H37740869   4.663   2.355   0.969 -2.2136 -1.3453  2.7331
  107MOL   H37840870   4.978   2.351   0.893 -0.9180  0.4936  1.7196
  107MOL   H37940871   5.107   2.167   0.814  0.9855 -0.9269  0.9216
  107MOL   H38040872   4.896   1.772   0.753 -2.0189 -3.4431  1.0697
  107MOL   H38140873   4.938   1.704   0.911 -0.4028 -1.0566 -0.5117
  107MOL   H38240874   5.045   1.692   0.776  1.0391  1.0570 -0.7247
  108MOL     C140875   2.966   2.815   1.490  0.1853 -0.0386  0.0832
  108MOL     C240876   2.839   2.744   1.462 -0.2596 -0.6976  0.0004
  108MOL     C340877   2.820   2.624   1.530 -0.1888  0.7622  0.1796
  108MOL     C440878   2.717   2.539   1.480 -1.2089  0.7571 -0.1253
  108MOL     C540879   2.624   2.581   1.384  0.0595  0.1760  0.8513
  108MOL     C640880   2.528   2.487   1.321  0.0348 -0.1191  0.7276
  108MOL     C740881   2.640   2.706   1.324  0.6124 -0.0498  0.4297
  108MOL     C840882   2.744   2.789   1.367 -0.5754  0.2176 -0.2630
  108MOL     C940883   2.952   2.914   1.607 -0.2449 -0.0923 -0.4523
  108MOL    H1040884   3.042   2.739   1.510  0.7633  0.2082 -1.1120
  108MOL    H1140885   2.894   2.584   1.597  1.4208  1.5870 -1.0584
  108MOL    H1240886   2.702   2.441   1.521 -2.2410  0.0092 -2.2142
  108MOL    H1340887   2.549   2.385   1.352 -1.1292 -0.5239  0.2109
  108MOL    H1440888   2.429   2.513   1.357 -1.0100 -0.6550 -1.6783
  108MOL    H1540889   2.535   2.491   1.212  0.2331 -0.6567  0.7216
  108MOL    H1640890   2.555   2.731   1.262 -1.9135  0.5591  3.9673
  108MOL    H1740891   2.752   2.885   1.318  1.5581 -0.5927 -1.5939
  108MOL    H1840892   2.942   2.860   1.701 -1.8068  0.3213 -0.3746
  108MOL    H1940893   2.863   2.974   1.586 -0.3442 -0.1057 -0.0765
  108MOL    H2040894   2.997   2.874   1.403 -1.2445 -1.0130 -1.1136
  108MOL    C2140895   3.074   3.008   1.617 -0.6778 -0.4319  0.1458
  108MOL    C2240896   3.207   2.933   1.646 -0.0274  0.9517 -0.0579
  108MOL    C2340897   3.316   2.960   1.559  0.4217 -0.5321  0.0072
  108MOL    C2440898   3.440   2.888   1.575 -0.4524 -0.1328  0.4558
  108MOL    C2540899   3.457   2.802   1.689 -0.1738 -0.8268 -0.8577
  108MOL    C2640900   3.586   2.745   1.723 -0.4373  0.3469  0.5438
  108MOL    C2740901   3.344   2.771   1.775 -0.0390  0.2990  0.3812
  108MOL    C2840902   3.218   2.838   1.749  0.0471  0.0577 -0.5102
  108MOL    C2940903   3.049   3.122   1.718 -0.3926 -0.2016  0.7364
  108MOL    H3040904   3.093   3.052   1.519 -2.7342  0.5870  0.1792
  108MOL    H3140905   3.302   3.023   1.472 -0.5201  0.0447  0.5683
  108MOL    H3240906   3.511   2.916   1.499 -1.5144  0.8714 -0.1783
  108MOL    H3340907   3.653   2.822   1.762  2.0655 -0.0123 -2.8471
  108MOL    H3440908   3.582   2.660   1.791  1.0993 -0.9947 -1.0173
  108MOL    H3540909   3.616   2.709   1.625 -1.2907 -1.2220  0.8509
  108MOL    H3640910   3.356   2.691   1.847  1.2434 -0.3495 -0.5334
  108MOL    H3740911   3.130   2.816   1.806  1.1087  0.5231  1.3369
  108MOL    H3840912   3.136   3.186   1.732 -1.4091  1.2729  0.4474
  108MOL    H3940913   3.017   3.087   1.816 -1.6927  0.5646  0.5815
  108MOL    C4040914   2.946   3.232   1.676 -0.4885  0.6955  0.4242
  108MOL    C4140915   2.948   3.258   1.524 -0.0538  0.4012  0.0407
  108MOL    C4240916   3.058   3.325   1.468  0.1898 -0.4893  1.3249
  108MOL    C4340917   3.048   3.366   1.332  0.1218  0.2780  0.2391
  108MOL    C4440918   2.938   3.339   1.248  0.2062 -0.0530 -0.3768
  108MOL    C4540919   2.938   3.377   1.097 -0.7847 -0.6229 -0.5039
  108MOL    C4640920   2.836   3.255   1.300 -0.2766 -0.2570  0.0088
  108MOL    C4740921   2.839   3.222   1.437  0.2961  0.4771 -0.1222
  108MOL    C4840922   2.938   3.347   1.772  0.2146 -0.3208  0.1466
  108MOL    H4940923   2.846   3.190   1.687 -0.1201 -0.9456 -2.0370
  108MOL    H5040924   3.150   3.338   1.523  2.8942  0.9810 -3.2525
  108MOL    H5140925   3.136   3.421   1.300  0.1995  0.1746  0.2735
  108MOL    H5240926   3.020   3.318   1.056 -1.2396  0.1256 -2.5235
  108MOL    H5340927   2.847   3.375   1.037 -2.3288 -0.0457  1.7455
  108MOL    H5440928   2.977   3.479   1.094 -0.7565 -0.4480  3.0082
  108MOL    H5540929   2.755   3.218   1.240 -0.8827  2.2104 -0.7446
  108MOL    H5640930   2.767   3.146   1.464 -0.1064  1.4420  1.5941
  108MOL    H5740931   3.040   3.358   1.810  0.6925  0.3234 -1.2763
  108MOL    H5840932   2.878   3.305   1.853 -0.2429 -0.3833 -0.2297
  108MOL    C5940933   2.901   3.490   1.719 -0.0477 -0.2274  0.2619
  108MOL    C6040934   2.961   3.589   1.815 -0.6765 -0.0065 -0.0739
  108MOL    C6140935   2.901   3.610   1.941  0.4259  0.4270 -0.4549
  108MOL    C6240936   2.952   3.700   2.036  0.2023 -0.5785 -0.3501
  108MOL    C6340937   3.061   3.783   2.000 -0.3668 -0.5119  0.1608
  108MOL    C6440938   3.110   3.887   2.096  0.3874 -0.1655  0.6472
  108MOL    C6540939   3.126   3.766   1.876 -0.1246  0.3345 -0.2105
  108MOL    C6640940   3.076   3.669   1.787  0.2592 -0.3518  0.4005
  108MOL    C6740941   2.753   3.516   1.684  0.5874  0.1131 -0.4389
  108MOL    H6840942   2.954   3.503   1.624  1.2081  2.6348  1.2804
  108MOL    H6940943   2.813   3.553   1.968  1.0188 -2.1183 -3.4642
  108MOL    H7040944   2.911   3.716   2.134  0.6708  0.2754 -0.2895
  108MOL    H7140945   3.087   3.989   2.067  0.1610 -0.6662 -0.9790
  108MOL    H7240946   3.063   3.875   2.194 -0.4781  4.0040  0.8083
  108MOL    H7340947   3.215   3.886   2.125  0.5842  0.2764 -0.0459
  108MOL    H7440948   3.217   3.817   1.848  0.5143 -0.7689 -0.1714
  108MOL    H7540949   3.120   3.653   1.689  1.6611  3.9796  0.2330
  108MOL    H7640950   2.710   3.495   1.782  3.3959 -2.2526  0.3526
  108MOL    H7740951   2.715   3.439   1.617  2.1058 -1.7252  0.7504
  108MOL    C7840952   2.716   3.652   1.622  0.4147 -0.7843  0.1101
  108MOL    C7940953   2.566   3.667   1.628  0.5046  0.0175  0.4865
  108MOL    C8040954   2.507   3.710   1.753  0.4141  0.4459 -0.3209
  108MOL    C8140955   2.374   3.740   1.761 -0.1613  0.4040 -0.1911
  108MOL    C8240956   2.287   3.713   1.653 -0.7267 -0.1462  0.5434
  108MOL    C8340957   2.137   3.732   1.666  0.0503  0.9386 -0.6502
  108MOL    C8440958   2.328   3.648   1.533 -0.5242  0.4897 -0.2381
  108MOL    C8540959   2.474   3.620   1.529 -0.0289 -0.1283 -0.2101
  108MOL    C8640960   2.778   3.673   1.482  0.5837  0.2384  0.3738
  108MOL    H8740961   2.753   3.730   1.689  0.9747 -1.8194  1.0264
  108MOL    H8840962   2.570   3.735   1.837  0.6038  0.2919 -0.4176
  108MOL    H8940963   2.331   3.765   1.857  1.1337  1.1363  0.2018
  108MOL    H9040964   2.079   3.680   1.589  1.1518  1.6604 -1.9842
  108MOL    H9140965   2.104   3.691   1.762 -0.0196  1.1599 -0.5775
  108MOL    H9240966   2.105   3.836   1.661  1.7463  1.4265 -1.5624
  108MOL    H9340967   2.255   3.611   1.463 -0.4576 -0.1108  0.0038
  108MOL    H9440968   2.512   3.570   1.441  1.2870  0.3682  0.0563
  108MOL    H9540969   2.698   3.700   1.413  0.8688 -1.0708 -0.4986
  108MOL    H9640970   2.810   3.574   1.448  0.8470 -0.8470  3.6442
  108MOL    C9740971   2.894   3.776   1.468 -0.4337  0.6082 -0.2608
  108MOL    C9840972   2.848   3.922   1.471 -0.1850  0.5367  1.0133
  108MOL    C9940973   2.861   3.995   1.590  0.0031 -0.2186  0.2661
  108MOL   C10040974   2.830   4.132   1.583  0.3406  0.4431  0.8201
  108MOL   C10140975   2.782   4.198   1.467  0.9676 -0.0172 -0.0597
  108MOL   C10240976   2.741   4.343   1.463 -0.9761 -0.4343  0.2758
  108MOL   C10340977   2.768   4.121   1.351  0.4592 -0.7527  0.0069
  108MOL   C10440978   2.802   3.985   1.351 -0.1438 -0.0591 -0.1850
  108MOL   C10540979   2.984   3.746   1.352  0.3664 -0.9979 -0.0974
  108MOL   H10640980   2.954   3.774   1.559  2.0273 -1.2096 -1.8513
  108MOL   H10740981   2.885   3.956   1.687 -1.2128  0.8029  0.9898
  108MOL   H10840982   2.846   4.199   1.667 -2.8362  2.6891 -0.2473
  108MOL   H10940983   2.762   4.391   1.368  0.9830  1.0912  1.4335
  108MOL   H11040984   2.633   4.341   1.477 -0.8202 -2.4458  1.3892
  108MOL   H11140985   2.787   4.401   1.543 -1.7491  0.5924 -0.0237
  108MOL   H11240986   2.730   4.155   1.256  0.2750 -0.1476  0.2955
  108MOL   H11340987   2.790   3.936   1.256  0.9623  0.2645 -0.4951
  108MOL   H11440988   2.919   3.737   1.265  0.0351 -0.3568  0.0838
  108MOL   H11540989   3.024   3.645   1.360 -3.2983 -2.4999  0.4038
  108MOL   C11640990   3.091   3.851   1.321 -0.2331 -0.3651  0.6198
  108MOL   C11740991   3.138   3.829   1.176  0.3629 -0.3655  0.5829
  108MOL   C11840992   3.223   3.717   1.153 -0.0762 -0.1441 -0.3526
  108MOL   C11940993   3.247   3.690   1.015 -0.4738 -0.0171  0.0028
  108MOL   C12040994   3.200   3.781   0.914 -0.5612 -0.1181  0.3257
  108MOL   C12140995   3.234   3.754   0.769  0.3991 -0.6050  0.0565
  108MOL   C12240996   3.138   3.898   0.951  0.0886 -0.3912 -0.1844
  108MOL   C12340997   3.098   3.917   1.079 -0.4433  0.0129 -0.1570
  108MOL   C12440998   3.213   3.868   1.420  0.4001  0.6372  0.3232
  108MOL   H12540999   3.038   3.946   1.321 -0.8067 -0.6772  0.9403
  108MOL   H12641000   3.256   3.657   1.236  1.1878 -0.0361 -0.7748
  108MOL   H12741001   3.307   3.601   1.000  1.4424  0.8666  2.0421
  108MOL   H12841002   3.289   3.660   0.758 -0.6242 -1.2767  0.6290
  108MOL   H12941003   3.150   3.743   0.701 -0.3883  0.7449  0.8020
  108MOL   H13041004   3.309   3.825   0.733  1.1709 -2.1248 -1.4632
  108MOL   H13141005   3.114   3.973   0.877  2.0181  0.6333  0.2289
  108MOL   H13241006   3.043   4.007   1.102 -0.8399 -0.4192  0.5882
  108MOL   H13341007   3.266   3.773   1.421  1.8438  1.4221  0.6718
  108MOL   H13441008   3.181   3.862   1.524 -3.0104 -3.2205 -0.8232
  108MOL   C13541009   3.308   3.990   1.396 -0.1436 -0.6468  0.4630
  108MOL   C13641010   3.456   3.960   1.432  0.1456 -0.7733 -0.1827
  108MOL   C13741011   3.541   3.918   1.325 -0.1485  0.2111 -0.3842
  108MOL   C13841012   3.676   3.896   1.348 -0.5765  0.2500  0.3064
  108MOL   C13941013   3.725   3.894   1.477 -0.2686 -0.5058  0.0212
  108MOL   C14041014   3.870   3.856   1.500 -0.4418  0.0827 -0.6197
  108MOL   C14141015   3.646   3.919   1.585 -0.0968  0.1678 -0.1231
  108MOL   C14241016   3.508   3.951   1.565  0.3974  0.0707  0.9009
  108MOL   C14341017   3.249   4.121   1.455 -0.2478 -0.1349  0.3132
  108MOL   H14441018   3.315   3.990   1.288  0.3589 -1.4717  0.4949
  108MOL   H14541019   3.504   3.904   1.224 -0.0817  0.1743 -0.4034
  108MOL   H14641020   3.740   3.858   1.270 -0.6955 -1.2667  0.9236
  108MOL   H14741021   3.887   3.753   1.471  2.6925  0.2514  0.4881
  108MOL   H14841022   3.941   3.905   1.433 -0.2831  1.2174  0.3531
  108MOL   H14941023   3.908   3.887   1.597 -2.9124  1.3995 -0.0192
  108MOL   H15041024   3.684   3.908   1.685 -0.2722  3.4030  0.3643
  108MOL   H15141025   3.453   3.955   1.658  2.3528  0.3606  2.0823
  108MOL   H15241026   3.275   4.131   1.560 -1.9698  0.8351  0.6738
  108MOL   H15341027   3.140   4.119   1.459 -0.2211 -2.5603  0.6347
  108MOL   C15441028   3.302   4.247   1.381  0.6670  0.0021 -0.1245
  108MOL   C15541029   3.306   4.362   1.477  0.3027  0.3566  0.4155
  108MOL   C15641030   3.433   4.423   1.497  0.3100 -0.0511 -0.0050
  108MOL   C15741031   3.447   4.539   1.577 -0.6340 -0.4544  0.1348
  108MOL   C15841032   3.335   4.596   1.636 -0.3370  0.2365 -0.0638
  108MOL   C15941033   3.344   4.721   1.728  0.1272  0.3035  0.7892
  108MOL   C16041034   3.214   4.524   1.629 -0.1232  0.3483 -0.2353
  108MOL   C16141035   3.195   4.412   1.543  0.2208 -0.1743 -0.2494
  108MOL   C16241036   3.217   4.282   1.258 -0.2874  0.5622 -0.4494
  108MOL   H16341037   3.403   4.224   1.348  1.1167  0.5979  0.8221
  108MOL   H16441038   3.521   4.387   1.447  0.5336  1.5239 -0.7709
  108MOL   H16541039   3.539   4.593   1.587 -1.1826  0.6358 -0.5640
  108MOL   H16641040   3.240   4.731   1.760 -0.1867 -1.4755  0.3409
  108MOL   H16741041   3.419   4.704   1.805  0.4625 -2.5190 -0.1111
  108MOL   H16841042   3.369   4.808   1.667 -1.0540  0.3245  0.3130
  108MOL   H16941043   3.130   4.568   1.681 -0.1888  1.4197 -1.2185
  108MOL   H17041044   3.105   4.356   1.526  1.8360 -2.9448 -0.0222
  108MOL   H17141045   3.115   4.289   1.296  0.1225  0.3633  0.7267
  108MOL   H17241046   3.224   4.199   1.188  0.7276  0.8461 -0.6965
  108MOL   C17341047   3.249   4.410   1.176 -0.7242  0.6402 -0.6118
  108MOL   C17441048   3.134   4.428   1.069  0.6358 -0.4238  0.5518
  108MOL   C17541049   3.021   4.502   1.101 -0.0131  0.1731  0.9877
  108MOL   C17641050   2.916   4.520   1.005 -0.3813 -0.2237 -0.1356
  108MOL   C17741051   2.927   4.453   0.881 -0.4306  0.2280 -0.0469
  108MOL   C17841052   2.813   4.452   0.779  0.1418 -0.0257 -0.4170
  108MOL   C17941053   3.044   4.391   0.845 -0.0111  0.3016 -0.3709
  108MOL   C18041054   3.143   4.372   0.940  0.5812  0.2485  0.0686
  108MOL   C18141055   3.397   4.403   1.113 -0.9021  0.6425 -0.2558
  108MOL   H18241056   3.246   4.498   1.239  2.5640  1.4007 -1.4406
  108MOL   H18341057   3.009   4.538   1.202  2.3433  1.0451  0.9754
  108MOL   H18441058   2.828   4.579   1.028  0.2870  1.2528 -1.2903
  108MOL   H18541059   2.728   4.421   0.839  0.7898 -2.5890 -0.7555
  108MOL   H18641060   2.803   4.548   0.729 -0.0984 -0.0074 -0.3334
  108MOL   H18741061   2.817   4.372   0.706  1.7921  1.4717 -2.0073
  108MOL   H18841062   3.068   4.345   0.750  1.1492  0.7786 -0.3199
  108MOL   H18941063   3.233   4.319   0.912 -0.3708 -1.0120 -0.6677
  108MOL   H19041064   3.413   4.319   1.047 -1.3260 -0.1829  0.6767
  108MOL   H19141065   3.466   4.375   1.192 -0.5056 -0.2143 -0.9075
  108MOL   C19241066   3.448   4.519   1.017  0.3801  0.5448  0.4494
  108MOL   C19341067   3.583   4.493   0.965  0.6505  0.0288  0.4091
  108MOL   C19441068   3.603   4.472   0.827 -0.7341 -0.2728 -0.0656
  108MOL   C19541069   3.729   4.439   0.780 -0.2457 -0.3470  0.1239
  108MOL   C19641070   3.842   4.425   0.865 -0.3148 -0.5112 -0.0331
  108MOL   C19741071   3.974   4.378   0.821 -0.4334 -0.4219 -0.1812
  108MOL   C19841072   3.824   4.457   1.001 -0.3089  0.2480 -0.1780
  108MOL   C19941073   3.693   4.484   1.050 -0.2482 -0.6284  0.0618
  108MOL   C20041074   3.451   4.663   1.075 -0.3766 -0.3251 -0.5298
  108MOL   H20141075   3.376   4.511   0.937  0.8062 -1.0790  0.2193
  108MOL   H20241076   3.515   4.489   0.767 -1.4219 -1.1570  0.6827
  108MOL   H20341077   3.756   4.424   0.677 -0.5171 -2.5845  0.3553
  108MOL   H20441078   3.995   4.272   0.832  0.1771 -0.6410 -3.1444
  108MOL   H20541079   3.980   4.382   0.712 -0.3928  0.9790 -0.1372
  108MOL   H20641080   4.053   4.424   0.881 -1.9065  1.0599  0.6481
  108MOL   H20741081   3.904   4.440   1.071 -1.0803 -1.6002  0.2876
  108MOL   H20841082   3.673   4.485   1.156 -1.2816 -1.8692 -0.1099
  108MOL   H20941083   3.543   4.719   1.059  0.4307 -2.2097 -2.6623
  108MOL   H21041084   3.449   4.645   1.183 -0.0302 -1.5330 -0.7135
  108MOL   C21141085   3.330   4.756   1.041  0.4906 -0.6640 -0.1335
  108MOL   C21241086   3.310   4.768   0.890  0.0030  0.2261  0.6377
  108MOL   C21341087   3.414   4.821   0.810 -0.8661  0.1163 -0.2995
  108MOL   C21441088   3.397   4.832   0.672 -0.1788  0.5166  0.3327
  108MOL   C21541089   3.281   4.782   0.612 -0.6984  0.7499 -0.1069
  108MOL   C21641090   3.264   4.776   0.456  0.6249  1.1077  0.6553
  108MOL   C21741091   3.175   4.724   0.687  0.2462 -0.8292  0.2260
  108MOL   C21841092   3.189   4.721   0.828  0.4447 -0.2724 -0.2776
  108MOL   C21941093   3.347   4.905   1.088 -1.3422  0.8562  0.1883
  108MOL   H22041094   3.237   4.715   1.080 -0.3838  1.7099  0.3253
  108MOL   H22141095   3.505   4.850   0.861 -0.7891  0.0437 -0.3979
  108MOL   H22241096   3.468   4.867   0.599  1.0303 -2.2643  0.1077
  108MOL   H22341097   3.263   4.877   0.413 -2.0265  0.1625 -1.6762
  108MOL   H22441098   3.342   4.715   0.412 -1.5038 -0.5745 -0.9140
  108MOL   H22541099   3.173   4.725   0.425  0.1294  2.6289 -0.4635
  108MOL   H22641100   3.095   4.678   0.631  0.0718 -1.0028  0.6185
  108MOL   H22741101   3.101   4.691   0.882  1.0219 -2.9048 -0.7313
  108MOL   H22841102   3.295   4.970   1.018 -1.0043 -0.1911 -1.0628
  108MOL   H22941103   3.450   4.938   1.073 -0.7907 -1.6433 -1.8613
  108MOL   C23041104   3.281   4.930   1.227  0.5431 -0.1479  0.7795
  108MOL   C23141105   3.138   4.877   1.237  0.4523 -0.0378 -0.2320
  108MOL   C23241106   3.098   4.802   1.352  0.4512 -0.3192 -0.2992
  108MOL   C23341107   2.967   4.753   1.362  0.5221  0.1315  0.0538
  108MOL   C23441108   2.874   4.785   1.258  0.1689 -0.3762 -0.1319
  108MOL   C23541109   2.734   4.733   1.264  0.1760 -0.0270 -0.7151
  108MOL   C23641110   2.909   4.874   1.161 -0.3098  0.1797  0.3417
  108MOL   C23741111   3.037   4.929   1.148 -0.6941  0.0646 -0.2586
  108MOL   C23841112   3.283   5.077   1.276  0.4543 -0.8986 -0.1431
  108MOL   H23941113   3.346   4.869   1.289  1.1134 -2.1575 -1.7113
  108MOL   H24041114   3.174   4.783   1.426  1.0588  1.2597 -0.4941
  108MOL   H24141115   2.934   4.697   1.449  0.7019 -0.2308 -0.1071
  108MOL   H24241116   2.671   4.809   1.311 -0.2545 -0.8610  0.0883
  108MOL   H24341117   2.700   4.690   1.169 -0.5622 -0.8506 -0.0921
  108MOL   H24441118   2.727   4.649   1.333  0.0908 -0.9763 -1.8572
  108MOL   H24541119   2.841   4.894   1.079  2.1597  0.2485 -1.7572
  108MOL   H24641120   3.061   5.003   1.073  0.1690 -0.6666 -0.7196
  108MOL   H24741121   3.226   5.088   1.369  2.6258  0.1538  1.1036
  108MOL   H24841122   3.234   5.129   1.194  0.0745 -0.7091  0.1978
  108MOL   C24941123   3.417   5.128   1.304 -0.3040 -0.0321 -0.2726
  108MOL   C25041124   3.489   5.044   1.409 -0.3914 -0.4022 -0.2778
  108MOL   C25141125   3.458   5.049   1.544 -0.4856  0.2261 -0.0503
  108MOL   C25241126   3.541   4.993   1.644  0.8784  0.8749  0.3228
  108MOL   C25341127   3.654   4.924   1.602 -0.0728  0.0017 -0.0110
  108MOL   C25441128   3.757   4.865   1.694  0.2112  0.3435 -0.0623
  108MOL   C25541129   3.681   4.908   1.462 -0.4591 -0.9935 -0.4488
  108MOL   C25641130   3.595   4.963   1.368 -0.1366 -0.2119  0.0691
  108MOL   C25741131   3.419   5.278   1.355  0.0793 -0.0578  0.0926
  108MOL   H25841132   3.484   5.112   1.219  0.8420 -2.3789  0.9997
  108MOL   H25941133   3.371   5.100   1.582 -0.2290 -0.2628  1.2553
  108MOL   H26041134   3.521   5.018   1.747 -0.1464 -0.7219  0.5348
  108MOL   H26141135   3.807   4.773   1.664 -1.5188 -0.3477 -0.8706
  108MOL   H26241136   3.821   4.948   1.724  1.8899 -1.4981  1.5270
  108MOL   H26341137   3.719   4.825   1.788 -0.4674 -0.7038 -0.7795
  108MOL   H26441138   3.760   4.844   1.424  1.9256  2.2675 -1.1664
  108MOL   H26541139   3.605   4.950   1.261 -0.4240 -1.5495  0.1854
  108MOL   H26641140   3.355   5.289   1.443  2.2073 -0.7016  1.7526
  108MOL   H26741141   3.377   5.339   1.276  2.2331  0.7493 -0.4511
  108MOL   C26841142   3.555   5.342   1.377  0.1341 -0.0139  0.0607
  108MOL   C26941143   3.556   5.428   1.500  0.1219 -0.0754  0.8467
  108MOL   C27041144   3.654   5.390   1.596 -0.7259 -0.1608  0.0207
  108MOL   C27141145   3.638   5.445   1.727  0.0630  0.5473  0.4446
  108MOL   C27241146   3.553   5.552   1.749  0.8382 -0.7788 -0.0972
  108MOL   C27341147   3.557   5.620   1.883  0.4521  0.0334 -0.2618
  108MOL   C27441148   3.471   5.604   1.647  0.1590 -0.5099 -0.3449
  108MOL   C27541149   3.467   5.539   1.527 -0.1265 -0.1016  0.1518
  108MOL   C27641150   3.607   5.420   1.254  0.6157 -0.4288 -1.1512
  108MOL   H27741151   3.625   5.259   1.391  0.6343  0.4216  0.1687
  108MOL   H27841152   3.741   5.329   1.574  0.2555  0.9743  0.6715
  108MOL   H27941153   3.698   5.406   1.808  1.3052  0.9780 -0.2472
  108MOL   H28041154   3.662   5.616   1.911  0.4732  1.0991 -0.1859
  108MOL   H28141155   3.528   5.723   1.863  1.0424  0.1899 -0.3208
  108MOL   H28241156   3.485   5.579   1.955  2.0299  1.1449  2.0169
  108MOL   H28341157   3.410   5.691   1.663  1.4488  0.1429  1.2189
  108MOL   H28441158   3.401   5.576   1.449 -0.4387 -0.2791  0.3314
  108MOL   H28541159   3.702   5.468   1.276 -1.0426  3.3300 -1.7692
  108MOL   H28641160   3.537   5.503   1.243 -0.3350 -0.8175  1.6802
  108MOL   C28741161   3.624   5.349   1.114 -0.2160  0.6938 -0.1114
  108MOL   C28841162   3.710   5.217   1.115  0.7683  0.1186 -0.7955
  108MOL   C28941163   3.814   5.194   1.205  0.6324  0.3739 -0.1907
  108MOL   C29041164   3.884   5.075   1.212 -0.2155  0.0890  0.0476
  108MOL   C29141165   3.836   4.974   1.133 -0.3591  0.0385 -0.0871
  108MOL   C29241166   3.904   4.844   1.154  0.1079 -0.1084 -0.9819
  108MOL   C29341167   3.731   4.990   1.039  0.5106 -0.3853  0.4738
  108MOL   C29441168   3.664   5.112   1.025 -0.3312 -0.4785  0.1218
  108MOL   C29541169   3.667   5.452   1.006 -0.1324  0.8332 -0.5784
  108MOL   H29641170   3.522   5.315   1.094 -0.7086  1.0282  1.7290
  108MOL   H29741171   3.842   5.271   1.274  1.2779  0.8365 -0.9553
  108MOL   H29841172   3.957   5.062   1.290  0.8313  0.8693 -0.7848
  108MOL   H29941173   4.005   4.848   1.113  1.1130 -1.6220  1.2488
  108MOL   H30041174   3.910   4.808   1.257  1.1005 -2.2146 -1.7535
  108MOL   H30141175   3.854   4.765   1.098 -2.1518  0.8938 -0.4216
  108MOL   H30241176   3.696   4.899   0.993  1.1179  0.1753 -1.1393
  108MOL   H30341177   3.580   5.118   0.957  1.2259 -0.4821 -1.8634
  108MOL   H30441178   3.717   5.405   0.922 -1.5727 -0.4198 -0.7554
  108MOL   H30541179   3.724   5.531   1.054 -0.6498  0.8451  0.0298
  108MOL   C30641180   3.548   5.512   0.930 -0.1186  0.9071  0.4788
  108MOL   C30741181   3.440   5.417   0.881 -0.2633 -0.1857  0.1121
  108MOL   C30841182   3.475   5.315   0.792 -0.4534  0.2777  0.5238
  108MOL   C30941183   3.383   5.213   0.767 -0.0912  0.6841  0.0525
  108MOL   C31041184   3.250   5.218   0.816  0.1840  0.1066  0.1114
  108MOL   C31141185   3.147   5.118   0.777 -0.2646  0.8638 -0.3810
  108MOL   C31241186   3.214   5.323   0.890  0.7243 -0.7808  0.1498
  108MOL   C31341187   3.307   5.424   0.922  0.1558 -0.0561 -0.0971
  108MOL   C31441188   3.597   5.608   0.811  0.3855 -0.8276 -0.2156
  108MOL   H31541189   3.493   5.570   1.005 -2.0963  0.7152 -0.7890
  108MOL   H31641190   3.577   5.298   0.760 -0.6625 -1.4074  0.7013
  108MOL   H31741191   3.406   5.126   0.707 -2.1133 -0.3095  0.6507
  108MOL   H31841192   3.093   5.161   0.692  0.4527 -0.4216 -1.5023
  108MOL   H31941193   3.192   5.025   0.742  1.1298  0.1977  2.9759
  108MOL   H32041194   3.083   5.084   0.858  2.8470  0.2372  1.8841
  108MOL   H32141195   3.111   5.340   0.915  0.9025  1.4548 -0.5336
  108MOL   H32241196   3.277   5.509   0.982  0.3716 -0.0615  0.0171
  108MOL   H32341197   3.633   5.547   0.728  1.1583  0.8811 -1.1719
  108MOL   H32441198   3.674   5.672   0.853  0.1798 -0.4703 -0.3822
  108MOL   C32541199   3.479   5.691   0.749 -0.1537  0.0182  0.0790
  108MOL   C32641200   3.536   5.754   0.616 -0.2487 -0.2868  0.2312
  108MOL   C32741201   3.472   5.727   0.490  0.5218 -0.1653 -1.0070
  108MOL   C32841202   3.516   5.790   0.377 -0.1278 -0.7898  0.4053
  108MOL   C32941203   3.636   5.874   0.385  0.6730  0.5194  0.3260
  108MOL   C33041204   3.701   5.921   0.253  0.1770  0.3011  0.0491
  108MOL   C33141205   3.704   5.889   0.506 -0.2891 -0.1429  0.6349
  108MOL   C33241206   3.656   5.831   0.620  0.0549 -0.3005  0.2725
  108MOL   C33341207   3.430   5.808   0.845 -0.1010 -0.0754  0.1861
  108MOL   H33441208   3.397   5.624   0.726  1.5783 -1.2355 -2.7509
  108MOL   H33541209   3.375   5.683   0.475  0.1671 -0.0743  0.9138
  108MOL   H33641210   3.462   5.776   0.284 -0.2690  0.3898  0.3086
  108MOL   H33741211   3.617   5.946   0.189 -1.5623 -1.6020  1.5096
  108MOL   H33841212   3.762   6.011   0.259  0.6494  0.0569 -1.0808
  108MOL   H33941213   3.762   5.849   0.199 -0.2627  0.4986 -0.7103
  108MOL   H34041214   3.786   5.959   0.520 -0.1582 -0.3796  1.0766
  108MOL   H34141215   3.700   5.851   0.716  2.2692 -1.6279 -0.4319
  108MOL   H34241216   3.484   5.902   0.834 -0.5538  0.3462  1.5358
  108MOL   H34341217   3.441   5.770   0.946  0.1939  0.3318  0.3075
  108MOL   C34441218   3.274   5.827   0.838  0.1717 -0.0467  0.0116
  108MOL   C34541219   3.216   5.858   0.697 -0.3253 -0.7092 -0.0097
  108MOL   C34641220   3.132   5.767   0.634 -0.5085  0.2100  0.8435
  108MOL   C34741221   3.108   5.774   0.492  0.1952 -0.2774  0.0367
  108MOL   C34841222   3.157   5.883   0.422 -0.4085  0.7184 -0.4852
  108MOL   C34941223   3.130   5.894   0.274 -0.2649 -1.2096  0.3966
  108MOL   C35041224   3.242   5.977   0.487  0.3438  0.2178 -0.4152
  108MOL   C35141225   3.262   5.969   0.623 -0.1800  0.4999  0.0005
  108MOL   C35241226   3.235   5.923   0.946 -0.4523 -0.9615  0.8681
  108MOL   H35341227   3.226   5.730   0.851 -2.1114  1.2204  1.6034
  108MOL   H35441228   3.084   5.690   0.691 -2.2264  1.2892  0.9007
  108MOL   H35541229   3.041   5.699   0.453  2.2609 -1.8777 -0.5674
  108MOL   H35641230   3.086   5.802   0.237 -0.4159 -0.3623 -1.6063
  108MOL   H35741231   3.072   5.984   0.250 -1.0555 -1.4407  1.3792
  108MOL   H35841232   3.223   5.900   0.218 -0.4116  2.4700  0.4264
  108MOL   H35941233   3.285   6.059   0.429 -0.7994  0.6706 -0.6265
  108MOL   H36041234   3.333   6.035   0.671 -1.0103  2.1678 -1.0204
  108MOL   H36141235   3.129   5.939   0.927 -0.3247 -1.0706  0.0725
  108MOL   H36241236   3.282   6.021   0.939 -0.7573 -0.7131  2.1829
  108MOL   C36341237   3.249   5.870   1.089 -0.9398 -0.7434 -0.1021
  108MOL   C36441238   3.190   5.740   1.125  0.9088 -0.1622 -1.1012
  108MOL   C36541239   3.244   5.663   1.229 -0.0561 -0.2531  0.4366
  108MOL   C36641240   3.175   5.551   1.278  0.7242 -0.0884 -0.6043
  108MOL   C36741241   3.063   5.502   1.207  0.1104  0.9737  0.1108
  108MOL   C36841242   3.010   5.367   1.240  0.2460 -0.7950 -0.3665
  108MOL   C36941243   3.010   5.568   1.097  0.4018  0.0102 -0.0117
  108MOL   C37041244   3.077   5.691   1.059 -0.1318 -0.3671  0.3053
  108MOL   C37141245   3.193   5.978   1.175 -0.7465  0.3755  0.3703
  108MOL   H37241246   3.356   5.864   1.107 -0.7763  1.2375 -0.2472
  108MOL   H37341247   3.330   5.694   1.285 -0.2763 -1.6860  1.5941
  108MOL   H37441248   3.204   5.498   1.368  1.2880 -0.7487 -1.1563
  108MOL   H37541249   2.959   5.319   1.156 -0.0779  1.7890 -1.7054
  108MOL   H37641250   3.098   5.309   1.267  1.8754  0.6826 -2.3090
  108MOL   H37741251   2.944   5.367   1.326 -1.4091 -1.3226 -1.6019
  108MOL   H37841252   2.935   5.523   1.034 -0.4987  0.9490  0.3640
  108MOL   H37941253   3.028   5.747   0.980 -0.9436 -0.5860  0.6437
  108MOL   H38041254   3.085   5.983   1.156 -0.1136  2.8769 -3.0224
  108MOL   H38141255   3.238   6.075   1.155  1.3125 -0.8824 -1.2378
  108MOL   H38241256   3.207   5.955   1.281 -1.7870 -0.4495  0.3373
  109MOL     C141257   5.447   4.632   5.237  0.2313  0.5026  0.2867
  109MOL     C241258   5.508   4.745   5.322 -0.7189  0.5167  0.4226
  109MOL     C341259   5.560   4.710   5.448 -0.5022  0.0314 -0.3776
  109MOL     C441260   5.607   4.808   5.543  0.5387  0.3130 -0.4696
  109MOL     C541261   5.608   4.939   5.511 -0.0852 -0.8378 -0.7713
  109MOL     C641262   5.671   5.040   5.605  0.3862 -0.3258  0.1152
  109MOL     C741263   5.566   4.979   5.382 -0.2830  0.5134 -0.2603
  109MOL     C841264   5.518   4.886   5.291  0.9416 -0.2100 -0.2536
  109MOL     C941265   5.515   4.617   5.105 -0.1785 -0.4134 -0.8379
  109MOL    H1041266   5.451   4.538   5.291 -0.8138 -1.4753 -2.9610
  109MOL    H1141267   5.558   4.604   5.466  0.2652  0.1589  0.4990
  109MOL    H1241268   5.644   4.772   5.638 -1.4419  0.9412  0.5497
  109MOL    H1341269   5.630   5.140   5.594 -0.3988 -0.2132  3.5837
  109MOL    H1441270   5.636   5.007   5.703 -0.8314 -1.9341 -0.8308
  109MOL    H1541271   5.780   5.047   5.603  0.3420  0.1317 -3.3085
  109MOL    H1641272   5.580   5.079   5.342 -0.1099 -0.9332 -3.9256
  109MOL    H1741273   5.478   4.924   5.198  0.9963  0.7852  0.1195
  109MOL    H1841274   5.615   4.574   5.118  0.1375  0.3446 -0.7371
  109MOL    H1941275   5.527   4.713   5.056 -0.7521 -0.5561 -1.2507
  109MOL    H2041276   5.341   4.652   5.216  0.2576 -2.4750 -3.2081
  109MOL    C2141277   5.451   4.521   4.996  0.3203  0.8651 -0.3170
  109MOL    C2241278   5.302   4.549   4.960  0.1411 -0.3032 -0.3193
  109MOL    C2341279   5.265   4.617   4.841 -0.2925 -0.0428 -0.6141
  109MOL    C2441280   5.129   4.634   4.811 -0.1532  0.4341  0.0945
  109MOL    C2541281   5.023   4.578   4.895 -0.2047 -0.0784 -0.3946
  109MOL    C2641282   4.874   4.601   4.866  0.1316  0.2802  0.4165
  109MOL    C2741283   5.062   4.507   5.010 -0.6024  0.1821 -0.0543
  109MOL    C2841284   5.202   4.492   5.042 -0.1339  0.5596 -0.2100
  109MOL    C2941285   5.471   4.370   5.031  0.4136 -0.1692  0.7745
  109MOL    H3041286   5.506   4.530   4.902 -0.5521 -2.0971 -1.1838
  109MOL    H3141287   5.346   4.661   4.785  2.3296 -0.9039  2.3603
  109MOL    H3241288   5.103   4.695   4.726  1.5568  1.0657 -0.0065
  109MOL    H3341289   4.829   4.682   4.923  0.0220 -0.2345  1.0796
  109MOL    H3441290   4.879   4.620   4.759  3.6493 -2.0068  0.0788
  109MOL    H3541291   4.815   4.509   4.874 -0.4440  0.5728 -0.3996
  109MOL    H3641292   4.986   4.455   5.066 -1.2764  2.8539  1.6193
  109MOL    H3741293   5.239   4.435   5.126 -0.9651 -1.2627 -1.0478
  109MOL    H3841294   5.420   4.333   5.120 -1.0876 -1.4676 -0.5924
  109MOL    H3941295   5.575   4.346   5.051  0.3061  0.3641  1.9797
  109MOL    C4041296   5.431   4.269   4.912 -0.0462 -0.9093  0.0763
  109MOL    C4141297   5.372   4.132   4.960  0.3588 -0.7245  0.4253
  109MOL    C4241298   5.419   4.056   5.075 -0.0618  0.1035 -0.5784
  109MOL    C4341299   5.348   3.940   5.111  0.5660  0.4968 -0.3870
  109MOL    C4441300   5.234   3.897   5.036  0.0449 -0.2063 -0.7663
  109MOL    C4541301   5.150   3.788   5.087 -0.1712  0.4112  0.0429
  109MOL    C4641302   5.194   3.971   4.920  0.1672 -0.2548 -0.0767
  109MOL    C4741303   5.257   4.090   4.886 -0.3503 -0.3491  0.4876
  109MOL    C4841304   5.556   4.252   4.820 -0.2254  0.8605 -0.9526
  109MOL    H4941305   5.354   4.323   4.856  1.4387  1.7557  0.4745
  109MOL    H5041306   5.506   4.073   5.137  0.8463  0.8488 -2.0201
  109MOL    H5141307   5.387   3.883   5.194 -2.2644 -1.8816 -0.6440
  109MOL    H5241308   5.088   3.829   5.166  1.7258  2.8766  0.3110
  109MOL    H5341309   5.079   3.740   5.020  0.4533  0.2000 -0.4786
  109MOL    H5441310   5.206   3.709   5.137 -1.7261 -1.3329 -0.8937
  109MOL    H5541311   5.093   3.961   4.883 -0.8560 -1.6110  2.9319
  109MOL    H5641312   5.213   4.148   4.806 -0.5860 -0.0686  0.8213
  109MOL    H5741313   5.635   4.228   4.892  0.6121 -0.0278 -2.1571
  109MOL    H5841314   5.588   4.351   4.787  3.4450  0.2543  0.4589
  109MOL    C5941315   5.542   4.146   4.714 -0.1569  0.4903  0.2426
  109MOL    C6041316   5.684   4.097   4.662  0.2211  0.1213 -0.5357
  109MOL    C6141317   5.760   4.013   4.748  0.1362 -0.3995  0.3686
  109MOL    C6241318   5.897   3.988   4.710  0.2440  0.0522  0.3655
  109MOL    C6341319   5.948   4.036   4.589 -0.4571 -0.2771  0.4634
  109MOL    C6441320   6.092   4.011   4.557 -0.6084 -0.0163 -0.3570
  109MOL    C6541321   5.859   4.098   4.497  0.0701 -0.0047 -0.1452
  109MOL    C6641322   5.730   4.131   4.534  0.1750 -0.1307  1.3507
  109MOL    C6741323   5.452   4.204   4.600  0.1678 -0.4903  0.4894
  109MOL    H6841324   5.494   4.056   4.754 -2.0515  0.8950 -1.0740
  109MOL    H6941325   5.728   3.979   4.846  0.8145  0.8205  1.0300
  109MOL    H7041326   5.961   3.920   4.764 -0.1202 -0.9709 -0.4679
  109MOL    H7141327   6.128   3.911   4.581  0.9607  0.6258  0.0035
  109MOL    H7241328   6.112   4.036   4.453  0.9187 -0.6978 -0.2423
  109MOL    H7341329   6.151   4.076   4.621 -3.8010  1.2454  1.4198
  109MOL    H7441330   5.894   4.130   4.400  0.1327  0.2164 -0.0482
  109MOL    H7541331   5.678   4.195   4.464 -0.5521 -1.5597  0.5639
  109MOL    H7641332   5.513   4.282   4.555 -0.4652 -0.0614  0.3681
  109MOL    H7741333   5.373   4.249   4.661  2.3956  2.4181  1.3165
  109MOL    C7841334   5.403   4.112   4.487 -0.2428  0.1428  0.5584
  109MOL    C7941335   5.357   4.195   4.367 -0.4462 -0.2343  0.3961
  109MOL    C8041336   5.399   4.168   4.237  0.5574  0.8342  0.8314
  109MOL    C8141337   5.351   4.234   4.119 -0.5763  0.9026 -0.4392
  109MOL    C8241338   5.258   4.342   4.141  0.0674 -0.1985 -0.4604
  109MOL    C8341339   5.196   4.407   4.020 -0.6391 -0.5904 -0.0124
  109MOL    C8441340   5.215   4.378   4.272  0.5062 -0.1246 -0.8536
  109MOL    C8541341   5.270   4.307   4.384 -0.2071  0.7924  0.5608
  109MOL    C8641342   5.296   4.016   4.545 -0.9295 -0.4074 -0.4944
  109MOL    H8741343   5.491   4.056   4.459 -0.1391  0.2325  0.7023
  109MOL    H8841344   5.468   4.087   4.220  0.2989  0.9992 -1.0080
  109MOL    H8941345   5.392   4.222   4.020 -0.5606 -0.4980 -0.2848
  109MOL    H9041346   5.158   4.503   4.052 -0.3880 -0.4784 -0.0494
  109MOL    H9141347   5.266   4.426   3.938 -0.6614 -1.2960 -0.1987
  109MOL    H9241348   5.111   4.346   3.991 -0.1986 -0.3786 -1.8502
  109MOL    H9341349   5.138   4.454   4.279 -2.2405 -2.6404 -2.3757
  109MOL    H9441350   5.232   4.331   4.482  0.6654  2.0088  0.6060
  109MOL    H9541351   5.225   4.075   4.602  2.1096  0.9637  2.0190
  109MOL    H9641352   5.338   3.951   4.623  0.0690  1.0912  0.2434
  109MOL    C9741353   5.226   3.932   4.438  0.1244  0.3913 -0.0822
  109MOL    C9841354   5.080   3.919   4.468  0.1192 -0.0856  0.2193
  109MOL    C9941355   4.993   4.031   4.450  0.0905 -0.1153 -0.2342
  109MOL   C10041356   4.857   4.015   4.457  0.7710  0.0794  0.6703
  109MOL   C10141357   4.797   3.893   4.509 -0.3099  0.1850 -0.1916
  109MOL   C10241358   4.649   3.891   4.532 -0.1727 -0.3339  0.4907
  109MOL   C10341359   4.885   3.785   4.538 -0.4263  0.5410 -0.7495
  109MOL   C10441360   5.026   3.798   4.516  0.2065  0.4175 -0.2999
  109MOL   C10541361   5.301   3.812   4.380 -0.0029  0.3905 -0.3187
  109MOL   H10641362   5.207   3.991   4.348 -2.2837 -0.2102 -0.0012
  109MOL   H10741363   5.045   4.121   4.419  3.6460 -1.0940  2.4520
  109MOL   H10841364   4.786   4.095   4.436  0.2738  0.0477  2.1438
  109MOL   H10941365   4.620   3.977   4.592 -0.7858  0.3400 -0.7686
  109MOL   H11041366   4.597   3.894   4.437 -1.0750 -1.0916  0.9500
  109MOL   H11141367   4.619   3.800   4.584 -2.0297  0.1315  0.2760
  109MOL   H11241368   4.858   3.696   4.591 -2.7772  2.7980  2.0316
  109MOL   H11341369   5.088   3.711   4.528  1.6585  1.5177  0.4062
  109MOL   H11441370   5.299   3.736   4.459 -1.1117  1.4206  0.6486
  109MOL   H11541371   5.404   3.842   4.361  0.3196 -0.1625  0.5180
  109MOL   C11641372   5.244   3.763   4.246  0.3893 -0.0320 -0.0515
  109MOL   C11741373   5.293   3.623   4.219 -0.3690  0.0511  1.1773
  109MOL   C11841374   5.428   3.602   4.168 -0.4333 -0.1949  0.8500
  109MOL   C11941375   5.459   3.470   4.129 -0.2066 -0.1988 -0.1589
  109MOL   C12041376   5.366   3.366   4.129  0.5301 -0.0095 -0.2945
  109MOL   C12141377   5.411   3.226   4.094  0.0652 -0.2433 -0.5883
  109MOL   C12241378   5.241   3.384   4.195  0.1661 -0.3942  0.6142
  109MOL   C12341379   5.207   3.510   4.245 -0.0234 -0.4796 -0.1032
  109MOL   C12441380   5.272   3.858   4.121 -0.1781  0.0227 -0.2647
  109MOL   H12541381   5.137   3.743   4.255  0.5216 -1.0731 -0.6421
  109MOL   H12641382   5.496   3.685   4.149  0.1081 -1.1138 -1.3940
  109MOL   H12741383   5.559   3.451   4.093 -0.9692 -1.5311 -1.5951
  109MOL   H12841384   5.362   3.194   4.002 -1.0029 -2.2297  0.6435
  109MOL   H12941385   5.517   3.219   4.071  0.3936  1.0836  0.4048
  109MOL   H13041386   5.376   3.149   4.163 -0.6743 -2.0112 -2.8755
  109MOL   H13141387   5.173   3.304   4.221  0.5043 -0.7762  0.3378
  109MOL   H13241388   5.118   3.526   4.304  0.1043  1.5443 -0.3990
  109MOL   H13341389   5.379   3.873   4.117 -0.0996 -0.9889 -3.2684
  109MOL   H13441390   5.243   3.961   4.138  2.5321  0.3673  2.6994
  109MOL   C13541391   5.219   3.809   3.982  0.4699  0.4637  0.2591
  109MOL   C13641392   5.287   3.891   3.873  0.2927  0.4000 -0.0757
  109MOL   C13741393   5.411   3.847   3.842  0.5139 -0.1412  0.1137
  109MOL   C13841394   5.491   3.931   3.756  0.0142 -0.0625  0.0233
  109MOL   C13941395   5.448   4.057   3.707  0.1273 -0.3376  0.6749
  109MOL   C14041396   5.537   4.147   3.618  0.4357 -0.2422 -0.3339
  109MOL   C14141397   5.319   4.097   3.744  0.6316 -0.2431  0.2176
  109MOL   C14241398   5.240   4.018   3.834 -0.1219 -0.2825 -0.2129
  109MOL   C14341399   5.060   3.804   3.972 -0.3904 -0.7585  0.0528
  109MOL   H14441400   5.267   3.711   3.977 -0.1691  0.1641 -0.0386
  109MOL   H14541401   5.435   3.746   3.871  1.9841  0.3917  0.7852
  109MOL   H14641402   5.591   3.904   3.725  0.3315 -0.3805  1.2615
  109MOL   H14741403   5.506   4.250   3.634  1.0713 -0.0590 -0.2505
  109MOL   H14841404   5.639   4.137   3.655 -0.2305  1.2563  2.0583
  109MOL   H14941405   5.533   4.113   3.515  0.7360 -0.5702 -0.2395
  109MOL   H15041406   5.277   4.192   3.713  1.2731 -0.1696 -0.4321
  109MOL   H15141407   5.152   4.066   3.875  1.1789 -1.6017  4.4171
  109MOL   H15241408   5.022   3.902   3.945 -2.7925 -2.0559 -1.5116
  109MOL   H15341409   5.013   3.765   4.063 -0.7746 -1.0480 -0.2660
  109MOL   C15441410   5.016   3.714   3.857 -0.2854 -0.3134 -0.7718
  109MOL   C15541411   4.875   3.755   3.825 -0.6254  0.2729 -0.0272
  109MOL   C15641412   4.846   3.844   3.720 -0.5017 -0.0001 -0.4577
  109MOL   C15741413   4.718   3.893   3.691 -0.1481 -0.4434  0.2497
  109MOL   C15841414   4.608   3.831   3.757 -0.9840 -0.4262 -0.5815
  109MOL   C15941415   4.467   3.883   3.720 -0.1748 -0.1535  0.2475
  109MOL   C16041416   4.632   3.720   3.848  0.4103 -0.3792 -0.4800
  109MOL   C16141417   4.761   3.699   3.888 -0.4513 -0.3131  0.2414
  109MOL   C16241418   5.035   3.562   3.897 -0.0723 -0.1391  0.5985
  109MOL   H16341419   5.085   3.735   3.776 -1.0847  2.5944 -0.7468
  109MOL   H16441420   4.935   3.882   3.671 -1.2399  2.3414 -0.0005
  109MOL   H16541421   4.693   3.966   3.615  0.8233  0.0302  0.3773
  109MOL   H16641422   4.472   3.968   3.653  0.3834 -0.6004 -0.2782
  109MOL   H16741423   4.413   3.801   3.673  2.4691 -1.0076 -1.4004
  109MOL   H16841424   4.419   3.914   3.813  0.3304  1.0194  0.1198
  109MOL   H16941425   4.550   3.662   3.889 -0.2877 -0.1431 -1.5208
  109MOL   H17041426   4.777   3.621   3.961 -0.2508  0.0678  0.6072
  109MOL   H17141427   4.958   3.534   3.969  1.1097 -0.0689  1.9194
  109MOL   H17241428   5.131   3.539   3.944 -0.7191 -0.6339  1.7055
  109MOL   C17341429   5.024   3.454   3.786 -0.4067  0.0680 -0.5665
  109MOL   C17441430   4.957   3.327   3.838 -0.1004 -0.1246  0.0606
  109MOL   C17541431   5.009   3.249   3.943 -0.1615 -0.9122 -0.0581
  109MOL   C17641432   4.941   3.132   3.986  0.3848 -0.0741 -0.0072
  109MOL   C17741433   4.834   3.080   3.910  0.5602 -0.0284 -0.0488
  109MOL   C17841434   4.766   2.951   3.954  0.0755 -0.0672 -0.3276
  109MOL   C17941435   4.783   3.155   3.803  0.4343 -0.1116 -0.1606
  109MOL   C18041436   4.842   3.278   3.773  0.2580  0.7351 -0.1922
  109MOL   C18141437   5.164   3.417   3.722  0.0615  0.1916 -0.6569
  109MOL   H18241438   4.953   3.497   3.715 -0.4855  0.9155  0.0220
  109MOL   H18341439   5.105   3.275   3.984 -1.4115  1.6816  1.3467
  109MOL   H18441440   4.986   3.069   4.062 -0.1099 -0.0159  0.3344
  109MOL   H18541441   4.794   2.877   3.879 -0.6753 -0.9603  0.2733
  109MOL   H18641442   4.796   2.910   4.051  2.5405 -3.1930 -2.3248
  109MOL   H18741443   4.657   2.947   3.953  0.0609 -0.2789  0.7958
  109MOL   H18841444   4.696   3.112   3.755  1.2672  1.4835 -3.2123
  109MOL   H18941445   4.800   3.331   3.688  0.1924  0.2641 -0.4532
  109MOL   H19041446   5.220   3.372   3.804  0.3555 -1.3039 -1.6590
  109MOL   H19141447   5.221   3.507   3.702 -1.8121  1.3318 -1.0096
  109MOL   C19241448   5.175   3.325   3.598 -0.1735 -0.2447  0.4453
  109MOL   C19341449   5.247   3.193   3.639  0.5379 -0.2953 -0.5256
  109MOL   C19441450   5.384   3.203   3.674 -0.0103  0.5102  0.4203
  109MOL   C19541451   5.452   3.094   3.728  0.4760  1.2349  0.0873
  109MOL   C19641452   5.381   2.970   3.740 -0.1460 -0.2777 -0.9613
  109MOL   C19741453   5.462   2.847   3.773  0.3753  1.0014 -0.0775
  109MOL   C19841454   5.244   2.960   3.712 -1.1944  0.2802  0.2900
  109MOL   C19941455   5.177   3.073   3.660 -0.0188  0.1047  0.3438
  109MOL   C20041456   5.237   3.380   3.467 -0.3387 -0.0344 -0.1382
  109MOL   H20141457   5.072   3.300   3.571 -0.2685  1.1178 -0.5011
  109MOL   H20241458   5.432   3.300   3.669  1.0990 -0.0923 -1.0238
  109MOL   H20341459   5.552   3.104   3.767  0.5272 -0.0988  0.3197
  109MOL   H20441460   5.401   2.759   3.750  0.0171  1.0709  0.6059
  109MOL   H20541461   5.552   2.845   3.712 -0.0231  0.9889 -0.6706
  109MOL   H20641462   5.483   2.844   3.880  1.2539 -0.6429 -0.2855
  109MOL   H20741463   5.193   2.869   3.741 -3.6369  1.3768 -0.4348
  109MOL   H20841464   5.070   3.066   3.645  0.4536 -0.3827 -3.5095
  109MOL   H20941465   5.218   3.315   3.382  0.0630  0.5317 -0.6713
  109MOL   H21041466   5.345   3.393   3.480 -0.1025 -0.5642 -1.5418
  109MOL   C21141467   5.171   3.516   3.416  0.6607  0.5047  0.5497
  109MOL   C21241468   5.022   3.507   3.378 -0.1182 -1.1986  0.0353
  109MOL   C21341469   4.921   3.569   3.455  0.4432 -0.5382  0.9282
  109MOL   C21441470   4.786   3.549   3.426 -0.6587  0.3354  0.2674
  109MOL   C21541471   4.754   3.480   3.312 -0.2002  0.4774 -0.1483
  109MOL   C21641472   4.614   3.479   3.260  1.0090 -0.1392 -0.4698
  109MOL   C21741473   4.851   3.428   3.226 -0.7435  0.5278  0.6760
  109MOL   C21841474   4.988   3.433   3.261 -0.0624  0.7632  0.6799
  109MOL   C21941475   5.257   3.587   3.304 -0.0005 -0.8367  0.5405
  109MOL   H22041476   5.181   3.581   3.503 -2.2023  2.1265 -0.2665
  109MOL   H22141477   4.937   3.642   3.533 -1.7674 -1.0208  1.8641
  109MOL   H22241478   4.713   3.600   3.486  0.4557  0.9875  1.0719
  109MOL   H22341479   4.553   3.538   3.328 -0.5310 -1.2243 -0.8781
  109MOL   H22441480   4.626   3.509   3.156  0.8466  0.0263 -0.4413
  109MOL   H22541481   4.587   3.374   3.258 -0.5407  0.2602 -1.2211
  109MOL   H22641482   4.835   3.387   3.127 -0.7430 -0.7659  1.2013
  109MOL   H22741483   5.060   3.382   3.200 -1.8785 -0.1013 -0.7736
  109MOL   H22841484   5.184   3.643   3.246  0.7242 -2.1036 -1.6961
  109MOL   H22941485   5.291   3.514   3.230 -2.5743 -0.1458 -1.4145
  109MOL   C23041486   5.355   3.700   3.349 -0.2479  0.6782  0.1685
  109MOL   C23141487   5.483   3.630   3.408  0.2162 -0.7418 -0.5237
  109MOL   C23241488   5.507   3.629   3.550 -0.3163 -0.2468  0.6936
  109MOL   C23341489   5.622   3.563   3.606 -0.5534  0.1991  0.0197
  109MOL   C23441490   5.709   3.494   3.515  0.1844  0.0822  0.2137
  109MOL   C23541491   5.840   3.436   3.568  0.1119 -0.6155  0.7406
  109MOL   C23641492   5.682   3.496   3.378  0.7364  0.3005  0.1115
  109MOL   C23741493   5.565   3.558   3.325  1.0921  0.5480  0.0835
  109MOL   C23841494   5.291   3.819   3.426  0.1953  0.6820 -0.6503
  109MOL   H23941495   5.403   3.727   3.255  1.6854 -2.3020  0.2268
  109MOL   H24041496   5.439   3.687   3.610 -0.6821 -1.2134  1.2093
  109MOL   H24141497   5.635   3.581   3.712  0.0473  0.5325 -0.1100
  109MOL   H24241498   5.853   3.329   3.553  2.7767 -0.6029  2.5921
  109MOL   H24341499   5.929   3.493   3.543 -0.0434 -0.1162  1.3097
  109MOL   H24441500   5.830   3.440   3.677  1.8783 -1.5583  0.9680
  109MOL   H24541501   5.764   3.452   3.323  0.1207  1.5145 -1.8395
  109MOL   H24641502   5.539   3.556   3.220 -1.9577 -0.6918  0.8062
  109MOL   H24741503   5.365   3.898   3.434  0.4774  0.4231 -0.6906
  109MOL   H24841504   5.267   3.811   3.532 -1.3951 -1.9631 -1.1444
  109MOL   C24941505   5.181   3.895   3.345 -0.0947  0.4914  0.1442
  109MOL   C25041506   5.231   3.939   3.206  0.1256 -0.1085 -0.3684
  109MOL   C25141507   5.166   3.909   3.086  0.5318 -0.1515 -0.1690
  109MOL   C25241508   5.215   3.957   2.964  0.4347 -0.1396  0.3851
  109MOL   C25341509   5.327   4.048   2.963  0.0013 -0.6699 -0.1938
  109MOL   C25441510   5.380   4.106   2.837 -0.1185  0.0612  0.1190
  109MOL   C25541511   5.391   4.083   3.082 -0.0725  0.4096  0.1868
  109MOL   C25641512   5.344   4.027   3.205  0.2128  0.0763 -0.3250
  109MOL   C25741513   5.114   4.015   3.426  0.3404  0.3165  0.4738
  109MOL   H25841514   5.092   3.836   3.326  1.5211 -1.7452 -0.6209
  109MOL   H25941515   5.072   3.858   3.070 -0.1965  0.5828  1.5851
  109MOL   H26041516   5.162   3.926   2.875  0.0815  0.7951  0.2605
  109MOL   H26141517   5.321   4.064   2.756  0.2427 -0.1677 -0.0251
  109MOL   H26241518   5.382   4.215   2.834 -1.3742  0.0347 -2.0775
  109MOL   H26341519   5.485   4.092   2.811 -0.1726 -1.5881  0.7271
  109MOL   H26441520   5.474   4.152   3.087 -0.2854  0.7028 -0.4528
  109MOL   H26541521   5.409   4.051   3.288  1.6113  0.2781 -1.4563
  109MOL   H26641522   5.203   4.078   3.435  2.1164 -2.0952  0.4731
  109MOL   H26741523   5.087   3.974   3.524 -0.2104 -0.2652  0.0865
  109MOL   C26841524   5.005   4.090   3.349 -0.2115 -0.7618 -0.1386
  109MOL   C26941525   4.990   4.228   3.419  0.3245 -0.3908  0.3521
  109MOL   C27041526   4.881   4.252   3.506 -0.4565 -0.2120 -0.6892
  109MOL   C27141527   4.862   4.378   3.569  0.2109 -0.1243  1.1796
  109MOL   C27241528   4.949   4.486   3.534 -0.0521 -0.4994  0.1007
  109MOL   C27341529   4.953   4.617   3.607 -0.1105 -0.0625  0.0926
  109MOL   C27441530   5.061   4.457   3.460  0.0404 -0.1071 -0.2687
  109MOL   C27541531   5.084   4.332   3.396 -0.1065 -0.1597 -0.1680
  109MOL   C27641532   4.876   4.012   3.329  0.0432 -0.1485  0.5568
  109MOL   H27741533   5.047   4.111   3.251  1.6685 -0.0511  0.8085
  109MOL   H27841534   4.807   4.179   3.534  1.4910 -1.2722  1.9828
  109MOL   H27941535   4.776   4.387   3.633 -1.6125 -0.1396 -1.1846
  109MOL   H28041536   5.023   4.628   3.690 -0.7512  2.2442  0.3822
  109MOL   H28141537   4.981   4.689   3.531 -0.5839 -0.2162 -0.2316
  109MOL   H28241538   4.855   4.645   3.646 -0.0579  0.3639 -0.0754
  109MOL   H28341539   5.142   4.528   3.451  0.0521 -0.3785 -2.5074
  109MOL   H28441540   5.170   4.304   3.337  0.9612  2.5647  0.0072
  109MOL   H28541541   4.831   3.983   3.424  0.1569 -0.5618  0.4838
  109MOL   H28641542   4.892   3.920   3.274 -3.6891 -0.7351  0.3262
  109MOL   C28741543   4.762   4.086   3.255  0.5177 -0.2351 -0.9395
  109MOL   C28841544   4.626   4.025   3.283  0.3101 -0.6831  0.2565
  109MOL   C28941545   4.506   4.113   3.297  0.0625  0.7337  0.0813
  109MOL   C29041546   4.385   4.056   3.336  0.2141 -0.0125 -0.5007
  109MOL   C29141547   4.374   3.917   3.355 -0.0886  0.2418 -0.4423
  109MOL   C29241548   4.248   3.862   3.417 -0.3867  0.0496 -0.2552
  109MOL   C29341549   4.487   3.837   3.338 -0.2116  0.9284 -0.1259
  109MOL   C29441550   4.613   3.891   3.315 -0.1882  0.1118 -0.1431
  109MOL   C29541551   4.785   4.119   3.109 -0.4297  0.1098 -0.0308
  109MOL   H29641552   4.748   4.180   3.309  1.1600 -1.5748  1.6828
  109MOL   H29741553   4.512   4.221   3.299 -1.2281  0.8225 -0.4547
  109MOL   H29841554   4.304   4.125   3.352  0.3720  0.2617 -0.8790
  109MOL   H29941555   4.206   3.778   3.362 -1.6638 -0.7390  1.8699
  109MOL   H30041556   4.251   3.823   3.518  0.6552 -3.7237 -1.6579
  109MOL   H30141557   4.169   3.937   3.421 -0.6787 -0.2814  0.3358
  109MOL   H30241558   4.478   3.731   3.356  1.3193  1.0194  1.3763
  109MOL   H30341559   4.696   3.824   3.299 -0.4684 -0.1061 -0.6824
  109MOL   H30441560   4.687   4.131   3.063  0.1099 -0.3702 -1.3284
  109MOL   H30541561   4.823   4.030   3.060 -2.1309 -0.2091 -0.7860
  109MOL   C30641562   4.863   4.240   3.077 -0.7010 -0.3670  0.0056
  109MOL   C30741563   4.770   4.363   3.093 -0.2374  0.2618 -0.2162
  109MOL   C30841564   4.671   4.391   3.000  0.0901  0.6510 -0.1380
  109MOL   C30941565   4.587   4.506   3.013 -0.1833  0.6895  0.1900
  109MOL   C31041566   4.603   4.593   3.118 -0.5241 -0.1289 -0.5830
  109MOL   C31141567   4.513   4.712   3.120  0.3462  0.2372  0.3464
  109MOL   C31241568   4.693   4.560   3.223  0.5441  0.7435  0.1269
  109MOL   C31341569   4.777   4.449   3.208 -0.1489  0.2229  0.2603
  109MOL   C31441570   4.937   4.241   2.943  0.0266 -0.9579  0.3169
  109MOL   H31541571   4.944   4.253   3.149 -0.0285 -1.0137 -0.6125
  109MOL   H31641572   4.666   4.320   2.918  0.2939 -1.0015  1.2602
  109MOL   H31741573   4.516   4.523   2.934 -1.1119  0.4422  0.9632
  109MOL   H31841574   4.476   4.720   3.222  0.8491 -2.7312  0.8056
  109MOL   H31941575   4.561   4.807   3.099  0.4238  0.3058  0.8126
  109MOL   H32041576   4.424   4.699   3.059  1.3992  0.5512 -1.2710
  109MOL   H32141577   4.689   4.610   3.319 -0.3941  0.7836  0.0717
  109MOL   H32241578   4.838   4.408   3.287 -1.9860 -2.0484  0.5766
  109MOL   H32341579   4.869   4.216   2.862  0.8584 -1.3030 -0.2839
  109MOL   H32441580   5.007   4.158   2.947  0.2007 -0.9174 -1.5586
  109MOL   C32541581   5.013   4.365   2.895  0.7372 -0.0603  0.3104
  109MOL   C32641582   5.034   4.363   2.740  0.2905  0.3590 -1.1020
  109MOL   C32741583   4.990   4.464   2.654  0.4640 -0.3820  0.3098
  109MOL   C32841584   5.024   4.466   2.518  0.0708  0.3575 -0.1206
  109MOL   C32941585   5.095   4.353   2.466  0.2241 -1.0167  0.1763
  109MOL   C33041586   5.112   4.357   2.314 -0.2705  0.3813  0.0176
  109MOL   C33141587   5.147   4.251   2.550 -0.2501 -0.5082  0.3029
  109MOL   C33241588   5.117   4.260   2.688  0.3284 -0.2500 -0.4647
  109MOL   C33341589   5.138   4.381   2.978 -0.0736 -0.6153 -0.3030
  109MOL   H33441590   4.940   4.443   2.917  1.8337  0.4473  2.2559
  109MOL   H33541591   4.925   4.544   2.686  1.5206 -0.2689  2.2795
  109MOL   H33641592   4.979   4.539   2.451  1.2008 -0.9100 -2.3036
  109MOL   H33741593   5.052   4.282   2.263  0.7794 -1.0926  0.9047
  109MOL   H33841594   5.101   4.457   2.272 -0.5938  0.4512  0.2656
  109MOL   H33941595   5.219   4.336   2.321 -0.2342  0.7699  0.7373
  109MOL   H34041596   5.197   4.163   2.511  2.4592  0.2456  1.9567
  109MOL   H34141597   5.147   4.179   2.752 -0.5951 -0.3623 -0.1717
  109MOL   H34241598   5.198   4.291   2.961 -0.8473 -1.5510  1.7602
  109MOL   H34341599   5.118   4.354   3.082 -0.2429 -0.0888 -0.2012
  109MOL   C34441600   5.218   4.515   2.967  0.5151 -0.0269 -0.0022
  109MOL   C34541601   5.372   4.486   2.975  0.1749 -0.1122  0.8077
  109MOL   C34641602   5.448   4.503   2.862  0.5245  0.4341  0.0461
  109MOL   C34741603   5.585   4.478   2.866 -0.0379 -0.1216  0.0045
  109MOL   C34841604   5.635   4.405   2.982 -0.4587 -0.1892 -0.2512
  109MOL   C34941605   5.773   4.346   2.989 -0.2322  0.2777 -0.4489
  109MOL   C35041606   5.550   4.389   3.096  0.3978 -0.2892 -0.1491
  109MOL   C35141607   5.423   4.434   3.092 -0.3644  0.1378 -0.5488
  109MOL   C35241608   5.180   4.622   3.079 -1.5390  0.1170 -0.1429
  109MOL   H35341609   5.197   4.559   2.869  0.8806 -1.2967 -0.6619
  109MOL   H35441610   5.397   4.549   2.779  1.5844  2.3380  0.4203
  109MOL   H35541611   5.645   4.496   2.778 -0.2279  1.5172  0.1975
  109MOL   H35641612   5.770   4.237   2.989  0.5286  0.2572 -0.1082
  109MOL   H35741613   5.815   4.385   2.896 -2.2375  1.9091 -0.7191
  109MOL   H35841614   5.817   4.386   3.080 -0.4829  1.8987 -1.0175
  109MOL   H35941615   5.589   4.339   3.183 -0.7937 -0.5911  0.2124
  109MOL   H36041616   5.359   4.411   3.175  1.0437  1.1758  0.8616
  109MOL   H36141617   5.245   4.710   3.077 -3.8959  1.9099  0.3881
  109MOL   H36241618   5.196   4.578   3.177  0.6635  1.0079 -0.0552
  109MOL   C36341619   5.037   4.678   3.076  0.5263  0.2736 -0.1909
  109MOL   C36441620   5.002   4.754   2.950 -0.3179  0.2693  0.3562
  109MOL   C36541621   5.089   4.812   2.856 -0.3923 -0.2854  0.5215
  109MOL   C36641622   5.048   4.881   2.743 -0.2760 -0.6751  0.2692
  109MOL   C36741623   4.909   4.896   2.711 -0.3883  0.0994 -0.3039
  109MOL   C36841624   4.869   4.962   2.581  0.2945 -0.2061 -0.2467
  109MOL   C36941625   4.820   4.829   2.802 -0.1556 -0.2870 -0.0253
  109MOL   C37041626   4.865   4.765   2.922 -0.1513  1.3060 -0.1216
  109MOL   C37141627   4.992   4.757   3.201 -0.0023  0.1261 -0.0164
  109MOL   H37241628   4.975   4.589   3.077 -0.0310  0.6414  1.7733
  109MOL   H37341629   5.193   4.798   2.881 -0.6851 -2.9125  0.4170
  109MOL   H37441630   5.118   4.932   2.680  0.6467 -0.1972  1.6710
  109MOL   H37541631   4.895   5.068   2.588  0.2799 -0.2859  1.0407
  109MOL   H37641632   4.914   4.918   2.492 -2.3014  0.3913 -1.9163
  109MOL   H37741633   4.764   4.942   2.558  0.1493 -0.1702  0.3702
  109MOL   H37841634   4.713   4.829   2.791 -0.3397 -1.0215  1.6172
  109MOL   H37941635   4.789   4.721   2.984 -1.5751  0.0573 -2.6387
  109MOL   H38041636   4.884   4.772   3.203 -0.0528 -0.4010  1.8814
  109MOL   H38141637   5.039   4.855   3.205 -1.3487  0.7612  0.7340
  109MOL   H38241638   5.015   4.701   3.292  2.1964 -1.8218 -1.7055
  110MOL     C141639   2.784   3.252   4.024  0.1457 -0.5346  0.4817
  110MOL     C241640   2.690   3.229   3.908  0.9897 -0.3395  0.8680
  110MOL     C341641   2.557   3.186   3.924 -0.5968 -0.2582  0.2519
  110MOL     C441642   2.475   3.160   3.811  0.0679  0.1982  0.7062
  110MOL     C541643   2.518   3.176   3.678 -0.3869  0.3397 -1.0856
  110MOL     C641644   2.431   3.138   3.558  0.5836 -0.2416 -0.1304
  110MOL     C741645   2.652   3.223   3.662 -0.1864  0.2024 -0.2878
  110MOL     C841646   2.740   3.241   3.773  0.9315 -0.0984 -0.3288
  110MOL     C941647   2.925   3.200   4.014 -0.1834  0.1656 -0.2919
  110MOL    H1041648   2.782   3.361   4.036  1.3449 -0.4727  0.2044
  110MOL    H1141649   2.523   3.159   4.023 -2.3950  0.1246 -0.2270
  110MOL    H1241650   2.377   3.117   3.825 -0.3724  0.2474 -1.8752
  110MOL    H1341651   2.329   3.170   3.583  0.7370 -0.4403  0.7710
  110MOL    H1441652   2.465   3.192   3.470  2.8834 -1.1675  0.1610
  110MOL    H1541653   2.426   3.030   3.542  3.5206 -0.9031  2.7373
  110MOL    H1641654   2.683   3.249   3.561  0.1440 -1.1218 -0.5307
  110MOL    H1741655   2.839   3.277   3.750  1.5378 -2.0388 -0.8523
  110MOL    H1841656   2.979   3.255   3.937  0.0725  2.4452  1.4433
  110MOL    H1941657   2.915   3.100   3.972 -0.9013 -0.3033  0.9893
  110MOL    H2041658   2.738   3.218   4.117  1.2690  1.5664  1.8687
  110MOL    C2141659   3.006   3.217   4.150  0.6795  0.5204  0.7740
  110MOL    C2241660   3.026   3.367   4.169 -0.4311  0.5228 -0.3842
  110MOL    C2341661   2.970   3.430   4.271  0.0415 -0.3398 -0.3027
  110MOL    C2441662   3.010   3.562   4.298 -0.0862 -0.3729  0.4420
  110MOL    C2541663   3.107   3.630   4.220  0.6063 -0.3130 -0.4143
  110MOL    C2641664   3.163   3.767   4.262 -0.0616  0.2460  0.0321
  110MOL    C2741665   3.159   3.567   4.106  0.3468 -0.4069 -0.1091
  110MOL    C2841666   3.113   3.436   4.079  0.8721  0.0314 -1.1223
  110MOL    C2941667   3.140   3.142   4.139 -0.1004  0.1188 -1.0214
  110MOL    H3041668   2.961   3.181   4.243 -1.0422  1.4056  0.3056
  110MOL    H3141669   2.905   3.381   4.342 -0.8196  2.9487  1.2847
  110MOL    H3241670   2.977   3.605   4.391  0.2626  1.5477 -0.3009
  110MOL    H3341671   3.103   3.851   4.226  0.0837 -0.1283 -1.0838
  110MOL    H3441672   3.150   3.765   4.370 -0.6048  2.1059  0.0231
  110MOL    H3541673   3.270   3.776   4.241 -0.0451 -0.7249 -0.2832
  110MOL    H3641674   3.223   3.606   4.029 -1.6271  4.6888  0.6158
  110MOL    H3741675   3.161   3.384   3.996  4.9310  0.4372  0.8316
  110MOL    H3841676   3.192   3.187   4.054  1.7781 -0.6575 -0.3150
  110MOL    H3941677   3.119   3.038   4.115 -2.6892  0.7134 -1.5021
  110MOL    C4041678   3.232   3.160   4.265  0.2491  0.0307  0.6299
  110MOL    C4141679   3.371   3.195   4.217 -0.1950  0.5998  0.0089
  110MOL    C4241680   3.415   3.329   4.217 -0.4882 -0.2115  0.5666
  110MOL    C4341681   3.541   3.355   4.162 -0.0213 -0.0476 -0.6984
  110MOL    C4441682   3.616   3.250   4.099 -0.9312  0.1077  0.3518
  110MOL    C4541683   3.748   3.270   4.033 -0.2253 -0.5018 -0.0189
  110MOL    C4641684   3.571   3.117   4.096 -0.8384 -0.0484 -0.9193
  110MOL    C4741685   3.452   3.092   4.156 -0.2995  0.6169 -0.4748
  110MOL    C4841686   3.230   3.032   4.356  0.3026  0.0371  0.4725
  110MOL    H4941687   3.204   3.246   4.327  0.1783  0.7903 -0.4499
  110MOL    H5041688   3.359   3.411   4.260  1.1330  1.0571  0.3005
  110MOL    H5141689   3.588   3.452   4.168 -0.1031 -0.1024  0.9782
  110MOL    H5241690   3.782   3.367   4.068  0.3518 -0.7420  0.0911
  110MOL    H5341691   3.819   3.192   4.062  0.4838 -0.5247 -1.7691
  110MOL    H5441692   3.739   3.269   3.925  2.1771 -0.0931 -0.2494
  110MOL    H5541693   3.637   3.040   4.058 -1.8987 -2.4180  1.7855
  110MOL    H5641694   3.404   2.995   4.158 -1.5797  1.2660  0.9054
  110MOL    H5741695   3.320   3.022   4.417 -0.0456  0.5396  1.0770
  110MOL    H5841696   3.226   2.951   4.283  2.4585 -0.3069  0.6872
  110MOL    C5941697   3.110   2.995   4.451  0.6382  0.1589 -0.5896
  110MOL    C6041698   3.062   3.113   4.527 -0.1454 -0.2992 -0.1080
  110MOL    C6141699   2.925   3.147   4.516  0.6797 -0.1487 -0.4021
  110MOL    C6241700   2.866   3.231   4.613 -0.8377  0.1999 -0.7695
  110MOL    C6341701   2.941   3.294   4.716 -0.4124 -0.7206  0.6988
  110MOL    C6441702   2.875   3.387   4.815 -0.3417 -0.5345 -0.8482
  110MOL    C6541703   3.079   3.270   4.714  0.4249  0.2033  0.7077
  110MOL    C6641704   3.140   3.184   4.617  0.0586  0.0795 -0.3528
  110MOL    C6741705   3.129   2.868   4.538 -0.1442  0.0807 -0.9226
  110MOL    H6841706   3.028   2.972   4.383  0.8307 -1.4821 -0.2852
  110MOL    H6941707   2.876   3.098   4.433  0.3425  3.6246 -2.5460
  110MOL    H7041708   2.763   3.265   4.615 -1.0078 -0.3348  2.2507
  110MOL    H7141709   2.958   3.446   4.855 -1.1658 -0.5313  0.9212
  110MOL    H7241710   2.794   3.448   4.776 -0.8427  0.0781  1.0498
  110MOL    H7341711   2.836   3.332   4.901 -0.7278 -1.6525 -1.7372
  110MOL    H7441712   3.140   3.319   4.788  0.8388 -2.1902  2.0158
  110MOL    H7541713   3.247   3.170   4.619  0.5519  3.4134  2.0373
  110MOL    H7641714   3.044   2.854   4.606 -1.0587  0.8242 -1.8952
  110MOL    H7741715   3.209   2.895   4.608 -1.6082  0.1038  0.7828
  110MOL    C7841716   3.165   2.747   4.459  0.7885 -0.4882  0.5804
  110MOL    C7941717   3.049   2.696   4.383 -0.2453  0.3066 -0.0265
  110MOL    C8041718   3.060   2.682   4.240  0.5951  0.0220 -0.7024
  110MOL    C8141719   2.969   2.614   4.159 -0.4920 -0.1292 -0.1687
  110MOL    C8241720   2.858   2.551   4.214  0.1563 -0.2869  0.6902
  110MOL    C8341721   2.748   2.490   4.121  0.2346 -0.4321 -0.4770
  110MOL    C8441722   2.839   2.560   4.355 -0.3654 -0.6078 -0.3223
  110MOL    C8541723   2.930   2.636   4.442  0.1683 -0.3557  0.2928
  110MOL    C8641724   3.208   2.636   4.554  0.2346  0.0059  0.1368
  110MOL    H8741725   3.246   2.770   4.390  0.6556 -0.2651  0.4990
  110MOL    H8841726   3.142   2.719   4.181  1.1729 -4.5383 -3.0151
  110MOL    H8941727   2.994   2.615   4.054 -0.0699 -0.1480 -0.0671
  110MOL    H9041728   2.653   2.513   4.169  0.5417 -0.7963  0.3154
  110MOL    H9141729   2.761   2.521   4.018  2.4224  0.5375  0.0667
  110MOL    H9241730   2.751   2.381   4.121 -1.7030 -0.5172 -2.0988
  110MOL    H9341731   2.748   2.517   4.391 -1.3072  0.4517 -1.3834
  110MOL    H9441732   2.908   2.644   4.547  0.4366 -2.2806  0.5202
  110MOL    H9541733   3.230   2.550   4.491 -1.1257 -0.4557  0.2770
  110MOL    H9641734   3.123   2.603   4.615 -0.3527 -1.6703 -1.5424
  110MOL    C9741735   3.344   2.653   4.627  0.6074  0.2474 -0.1559
  110MOL    C9841736   3.450   2.718   4.532  0.4464 -0.2723  0.4351
  110MOL    C9941737   3.508   2.845   4.555  1.0522 -0.4285 -0.0261
  110MOL   C10041738   3.609   2.891   4.473 -0.1411  0.0976 -0.4137
  110MOL   C10141739   3.655   2.823   4.360  0.2319 -0.3551  0.6256
  110MOL   C10241740   3.765   2.884   4.270  0.1107  0.0118  0.3044
  110MOL   C10341741   3.594   2.699   4.334 -0.4949  0.3770  0.1738
  110MOL   C10441742   3.494   2.650   4.418  0.0870 -0.4778  0.0341
  110MOL   C10541743   3.411   2.530   4.689  0.1787  0.5658 -0.6006
  110MOL   H10641744   3.329   2.728   4.705 -0.3925 -0.9193  0.7851
  110MOL   H10741745   3.481   2.908   4.638 -0.9264 -1.8744  0.4523
  110MOL   H10841746   3.651   2.987   4.499 -0.4012 -0.3980  1.9126
  110MOL   H10941747   3.750   2.845   4.169  0.6975  1.8864 -0.5278
  110MOL   H11041748   3.738   2.988   4.284  0.3961  0.2579 -0.9186
  110MOL   H11141749   3.866   2.856   4.301 -0.0267  0.3125  1.0261
  110MOL   H11241750   3.611   2.632   4.250  1.5490  0.0619  0.7989
  110MOL   H11341751   3.453   2.551   4.406 -0.7307 -0.0004 -1.1002
  110MOL   H11441752   3.484   2.575   4.756 -1.7779  0.9872  1.2997
  110MOL   H11541753   3.462   2.463   4.619 -2.8690  1.2458 -3.5781
  110MOL   C11641754   3.316   2.451   4.783 -0.0939  0.1575  0.6932
  110MOL   C11741755   3.396   2.396   4.902  0.5457 -0.6695 -0.2887
  110MOL   C11841756   3.490   2.293   4.874 -1.0687 -0.4085 -0.0654
  110MOL   C11941757   3.556   2.226   4.979 -0.0614 -0.1379  0.3891
  110MOL   C12041758   3.547   2.270   5.112 -0.1494 -0.4504  0.0780
  110MOL   C12141759   3.620   2.204   5.228  0.4566  0.2898 -0.6529
  110MOL   C12241760   3.465   2.382   5.135  0.4126 -0.1664  0.6998
  110MOL   C12341761   3.382   2.438   5.036 -0.1859  1.0227  0.4961
  110MOL   C12441762   3.216   2.349   4.722 -0.5955 -0.3851 -0.6783
  110MOL   H12541763   3.259   2.530   4.833  1.2877  1.1651  0.6962
  110MOL   H12641764   3.512   2.261   4.773 -1.8391 -2.6545  0.4633
  110MOL   H12741765   3.602   2.134   4.946 -1.6649 -0.4681 -0.9808
  110MOL   H12841766   3.708   2.147   5.196 -0.8435 -1.5957 -0.9947
  110MOL   H12941767   3.638   2.274   5.309  1.4588  0.4153 -0.9748
  110MOL   H13041768   3.558   2.121   5.262 -0.7431  1.1168 -0.7981
  110MOL   H13141769   3.478   2.422   5.235  1.2529 -0.0100  0.5253
  110MOL   H13241770   3.317   2.521   5.058 -0.8477  0.3470  1.0927
  110MOL   H13341771   3.283   2.286   4.664  0.0654  0.5431 -0.9356
  110MOL   H13441772   3.157   2.384   4.637 -0.8678 -0.6421 -0.5929
  110MOL   C13541773   3.139   2.267   4.819  0.9538  0.4005  0.1446
  110MOL   C13641774   3.099   2.132   4.757 -0.4632  0.2630  0.3625
  110MOL   C13741775   2.975   2.112   4.694  0.4020  0.2565  0.5632
  110MOL   C13841776   2.948   1.995   4.624 -0.2417  0.8541  0.3279
  110MOL   C13941777   3.036   1.889   4.628 -0.1022 -0.1915  0.0307
  110MOL   C14041778   3.014   1.758   4.545 -0.3246 -0.0560 -0.2267
  110MOL   C14141779   3.159   1.897   4.707  0.1161 -0.2533 -0.4181
  110MOL   C14241780   3.193   2.025   4.765  1.1149  0.3578  0.0222
  110MOL   C14341781   3.026   2.344   4.891  0.1712  0.0326 -0.0783
  110MOL   H14441782   3.209   2.228   4.894 -0.9129 -3.9004 -0.2562
  110MOL   H14541783   2.912   2.199   4.680  0.7179  0.5583  1.0103
  110MOL   H14641784   2.860   1.981   4.563  0.0824  2.2372 -0.4650
  110MOL   H14741785   2.967   1.782   4.450  0.6288  0.5391 -0.5614
  110MOL   H14841786   3.101   1.697   4.523 -0.1272  0.1744 -0.0915
  110MOL   H14941787   2.948   1.692   4.601 -1.3782  0.5489 -0.7371
  110MOL   H15041788   3.232   1.819   4.723 -0.4224 -0.2282  2.5095
  110MOL   H15141789   3.291   2.033   4.809  0.6531 -2.3508  1.6552
  110MOL   H15241790   2.956   2.369   4.810 -0.3364 -3.3962 -0.7539
  110MOL   H15341791   3.067   2.441   4.918  0.3823  0.7149 -2.7371
  110MOL   C15441792   2.968   2.267   5.011 -0.3826  0.3825 -0.0995
  110MOL   C15541793   2.832   2.333   5.055 -0.2688  0.2719 -0.1451
  110MOL   C15641794   2.708   2.265   5.030 -0.5555 -0.0778 -0.2184
  110MOL   C15741795   2.586   2.326   5.056 -0.2748  0.5676  0.2300
  110MOL   C15841796   2.590   2.447   5.132 -0.0326  0.1956  0.6409
  110MOL   C15941797   2.459   2.507   5.169  0.3786 -0.2577  0.1597
  110MOL   C16041798   2.711   2.510   5.162 -0.2580 -0.4022  0.4132
  110MOL   C16141799   2.830   2.457   5.121  0.5648  0.1669 -0.1672
  110MOL   C16241800   3.057   2.243   5.132 -0.2340  0.3955 -0.0305
  110MOL   H16341801   2.946   2.171   4.964 -1.7963  1.5225 -1.8257
  110MOL   H16441802   2.709   2.174   4.972  0.2899 -0.5298  0.4952
  110MOL   H16541803   2.496   2.278   5.022  0.3793 -0.2221 -0.3911
  110MOL   H16641804   2.459   2.600   5.226 -1.8043  0.7564 -1.4224
  110MOL   H16741805   2.408   2.539   5.078  1.2589 -0.2399 -0.3228
  110MOL   H16841806   2.387   2.443   5.222 -0.6757  1.9299  1.4757
  110MOL   H16941807   2.702   2.604   5.215 -1.2795  0.6717 -1.6272
  110MOL   H17041808   2.922   2.509   5.139 -0.3575  1.6139  0.4447
  110MOL   H17141809   3.022   2.308   5.212  0.4816  1.0423 -0.2383
  110MOL   H17241810   3.159   2.274   5.107  0.0012 -0.6692 -0.4052
  110MOL   C17341811   3.058   2.105   5.197  0.3046  0.6490  0.6692
  110MOL   C17441812   3.090   2.102   5.344 -0.3179 -0.3824  0.3366
  110MOL   C17541813   3.216   2.148   5.390 -0.3506 -0.4591  0.3213
  110MOL   C17641814   3.251   2.143   5.524  0.3369 -0.2444  0.2796
  110MOL   C17741815   3.171   2.080   5.614  0.1124  0.3384  0.1290
  110MOL   C17841816   3.203   2.100   5.762  0.3135 -0.1408  0.2594
  110MOL   C17941817   3.051   2.023   5.574 -0.0172  0.0850  0.9299
  110MOL   C18041818   3.007   2.037   5.436 -0.8312 -0.7853 -0.5265
  110MOL   C18141819   3.142   2.005   5.110  0.0065 -0.0139 -0.3318
  110MOL   H18241820   2.959   2.059   5.194  0.1224  0.9969  1.1619
  110MOL   H18341821   3.282   2.184   5.313 -2.1128  0.8513 -0.6204
  110MOL   H18441822   3.344   2.175   5.568  0.9935 -1.0964 -0.4536
  110MOL   H18541823   3.289   2.044   5.798 -0.7116 -0.4172  2.3258
  110MOL   H18641824   3.229   2.203   5.789  0.3493 -0.6688  2.2883
  110MOL   H18741825   3.111   2.070   5.812 -0.5997 -0.6264 -1.6697
  110MOL   H18841826   2.980   1.981   5.643 -1.5788 -0.0114 -0.7043
  110MOL   H18941827   2.911   1.998   5.406 -0.8195 -1.1180 -0.1450
  110MOL   H19041828   3.241   2.039   5.079 -0.7825  0.7057 -2.1584
  110MOL   H19141829   3.091   2.010   5.014  0.8595 -2.3032 -0.9408
  110MOL   C19241830   3.131   1.855   5.152  0.3852 -0.0807  0.3811
  110MOL   C19341831   3.261   1.791   5.202  1.1877 -0.1299  0.7790
  110MOL   C19441832   3.340   1.719   5.103  0.2789 -0.2499  0.1447
  110MOL   C19541833   3.467   1.684   5.138 -0.1585 -0.0457 -0.1766
  110MOL   C19641834   3.511   1.701   5.273  0.1920  0.2414 -1.2018
  110MOL   C19741835   3.655   1.659   5.314  0.2878 -0.4176  0.5191
  110MOL   C19841836   3.435   1.778   5.374 -0.2858 -0.2816  0.1448
  110MOL   C19941837   3.308   1.817   5.329 -0.3787 -0.1360 -0.5368
  110MOL   C20041838   3.056   1.758   5.044 -0.0327  0.1215  0.4726
  110MOL   H20141839   3.066   1.866   5.239 -0.5132 -0.5060 -0.2253
  110MOL   H20241840   3.303   1.701   5.003  0.7097  1.5497 -0.3622
  110MOL   H20341841   3.516   1.625   5.061 -0.0642 -0.3589  0.1212
  110MOL   H20441842   3.680   1.733   5.390  1.1982  0.4016 -0.5578
  110MOL   H20541843   3.648   1.573   5.380 -2.2897 -0.5263  0.1519
  110MOL   H20641844   3.739   1.655   5.245  0.4290 -0.2982  0.6853
  110MOL   H20741845   3.479   1.799   5.470 -1.3816  1.2434  0.3377
  110MOL   H20841846   3.253   1.878   5.399 -1.5398 -1.4569 -0.2726
  110MOL   H20941847   3.071   1.657   5.083 -2.2591 -0.8146 -0.9628
  110MOL   H21041848   3.105   1.760   4.946 -1.2882 -0.3690 -0.1760
  110MOL   C21141849   2.900   1.778   5.026 -0.5716 -0.6300  0.0401
  110MOL   C21241850   2.825   1.800   5.162  0.2569  0.0072  0.3307
  110MOL   C21341851   2.720   1.897   5.172  1.3416  0.1384  0.8065
  110MOL   C21441852   2.646   1.905   5.294 -0.3449  0.5172 -0.2638
  110MOL   C21541853   2.678   1.822   5.409 -0.8337 -0.1133 -0.3963
  110MOL   C21641854   2.600   1.840   5.540  0.1185  0.1275  0.7022
  110MOL   C21741855   2.774   1.720   5.393  0.2409 -0.4648 -0.3455
  110MOL   C21841856   2.845   1.708   5.270 -0.2902 -0.1855 -0.1777
  110MOL   C21941857   2.835   1.657   4.950  0.1679  0.2898  0.1949
  110MOL   H22041858   2.884   1.867   4.965  0.6014 -1.3174 -1.3017
  110MOL   H22141859   2.695   1.950   5.082  0.8033 -2.8551 -0.8794
  110MOL   H22241860   2.570   1.981   5.307 -0.6876  0.4317 -1.7041
  110MOL   H22341861   2.632   1.766   5.613 -0.3085 -0.0220  0.7433
  110MOL   H22441862   2.607   1.943   5.576  1.3712  0.2947 -0.0067
  110MOL   H22541863   2.498   1.806   5.518 -0.2906  0.4551  2.0162
  110MOL   H22641864   2.804   1.661   5.478 -0.3601 -0.4430 -0.1108
  110MOL   H22741865   2.924   1.635   5.263  0.0008  0.3222 -2.6802
  110MOL   H22841866   2.853   1.570   5.012 -2.0213  1.1220  2.0933
  110MOL   H22941867   2.892   1.636   4.860  0.7411  1.5899  0.2491
  110MOL   C23041868   2.687   1.669   4.910 -0.4105 -0.8897 -0.0906
  110MOL   C23141869   2.612   1.538   4.899  0.5656 -0.5433  0.2048
  110MOL   C23241870   2.550   1.487   5.016 -0.9647 -0.2453  0.6978
  110MOL   C23341871   2.512   1.351   5.022 -0.0354 -0.2844 -0.1522
  110MOL   C23441872   2.521   1.271   4.906  0.0121  0.1076 -0.1374
  110MOL   C23541873   2.489   1.125   4.922 -0.6310  0.6357  0.7279
  110MOL   C23641874   2.575   1.326   4.788  0.1001  0.3372 -0.0256
  110MOL   C23741875   2.618   1.458   4.781  0.1454  0.0170 -0.1258
  110MOL   C23841876   2.651   1.770   4.793 -0.1201  0.6562 -0.9658
  110MOL   H23941877   2.642   1.707   5.002  1.4545  2.5111 -0.5054
  110MOL   H24041878   2.550   1.540   5.110 -1.5281 -0.3121  0.7327
  110MOL   H24141879   2.478   1.302   5.112 -0.9819 -0.4295 -0.5893
  110MOL   H24241880   2.522   1.062   4.839  1.4754  1.4401  0.9194
  110MOL   H24341881   2.532   1.090   5.016  3.0610  1.5400 -0.5492
  110MOL   H24441882   2.381   1.107   4.927 -0.7677  1.1647 -0.1686
  110MOL   H24541883   2.596   1.264   4.702  1.0507 -0.4990  0.7954
  110MOL   H24641884   2.661   1.503   4.693  1.6918 -1.4772 -0.1369
  110MOL   H24741885   2.687   1.724   4.701  1.4753  2.1430 -1.1036
  110MOL   H24841886   2.717   1.853   4.818  1.5189 -1.0991  0.7189
  110MOL   C24941887   2.500   1.821   4.788  0.1794  0.0031  0.1631
  110MOL   C25041888   2.475   1.899   4.663 -0.7207  0.7120  0.1120
  110MOL   C25141889   2.370   1.858   4.575  0.2075  0.5915  0.1153
  110MOL   C25241890   2.352   1.933   4.458 -0.3019 -0.1794  0.3898
  110MOL   C25341891   2.420   2.059   4.435 -0.5439  0.1831  0.0852
  110MOL   C25441892   2.384   2.145   4.317 -0.6549  0.1878 -0.4347
  110MOL   C25541893   2.525   2.093   4.522 -0.6614 -0.3595 -0.0871
  110MOL   C25641894   2.560   2.011   4.631  0.1441 -0.5943 -0.3438
  110MOL   C25741895   2.465   1.918   4.913  0.5604 -0.1047 -0.2925
  110MOL   H25841896   2.439   1.730   4.784  1.0588 -0.5379 -1.3643
  110MOL   H25941897   2.309   1.775   4.603  0.6807  0.4355  0.6961
  110MOL   H26041898   2.267   1.907   4.395 -1.2162  0.2457  1.4310
  110MOL   H26141899   2.278   2.160   4.301 -0.8840  0.1720  0.9892
  110MOL   H26241900   2.424   2.246   4.322 -0.5505  0.0540  2.3934
  110MOL   H26341901   2.440   2.100   4.235  1.7693  0.1730  1.1575
  110MOL   H26441902   2.589   2.179   4.506 -1.0452 -0.0438  0.0640
  110MOL   H26541903   2.653   2.021   4.687  1.0159  1.1708 -2.0702
  110MOL   H26641904   2.513   2.015   4.915  1.1465 -0.4135  1.9979
  110MOL   H26741905   2.486   1.868   5.008 -0.2262  1.8789  0.9457
  110MOL   C26841906   2.311   1.947   4.914  0.1224  0.0963  0.0310
  110MOL   C26941907   2.292   2.051   5.029  0.2442  0.3645 -0.2402
  110MOL   C27041908   2.238   2.177   4.997 -0.3768 -0.0391  0.1211
  110MOL   C27141909   2.184   2.261   5.094 -0.3081 -0.6288  0.6752
  110MOL   C27241910   2.203   2.231   5.230 -0.3578 -0.2733  0.1865
  110MOL   C27341911   2.153   2.331   5.340 -0.0305 -0.3445  0.0267
  110MOL   C27441912   2.270   2.106   5.263  1.5394 -0.4750 -0.4280
  110MOL   C27541913   2.323   2.019   5.164  0.3014 -0.5770  0.3318
  110MOL   C27641914   2.222   1.813   4.935  0.3590  0.5188  0.2396
  110MOL   H27741915   2.288   1.988   4.815  0.5582 -2.7251 -1.2796
  110MOL   H27841916   2.218   2.192   4.892  0.9937  2.4632  0.1777
  110MOL   H27941917   2.144   2.357   5.066  0.0178 -1.1478 -1.6648
  110MOL   H28041918   2.095   2.411   5.293  1.1375  1.7918  2.1106
  110MOL   H28141919   2.095   2.277   5.413 -1.8172  1.1182 -0.2663
  110MOL   H28241920   2.234   2.384   5.391  0.9010  0.1664 -1.9051
  110MOL   H28341921   2.285   2.071   5.364  1.6051 -0.7428 -0.5304
  110MOL   H28441922   2.356   1.923   5.201  0.0803 -0.3444  1.1452
  110MOL   H28541923   2.242   1.780   5.037  4.4306  1.0630 -0.3097
  110MOL   H28641924   2.249   1.726   4.875  0.0352  0.3697  0.3055
  110MOL   C28741925   2.069   1.830   4.908  0.3809  0.5555  0.4445
  110MOL   C28841926   2.004   1.728   4.996  0.0462  0.2569  0.5169
  110MOL   C28941927   2.035   1.590   4.986  0.2574 -0.2228 -0.2459
  110MOL   C29041928   1.999   1.506   5.091 -0.5849 -0.7251 -0.4754
  110MOL   C29141929   1.933   1.553   5.202  0.6660 -0.1580 -0.5092
  110MOL   C29241930   1.902   1.459   5.314 -0.8175 -0.2999 -0.1432
  110MOL   C29341931   1.902   1.690   5.211 -0.1848  0.0347 -0.4639
  110MOL   C29441932   1.930   1.776   5.106 -0.6529  0.0304  0.2050
  110MOL   C29541933   2.035   1.813   4.753  0.2089 -0.6235  0.6716
  110MOL   H29641934   2.030   1.925   4.944  1.3222  0.2918  2.2301
  110MOL   H29741935   2.083   1.545   4.900  1.0565  0.0784  0.0415
  110MOL   H29841936   2.028   1.402   5.089 -0.5584 -0.7295  0.0856
  110MOL   H29941937   1.817   1.396   5.288 -2.8028  0.9424  2.9583
  110MOL   H30041938   1.990   1.398   5.333 -1.1125 -0.2871  1.3460
  110MOL   H30141939   1.890   1.505   5.413 -1.3071 -0.7686  0.0162
  110MOL   H30241940   1.851   1.730   5.297 -1.8764 -1.6485 -0.6480
  110MOL   H30341941   1.902   1.878   5.130 -3.0584 -0.2782 -1.1707
  110MOL   H30441942   2.054   1.709   4.726 -0.1071 -0.5214  0.0566
  110MOL   H30541943   2.111   1.869   4.699  2.3327 -2.4242  1.6659
  110MOL   C30641944   1.892   1.860   4.710 -0.2161  0.7504 -0.4767
  110MOL   C30741945   1.847   1.793   4.581 -0.2540  0.0661 -0.4874
  110MOL   C30841946   1.733   1.716   4.569 -0.3230 -0.7023  0.3000
  110MOL   C30941947   1.700   1.657   4.445  0.2123 -0.1235  0.1042
  110MOL   C31041948   1.771   1.695   4.329 -0.8999  0.0931  0.2080
  110MOL   C31141949   1.735   1.652   4.182  0.1301 -0.0661 -0.0746
  110MOL   C31241950   1.876   1.783   4.342 -0.1436  0.0819  0.0245
  110MOL   C31341951   1.923   1.820   4.470 -0.0636 -0.7439 -0.5137
  110MOL   C31441952   1.882   2.015   4.705 -0.8295 -0.2616 -0.3392
  110MOL   H31541953   1.824   1.826   4.788  0.4057 -0.0338 -0.2728
  110MOL   H31641954   1.671   1.696   4.655  0.1948 -1.1632  0.5740
  110MOL   H31741955   1.614   1.594   4.429 -1.2878  1.4588  1.7904
  110MOL   H31841956   1.638   1.602   4.182 -0.0196  0.2261  0.5447
  110MOL   H31941957   1.727   1.732   4.108 -1.1119 -0.1616 -0.0468
  110MOL   H32041958   1.811   1.581   4.148 -0.8253 -0.6058 -1.1136
  110MOL   H32141959   1.927   1.826   4.256 -0.4565 -0.9516 -0.6882
  110MOL   H32241960   2.002   1.893   4.464 -0.9524  0.2306 -0.7019
  110MOL   H32341961   1.950   2.055   4.630  1.0114 -0.7266  1.0377
  110MOL   H32441962   1.921   2.052   4.799  0.0278 -0.3602 -0.6524
  110MOL   C32541963   1.740   2.064   4.681  0.0993  0.1480  0.1507
  110MOL   C32641964   1.741   2.215   4.655 -0.5885 -0.4397 -1.1520
  110MOL   C32741965   1.797   2.310   4.752 -0.0805 -0.5212  0.1261
  110MOL   C32841966   1.791   2.454   4.720 -0.7815 -0.0354  0.2665
  110MOL   C32941967   1.730   2.496   4.596  0.3441  0.6561  0.0394
  110MOL   C33041968   1.724   2.645   4.565  0.0987  0.1038  0.8997
  110MOL   C33141969   1.678   2.400   4.506 -0.2478 -0.5766 -0.3665
  110MOL   C33241970   1.680   2.262   4.537 -0.1538  0.3246  0.0381
  110MOL   C33341971   1.643   2.043   4.796 -0.1046 -0.1811  0.5643
  110MOL   H33441972   1.701   2.017   4.591  2.3772  0.5647 -1.0732
  110MOL   H33541973   1.825   2.267   4.847 -0.7465 -0.2369  0.4551
  110MOL   H33641974   1.826   2.518   4.799 -1.6409 -1.1682  1.5856
  110MOL   H33741975   1.724   2.666   4.458  1.3524 -0.4530  0.7815
  110MOL   H33841976   1.638   2.700   4.604 -0.2879  0.0787  0.0798
  110MOL   H33941977   1.815   2.687   4.609  1.3985 -0.3899 -1.2706
  110MOL   H34041978   1.645   2.440   4.411  1.7199 -2.8397 -2.0359
  110MOL   H34141979   1.641   2.187   4.470  1.1941 -0.1180 -0.2639
  110MOL   H34241980   1.678   2.109   4.875 -0.2946 -0.1432  0.6164
  110MOL   H34341981   1.639   1.939   4.829  0.4380  0.1856  1.7769
  110MOL   C34441982   1.495   2.090   4.771 -0.0899  0.7111 -0.5724
  110MOL   C34541983   1.444   2.152   4.897 -0.2986 -0.0791 -0.2772
  110MOL   C34641984   1.453   2.068   5.014  0.0624 -0.2979 -0.4491
  110MOL   C34741985   1.418   2.127   5.136  0.6159  0.3391 -0.3874
  110MOL   C34841986   1.370   2.258   5.147 -0.3747  0.2797 -0.4169
  110MOL   C34941987   1.326   2.318   5.279 -0.0510  0.2765  0.2016
  110MOL   C35041988   1.340   2.328   5.028 -0.4635  0.4710 -0.0129
  110MOL   C35141989   1.390   2.284   4.907  0.6787  0.5768 -0.0543
  110MOL   C35241990   1.403   1.971   4.728 -0.6750  0.0080  0.6627
  110MOL   H35341991   1.490   2.165   4.693  0.0349  0.7153 -0.5771
  110MOL   H35441992   1.485   1.965   5.006  0.4493 -0.3250  1.3178
  110MOL   H35541993   1.416   2.071   5.228  0.2546  0.4896 -0.3062
  110MOL   H35641994   1.314   2.426   5.270 -1.2289  0.2111  0.8622
  110MOL   H35741995   1.226   2.284   5.305 -0.1121  0.0560 -0.3128
  110MOL   H35841996   1.387   2.293   5.365  2.7508  1.0420 -1.4911
  110MOL   H35941997   1.284   2.420   5.032 -1.8438 -0.4568  3.3047
  110MOL   H36041998   1.383   2.349   4.821  0.3626  0.2990 -0.2409
  110MOL   H36141999   1.418   1.884   4.793  0.8144 -0.7886 -0.7282
  110MOL   H36242000   1.447   1.949   4.631  1.7460  2.6028  1.1103
  110MOL   C36342001   1.250   2.000   4.716  0.3191 -0.0611  0.2045
  110MOL   C36442002   1.170   1.878   4.671 -0.4810 -0.2463  0.6917
  110MOL   C36542003   1.203   1.799   4.561  0.0762 -0.2855 -0.2448
  110MOL   C36642004   1.127   1.685   4.521  0.2407 -0.0365 -1.0371
  110MOL   C36742005   1.019   1.649   4.597 -0.6022  0.3637  0.4328
  110MOL   C36842006   0.951   1.520   4.558  0.1086 -0.4951 -0.5824
  110MOL   C36942007   0.984   1.723   4.706 -0.0323  0.1916  0.0069
  110MOL   C37042008   1.050   1.840   4.737 -0.3960 -0.1246 -0.1049
  110MOL   C37142009   1.220   2.122   4.623  0.6302 -0.4387  0.3139
  110MOL   H37242010   1.210   2.025   4.815 -0.8132  1.1045 -0.5281
  110MOL   H37342011   1.288   1.833   4.504  0.9192 -2.2917 -0.2354
  110MOL   H37442012   1.153   1.631   4.431 -0.0910 -0.5918 -0.7993
  110MOL   H37542013   1.018   1.436   4.576  1.2293  0.7060  0.9948
  110MOL   H37642014   0.848   1.513   4.594  0.5774 -2.5522  0.4136
  110MOL   H37742015   0.933   1.514   4.450  0.2083 -3.5982 -0.4656
  110MOL   H37842016   0.915   1.685   4.779 -1.8516  2.9234 -0.2053
  110MOL   H37942017   1.013   1.895   4.823 -2.1614 -2.3062  0.5754
  110MOL   H38042018   1.235   2.115   4.516  1.7733 -1.0995  0.5072
  110MOL   H38142019   1.278   2.203   4.667 -0.5116 -0.4812  1.9722
  110MOL   H38242020   1.117   2.159   4.627  0.3586 -1.2732  1.7651
  111MOL     C142021   6.636   6.699   7.114  0.4466 -0.1593  0.5042
  111MOL     C242022   6.659   6.843   7.068 -0.3097 -0.2339 -0.4705
  111MOL     C342023   6.691   6.882   6.937 -0.2252  0.3111 -0.2651
  111MOL     C442024   6.707   7.013   6.894  0.0090 -0.2402  0.0360
  111MOL     C542025   6.708   7.111   6.996  0.4552 -0.2797  0.3891
  111MOL     C642026   6.734   7.250   6.954  0.3294  0.1225  0.0963
  111MOL     C742027   6.691   7.075   7.134 -0.2953  0.0825 -0.6245
  111MOL     C842028   6.650   6.942   7.167 -0.2616  0.2760  0.4567
  111MOL     C942029   6.676   6.593   7.015 -0.3413  0.1491  0.8680
  111MOL    H1042030   6.676   6.676   7.213  0.1025 -2.4970  0.1302
  111MOL    H1142031   6.707   6.806   6.862  2.1201 -0.9972  1.4749
  111MOL    H1242032   6.720   7.044   6.791  0.4428 -0.1194  0.1279
  111MOL    H1342033   6.768   7.308   7.040  1.6361 -2.5657  1.4562
  111MOL    H1442034   6.806   7.244   6.873 -0.1887 -1.8089 -0.2403
  111MOL    H1542035   6.658   7.298   6.893  0.5528  0.6112  0.2025
  111MOL    H1642036   6.689   7.135   7.224 -1.7931 -4.4733  2.5561
  111MOL    H1742037   6.622   6.914   7.268  2.1788 -0.3921  0.9773
  111MOL    H1842038   6.634   6.604   6.915 -1.3609 -0.8418  1.1722
  111MOL    H1942039   6.641   6.500   7.061  0.9014 -0.8367 -0.1345
  111MOL    H2042040   6.532   6.694   7.147  0.9393  1.1007  2.3121
  111MOL    C2142041   6.827   6.562   6.999 -0.3305 -0.7662 -0.0767
  111MOL    C2242042   6.833   6.434   6.911 -0.4601  0.5468  0.9696
  111MOL    C2342043   6.840   6.451   6.773 -0.5763  0.3195 -0.2057
  111MOL    C2442044   6.830   6.347   6.681 -0.7812 -0.4489 -0.1743
  111MOL    C2542045   6.826   6.217   6.737  0.3558 -0.1154 -0.2778
  111MOL    C2642046   6.820   6.097   6.647 -0.2107  0.0396  0.2990
  111MOL    C2742047   6.824   6.196   6.878  0.0200  0.3488  0.2948
  111MOL    C2842048   6.816   6.310   6.967  0.5159  0.3726  0.6360
  111MOL    C2942049   6.910   6.538   7.125  0.3109 -0.0151  0.3547
  111MOL    H3042050   6.873   6.633   6.931  0.4668 -2.6381 -1.5266
  111MOL    H3142051   6.849   6.552   6.735 -2.1763  0.0938 -1.2411
  111MOL    H3242052   6.843   6.367   6.576  2.2419  1.6580  0.5402
  111MOL    H3342053   6.920   6.086   6.605 -0.7720 -1.1425 -0.7546
  111MOL    H3442054   6.790   6.005   6.698 -1.7465  0.9145  1.0095
  111MOL    H3542055   6.755   6.107   6.560 -0.7797 -1.0107  0.5928
  111MOL    H3642056   6.812   6.091   6.902 -1.0227 -0.0184 -1.6563
  111MOL    H3742057   6.813   6.296   7.074  0.4268  0.6569  0.6697
  111MOL    H3842058   6.987   6.462   7.109 -0.8105 -1.8217  3.0851
  111MOL    H3942059   6.842   6.492   7.197  0.4291 -0.2345  0.3269
  111MOL    C4042060   6.985   6.660   7.183 -0.0091 -0.1645  0.2583
  111MOL    C4142061   7.075   6.724   7.073 -0.8440  0.1105 -0.0430
  111MOL    C4242062   7.178   6.644   7.019 -0.1933 -0.0706  0.0173
  111MOL    C4342063   7.257   6.696   6.922  0.1611 -0.3482  0.1064
  111MOL    C4442064   7.228   6.828   6.871 -0.2098 -0.5786 -0.4171
  111MOL    C4542065   7.301   6.881   6.753  0.4840 -0.3927  1.0350
  111MOL    C4642066   7.135   6.910   6.936  0.4871 -0.7671 -0.0299
  111MOL    C4742067   7.056   6.856   7.042 -0.9557  0.0177  0.1821
  111MOL    C4842068   7.072   6.616   7.299  0.2463  0.0036 -0.3539
  111MOL    H4942069   6.921   6.743   7.213 -1.8692 -1.4156 -0.1648
  111MOL    H5042070   7.179   6.538   7.042  0.7970 -0.4174 -1.5704
  111MOL    H5142071   7.341   6.643   6.878 -0.4136 -2.3572  1.3468
  111MOL    H5242072   7.265   6.846   6.656 -0.1810  3.6811 -0.2971
  111MOL    H5342073   7.300   6.990   6.742  1.1705 -0.2764  2.0714
  111MOL    H5442074   7.404   6.847   6.768  1.0291  0.6133 -0.2923
  111MOL    H5542075   7.112   7.012   6.907  2.4967 -0.1674  0.4522
  111MOL    H5642076   6.977   6.916   7.084 -1.6687 -1.2410  0.6618
  111MOL    H5742077   7.145   6.693   7.322  1.7867 -0.7834 -2.4466
  111MOL    H5842078   7.139   6.538   7.263  0.6997 -0.3723  1.2824
  111MOL    C5942079   6.996   6.580   7.428 -0.0600 -0.1095 -0.3834
  111MOL    C6042080   6.921   6.701   7.492 -0.4781  0.1049 -0.8082
  111MOL    C6142081   6.971   6.832   7.499  0.4030 -0.2039 -0.4625
  111MOL    C6242082   6.892   6.937   7.537 -0.4197 -0.6892  1.0178
  111MOL    C6342083   6.760   6.913   7.570  0.3236  0.8251 -0.2707
  111MOL    C6442084   6.680   7.034   7.603  0.6222  0.2788 -0.0993
  111MOL    C6542085   6.712   6.786   7.569  0.1226 -0.1016 -0.0871
  111MOL    C6642086   6.788   6.673   7.530 -0.3938 -0.0415 -0.9319
  111MOL    C6742087   7.069   6.500   7.533 -0.7919 -0.0307  0.4005
  111MOL    H6842088   6.915   6.512   7.401  1.7876 -2.4247 -0.1707
  111MOL    H6942089   7.073   6.859   7.473  0.7643 -0.3875  0.6991
  111MOL    H7042090   6.933   7.035   7.520 -0.7423 -0.9265 -1.3417
  111MOL    H7142091   6.592   7.010   7.663  1.0923  0.4630  0.6735
  111MOL    H7242092   6.741   7.102   7.663 -2.1412  1.8656  0.9995
  111MOL    H7342093   6.646   7.088   7.515 -1.2159 -2.7219 -1.2968
  111MOL    H7442094   6.607   6.763   7.583  0.0988 -0.4670 -0.8167
  111MOL    H7542095   6.746   6.574   7.522 -3.8088  1.4282 -1.8411
  111MOL    H7642096   7.011   6.490   7.625 -2.7394  1.1279 -0.6637
  111MOL    H7742097   7.166   6.549   7.545 -0.3481 -0.8038  0.0445
  111MOL    C7842098   7.107   6.352   7.486  0.3927 -0.6556  0.0935
  111MOL    C7942099   6.997   6.267   7.419 -0.1937  0.1477 -0.8741
  111MOL    C8042100   7.014   6.199   7.295  0.1504 -0.7608 -0.2282
  111MOL    C8142101   6.905   6.118   7.248 -0.1291  0.2366 -0.0489
  111MOL    C8242102   6.786   6.105   7.320 -0.2034  0.5654 -0.1590
  111MOL    C8342103   6.680   6.015   7.265  0.2774  0.0994  0.0020
  111MOL    C8442104   6.765   6.181   7.439 -0.1995 -0.3478  0.4608
  111MOL    C8542105   6.868   6.265   7.485 -0.3436  0.5943 -0.2219
  111MOL    C8642106   7.170   6.273   7.605  0.0067  0.1457 -0.0471
  111MOL    H8742107   7.179   6.362   7.404  0.1988  2.6957  0.2652
  111MOL    H8842108   7.108   6.198   7.242  1.4093 -0.4174  1.9381
  111MOL    H8942109   6.927   6.068   7.155 -1.3214  0.0751 -0.2411
  111MOL    H9042110   6.710   5.921   7.220 -1.1580 -0.0075 -0.7673
  111MOL    H9142111   6.595   6.007   7.334  0.7306 -0.8242  0.4562
  111MOL    H9242112   6.645   6.072   7.179  0.4263  0.3464  0.1022
  111MOL    H9342113   6.677   6.178   7.502  0.4365 -1.1355  1.3315
  111MOL    H9442114   6.851   6.320   7.576 -2.3647 -1.9963  1.0505
  111MOL    H9542115   7.169   6.167   7.577 -3.3862 -0.3014  1.4923
  111MOL    H9642116   7.103   6.273   7.691  0.8796 -2.6490  0.7110
  111MOL    C9742117   7.313   6.321   7.642  0.3565  0.7407 -0.2433
  111MOL    C9842118   7.397   6.340   7.508 -0.1104 -0.1382 -0.4748
  111MOL    C9942119   7.419   6.238   7.419 -0.0481 -0.5637  0.2328
  111MOL   C10042120   7.507   6.249   7.314  0.4208  0.3765 -0.5387
  111MOL   C10142121   7.550   6.379   7.278 -0.1392  0.6678 -0.0783
  111MOL   C10242122   7.647   6.389   7.165 -0.5123 -0.0540 -0.3015
  111MOL   C10342123   7.523   6.489   7.363  0.0124  0.0325  0.1383
  111MOL   C10442124   7.449   6.470   7.482 -0.7833 -0.8325  0.1205
  111MOL   C10542125   7.383   6.208   7.729 -0.7262  0.7137 -0.4749
  111MOL   H10642126   7.306   6.417   7.693  0.9516  1.5718 -1.6994
  111MOL   H10742127   7.390   6.135   7.439 -0.6974 -0.7387 -1.5589
  111MOL   H10842128   7.538   6.158   7.264  1.7966  1.1948 -1.1935
  111MOL   H10942129   7.640   6.295   7.110  0.0364 -0.0419 -0.3913
  111MOL   H11042130   7.614   6.466   7.095  1.2726  0.4275 -0.6367
  111MOL   H11142131   7.748   6.408   7.202 -0.4626 -1.3472  0.2370
  111MOL   H11242132   7.557   6.591   7.347 -1.5214  0.4090 -0.7675
  111MOL   H11342133   7.423   6.556   7.543 -3.4561 -1.1076 -0.5389
  111MOL   H11442134   7.359   6.109   7.691  2.3561 -0.0746 -0.5430
  111MOL   H11542135   7.335   6.208   7.827  2.4911 -1.3333  1.1864
  111MOL   C11642136   7.531   6.234   7.768 -0.7152 -0.5568 -0.5802
  111MOL   C11742137   7.587   6.113   7.855  0.3696  0.0580  0.1579
  111MOL   C11842138   7.687   6.019   7.815 -0.5513  0.1480  0.3073
  111MOL   C11942139   7.727   5.924   7.911 -0.0519 -0.0584  0.0808
  111MOL   C12042140   7.668   5.911   8.040 -0.2664 -0.4764  0.8956
  111MOL   C12142141   7.720   5.818   0.058 -0.4551  0.4003 -0.3266
  111MOL   C12242142   7.567   6.004   8.078  0.4495  0.8094  0.2260
  111MOL   C12342143   7.526   6.100   7.987 -0.7541 -0.3400  0.6876
  111MOL   C12442144   7.547   6.375   7.836  0.3509 -0.5614 -0.3466
  111MOL   H12542145   7.592   6.237   7.678  1.7717  0.1874  1.0555
  111MOL   H12642146   7.729   6.032   7.716 -0.9901  1.4444  0.2771
  111MOL   H12742147   7.815   5.866   7.889  0.6354  0.6035  1.0181
  111MOL   H12842148   7.784   5.881   0.119  0.4135  0.1442 -0.9738
  111MOL   H12942149   7.645   5.771   0.122  0.9095  0.5980  1.4574
  111MOL   H13042150   7.776   5.738   0.010 -0.3552 -0.2128  0.7952
  111MOL   H13142151   7.535   6.002   0.101  0.7265  0.6700  0.3115
  111MOL   H13242152   7.455   6.175   8.019  1.2222  2.3179 -0.8902
  111MOL   H13342153   7.461   6.397   7.899  0.2468 -1.2515 -0.2529
  111MOL   H13442154   7.543   6.447   7.754 -1.0897  1.4551  1.4631
  111MOL   C13542155   7.680   6.416   7.912 -0.3142 -0.3121  0.4576
  111MOL   C13642156   7.688   6.565   7.935 -0.9725  0.4236  0.1019
  111MOL   C13742157   7.698   6.617   8.065  0.3739 -0.2113 -0.7726
  111MOL   C13842158   7.691   6.757   0.005  0.5212  0.1555 -0.5139
  111MOL   C13942159   7.697   6.842   7.979  0.4167  0.3249 -0.4726
  111MOL   C14042160   7.720   6.993   8.004 -0.0263  0.2991 -0.9294
  111MOL   C14142161   7.689   6.793   7.845 -0.4390  0.0918  0.1557
  111MOL   C14242162   7.681   6.653   7.822  0.5351  0.2020  1.0175
  111MOL   C14342163   7.812   6.365   7.853  0.4439  0.1301  0.0382
  111MOL   H14442164   7.662   6.371   8.010  1.2918 -0.6340  0.6128
  111MOL   H14542165   7.703   6.547   0.068  0.1875  0.0006 -0.5819
  111MOL   H14642166   7.690   6.790   0.108 -0.5777  1.4302 -0.9134
  111MOL   H14742167   7.790   7.012   0.006 -1.0975 -0.8845  0.2974
  111MOL   H14842168   7.781   7.033   7.924  0.1110 -1.6757 -1.8325
  111MOL   H14942169   7.624   7.045   8.016  0.1178  0.4756 -0.5406
  111MOL   H15042170   7.688   6.851   7.754  1.9805 -0.2086 -0.1021
  111MOL   H15142171   7.664   6.623   7.720 -1.1641  2.1475  0.7079
  111MOL   H15242172   7.859   6.448   7.801 -0.9705 -0.6211 -2.5054
  111MOL   H15342173   7.795   6.290   7.776  2.9856  0.7226 -1.1435
  111MOL   C15442174   7.905   6.291   7.951  0.6047 -0.1326  0.2174
  111MOL   C15542175   7.889   6.331   0.016  0.3970 -0.8519  0.4724
  111MOL   C15642176   7.819   6.255   0.113 -0.5806  0.7356 -0.2894
  111MOL   C15742177   7.816   6.289   0.251  0.2363  0.2112 -0.1484
  111MOL   C15842178   7.869   6.409   0.294 -0.9499 -0.1179 -0.0672
  111MOL   C15942179   7.858   6.447   0.439  0.0185  0.0072  0.4018
  111MOL   C16042180   7.940   6.489   0.196 -0.7080  0.5600 -0.5807
  111MOL   C16142181   7.952   6.450   0.061 -0.6142  0.4220 -0.4578
  111MOL   C16242182   8.057   6.292   7.913 -1.1072 -0.2251  0.3300
  111MOL   H16342183   7.864   6.190   7.962  1.1834 -0.6605 -2.2120
  111MOL   H16442184   7.786   6.156   0.083  0.5451  0.6988 -1.4592
  111MOL   H16542185   7.782   6.221   0.327 -0.5162  0.5673 -0.1603
  111MOL   H16642186   7.934   6.523   0.457 -0.9623  1.1422 -0.1558
  111MOL   H16742187   7.756   6.476   0.464 -1.5307 -4.3664 -0.3711
  111MOL   H16842188   7.882   6.355   0.493  0.2234 -0.9331 -1.2398
  111MOL   H16942189   7.992   6.580   0.225  0.8974 -0.8586  1.1050
  111MOL   H17042190   8.010   6.512   8.075  0.2018 -2.2433 -2.3035
  111MOL   H17142191   0.037   6.267   8.001 -0.6280 -2.1792 -0.5147
  111MOL   H17242192   8.075   6.394   7.880 -1.0092 -0.2145  0.4189
  111MOL   C17342193   0.017   6.200   7.794  0.9925  0.1524  0.1442
  111MOL   C17442194   8.077   6.053   7.824  0.4513  0.2547  0.0220
  111MOL   C17542195   8.077   5.998   7.955  0.6436 -0.0988 -0.1480
  111MOL   C17642196   8.071   5.862   7.979  0.2613  0.2522 -0.0233
  111MOL   C17742197   8.067   5.775   7.868  0.1642 -0.0429  0.4004
  111MOL   C17842198   8.053   5.625   7.880 -0.2884 -0.3218 -0.5070
  111MOL   C17942199   8.066   5.820   7.733  0.4859 -1.0829  0.1188
  111MOL   C18042200   8.070   5.962   7.713 -0.4960  0.1373  0.2871
  111MOL   C18142201   0.160   6.223   7.750 -0.6148 -0.1701 -0.6136
  111MOL   H18242202   8.020   6.218   7.719  0.5286 -2.4856 -0.0610
  111MOL   H18342203   0.013   6.069   8.034 -1.5643  2.4271 -1.8841
  111MOL   H18442204   0.007   5.823   8.079  1.6784  1.2441  0.1551
  111MOL   H18542205   8.025   5.598   7.981 -0.6405 -2.5062 -1.1679
  111MOL   H18642206   7.968   5.596   7.818  0.6027 -0.4095 -1.7139
  111MOL   H18742207   0.063   5.568   7.856 -0.7019 -1.4919  0.6776
  111MOL   H18842208   8.072   5.759   7.645 -1.9492  1.2734 -1.7800
  111MOL   H18942209   8.062   5.995   7.610  1.1921 -3.5554 -1.1174
  111MOL   H19042210   0.173   6.158   7.664  0.8492  0.8839 -1.2103
  111MOL   H19142211   0.224   6.182   7.828 -1.9014  1.0842  1.1552
  111MOL   C19242212   0.202   6.370   7.709  0.3564  0.5681 -0.1413
  111MOL   C19342213   0.094   6.428   7.620  0.8265 -0.1509 -0.2262
  111MOL   C19442214   0.050   6.556   7.643  0.3710  0.8207  0.2378
  111MOL   C19542215   8.039   6.620   7.556  0.4743  0.2190  0.3899
  111MOL   C19642216   7.993   6.550   7.443  0.7336  0.2349  0.5076
  111MOL   C19742217   7.905   6.625   7.347  0.2200 -0.1898  0.1986
  111MOL   C19842218   8.025   6.414   7.422 -0.5298  0.0046  0.7207
  111MOL   C19942219   0.041   6.352   7.508  0.4232 -0.5997 -0.0938
  111MOL   C20042220   0.331   6.369   7.631 -0.0818 -0.2406 -0.0318
  111MOL   H20142221   0.223   6.426   7.801 -2.4130  0.6573  0.4650
  111MOL   H20242222   0.107   6.618   7.711 -0.3507  0.5369  1.1184
  111MOL   H20342223   8.017   6.726   7.555 -1.6904 -0.2060 -1.8974
  111MOL   H20442224   7.936   6.729   7.348 -0.3670  0.0049 -1.4484
  111MOL   H20542225   7.895   6.593   7.243  0.6535  0.1813  0.0467
  111MOL   H20642226   7.806   6.620   7.394  0.0280 -0.0775 -0.1935
  111MOL   H20742227   7.989   6.367   7.332 -3.1229  0.2054  1.6065
  111MOL   H20842228   0.066   6.250   7.483 -0.5724 -0.8606 -0.0665
  111MOL   H20942229   0.335   6.439   7.547 -0.6299 -1.1199 -0.8066
  111MOL   H21042230   0.340   6.276   7.574  0.5155  0.2985 -0.8332
  111MOL   C21142231   0.455   6.387   7.718 -0.2298 -0.1899  0.6039
  111MOL   C21242232   0.508   6.530   7.733  0.8547  0.7217  0.4991
  111MOL   C21342233   0.566   6.601   7.618  0.5104  0.3639  0.4985
  111MOL   C21442234   0.584   6.737   7.635 -0.5474 -0.1724 -0.5195
  111MOL   C21542235   0.550   6.804   7.749  0.3024  0.4976 -0.3463
  111MOL   C21642236   0.549   6.953   7.743  0.3565 -0.1526 -0.1722
  111MOL   C21742237   0.492   6.736   7.859  0.3372 -0.4257 -0.2658
  111MOL   C21842238   0.468   6.599   7.844  0.1269 -0.6161 -0.0698
  111MOL   C21942239   0.564   6.282   7.682  0.0512  0.1422 -0.0999
  111MOL   H22042240   0.417   6.361   7.817 -1.8947  1.0949  0.3243
  111MOL   H22142241   0.577   6.551   7.522 -1.7729  2.4187 -0.8818
  111MOL   H22242242   0.610   6.791   7.546  0.9951  1.1307  0.6820
  111MOL   H22342243   0.635   7.014   7.770 -0.4792 -0.3365  3.0656
  111MOL   H22442244   0.517   6.976   7.642 -0.0448 -2.8038 -0.7010
  111MOL   H22542245   0.473   6.994   7.810 -0.0993  2.8423 -2.4238
  111MOL   H22642246   0.442   6.783   7.942  0.9508  0.6137 -0.4683
  111MOL   H22742247   0.419   6.547   7.926 -1.1395  0.9983  0.2338
  111MOL   H22842248   0.661   6.328   7.699 -0.4800  0.7889  1.2473
  111MOL   H22942249   0.565   6.268   7.574  0.5216 -1.2197  0.0747
  111MOL   C23042250   0.546   6.140   7.752 -0.2371  0.0362  0.5456
  111MOL   C23142251   0.518   6.131   7.900 -0.0880  0.2398  0.3187
  111MOL   C23242252   0.412   6.043   7.940  0.2375  0.0841  0.1665
  111MOL   C23342253   0.381   6.040   8.076  0.3076 -0.1305  0.0539
  111MOL   C23442254   0.449   6.118   0.092  0.4691  0.2326 -0.5439
  111MOL   C23542255   0.429   6.113   0.241  0.3559  0.1002 -0.1410
  111MOL   C23642256   0.554   6.202   0.047 -0.4427 -0.0241  0.2355
  111MOL   C23742257   0.587   6.215   7.993 -0.0035 -0.1501  0.1227
  111MOL   C23842258   0.665   6.053   7.723  0.4066 -0.6993  0.5734
  111MOL   H23942259   0.457   6.095   7.706  1.0754  0.4376 -2.5032
  111MOL   H24042260   0.368   5.981   7.863  1.0313 -1.0537  0.6161
  111MOL   H24142261   0.310   5.966   0.031  1.8573 -0.7933  1.9703
  111MOL   H24242262   0.355   6.037   0.269  1.2797  0.0489  2.3184
  111MOL   H24342263   0.528   6.084   0.278  0.2919 -1.5755 -1.2158
  111MOL   H24442264   0.413   6.215   0.277  1.3195  0.3573 -0.4298
  111MOL   H24542265   0.597   6.269   0.120 -1.2993 -3.2371  3.8332
  111MOL   H24642266   0.662   6.277   7.946 -0.4642  0.5346  0.2803
  111MOL   H24742267   0.752   6.091   7.778 -0.5419 -1.7357  2.8712
  111MOL   H24842268   0.678   6.070   7.617 -0.8788 -0.5566  0.4321
  111MOL   C24942269   0.643   5.892   7.748  0.1195 -0.4076 -0.4285
  111MOL   C25042270   0.773   5.814   7.746  0.1938  0.3101 -0.4495
  111MOL   C25142271   0.885   5.866   7.683 -0.6442 -0.6752 -0.1920
  111MOL   C25242272   1.004   5.801   7.706  0.2779  0.3304 -0.3695
  111MOL   C25342273   1.007   5.676   7.776  0.2761  0.1981 -0.2195
  111MOL   C25442274   1.146   5.606   7.799  0.4751  0.3824 -0.1932
  111MOL   C25542275   0.893   5.610   7.821 -1.5808 -0.2788  0.1569
  111MOL   C25642276   0.774   5.684   7.801  0.2324  0.1344 -0.0432
  111MOL   C25742277   0.535   5.832   7.656 -0.5369  0.1616 -0.7723
  111MOL   H25842278   0.605   5.889   7.851 -0.3744 -0.0706 -0.5995
  111MOL   H25942279   0.890   5.957   7.626 -0.1515  0.2188  1.2563
  111MOL   H26042280   1.090   5.852   7.665  1.0974 -1.6279 -1.1398
  111MOL   H26142281   1.143   5.499   7.779 -0.4192 -0.2129  2.7722
  111MOL   H26242282   1.220   5.653   7.735 -1.6835  1.1436 -2.2207
  111MOL   H26342283   1.171   5.620   7.905 -1.6822 -0.0997  0.4125
  111MOL   H26442284   0.897   5.510   7.862 -1.3313 -0.4227 -0.2094
  111MOL   H26542285   0.681   5.646   7.841 -0.0127  1.7918  1.0027
  111MOL   H26642286   0.438   5.877   7.677  0.2054  0.6013  1.9253
  111MOL   H26742287   0.519   5.727   7.684  1.6310 -0.0477 -0.2106
  111MOL   C26842288   0.570   5.823   7.505 -0.2715  0.6743  0.4915
  111MOL   C26942289   0.482   5.918   7.432  0.8545  0.1357 -0.6640
  111MOL   C27042290   0.341   5.905   7.432 -0.4558  0.2844  0.7121
  111MOL   C27142291   0.262   6.005   7.365 -0.5455  0.4142 -0.0119
  111MOL   C27242292   0.324   6.103   7.285  0.3252 -0.4457  0.2566
  111MOL   C27342293   0.240   6.213   7.208  0.9168 -0.3709  0.3290
  111MOL   C27442294   0.464   6.103   7.274 -0.4068  0.5296 -0.1320
  111MOL   C27542295   0.547   6.019   7.357  0.6875 -0.6880 -0.2211
  111MOL   C27642296   0.572   5.681   7.436  0.0666  0.0460 -0.6328
  111MOL   H27742297   0.674   5.852   7.495  0.1571 -1.4024 -1.4760
  111MOL   H27842298   0.298   5.829   7.496  0.5770  0.6261  1.8399
  111MOL   H27942299   0.155   5.992   7.366 -0.3748 -1.0521  1.9724
  111MOL   H28042300   0.243   6.194   7.101  1.1045 -0.3395  0.3291
  111MOL   H28142301   0.138   6.226   7.243 -0.1105 -1.1323 -2.2716
  111MOL   H28242302   0.288   6.310   7.225  0.6875 -0.3972  1.1583
  111MOL   H28342303   0.506   6.184   7.217  0.2161  2.0154  2.3242
  111MOL   H28442304   0.653   6.036   7.361  0.5793 -0.3382  1.2711
  111MOL   H28542305   0.473   5.641   7.458  0.2268  0.7520  1.4807
  111MOL   H28642306   0.629   5.600   7.482  2.6734  2.4332  0.5156
  111MOL   C28742307   0.601   5.686   7.285 -0.1537 -0.3236  0.6030
  111MOL   C28842308   0.549   5.561   7.217  0.8586  0.2849  0.1025
  111MOL   C28942309   0.438   5.569   7.126  0.1159 -0.8606 -0.1128
  111MOL   C29042310   0.392   5.450   7.060  0.9641  0.1927 -0.3634
  111MOL   C29142311   0.455   5.330   7.080  0.3899 -0.4311 -0.4182
  111MOL   C29242312   0.400   5.208   7.010  0.5095  0.9731 -0.2887
  111MOL   C29342313   0.573   5.329   7.148 -0.1131  0.0908 -0.0290
  111MOL   C29442314   0.615   5.435   7.222 -0.7635  0.3045 -0.2552
  111MOL   C29542315   0.755   5.700   7.259 -0.0642  0.3790  0.2389
  111MOL   H29642316   0.560   5.775   7.236 -1.6970  0.4089  3.1523
  111MOL   H29742317   0.403   5.670   7.110  0.4475 -0.4267  1.7891
  111MOL   H29842318   0.312   5.456   6.989  1.1962  0.1178 -0.6314
  111MOL   H29942319   0.461   5.119   7.019 -2.4736 -1.1991 -0.7966
  111MOL   H30042320   0.302   5.182   7.051  0.8943  0.3837  0.2660
  111MOL   H30142321   0.395   5.220   6.902  0.5340 -1.8990 -0.6428
  111MOL   H30242322   0.630   5.238   7.160 -0.7271 -0.1419  1.2746
  111MOL   H30342323   0.698   5.411   7.288  0.3187 -0.2070 -1.7823
  111MOL   H30442324   0.800   5.612   7.305 -0.3436 -0.5668 -1.2676
  111MOL   H30542325   0.805   5.782   7.310 -1.1183  1.3662 -0.2925
  111MOL   C30642326   0.784   5.712   7.102  0.2728 -0.2772  0.0596
  111MOL   C30742327   0.893   5.617   7.058 -0.0269 -0.4092 -0.9123
  111MOL   C30842328   1.023   5.640   7.102 -0.0309  0.4538  0.6994
  111MOL   C30942329   1.126   5.552   7.062  0.2405 -0.0718  0.4233
  111MOL   C31042330   1.100   5.444   6.982  0.2467 -0.0323 -0.9170
  111MOL   C31142331   1.207   5.348   6.934 -0.1291 -0.4881  0.0333
  111MOL   C31242332   0.968   5.417   6.953  0.5669 -0.2722  1.0781
  111MOL   C31342333   0.857   5.504   6.978 -0.0013 -0.0467 -0.0126
  111MOL   C31442334   0.803   5.856   7.058  0.2662 -0.3562  0.0513
  111MOL   H31542335   0.703   5.673   7.040 -0.8297  0.5157  0.9669
  111MOL   H31642336   1.046   5.727   7.163 -0.5866 -1.2830  3.4749
  111MOL   H31742337   1.227   5.567   7.097  0.0117  0.5348  0.8322
  111MOL   H31842338   1.166   5.266   6.875 -2.4517  2.2036 -2.2179
  111MOL   H31942339   1.268   5.413   6.872  2.5228 -1.0753  1.9030
  111MOL   H32042340   1.251   5.312   7.027 -2.0309  1.2928  1.6820
  111MOL   H32142341   0.942   5.326   6.899 -1.0089 -0.9254  2.8840
  111MOL   H32242342   0.753   5.497   6.951 -0.4239 -0.4922  1.6859
  111MOL   H32342343   0.889   5.890   7.116  0.9679  0.0301 -1.1927
  111MOL   H32442344   0.714   5.903   7.099  1.5070  3.1928 -1.0889
  111MOL   C32542345   0.803   5.888   6.900  0.0378  0.5024 -0.5652
  111MOL   C32642346   0.933   5.846   6.828  0.5128 -0.1671  0.7279
  111MOL   C32742347   1.050   5.885   6.888 -0.1954 -0.0373  0.3026
  111MOL   C32842348   1.175   5.854   6.829 -0.7453 -0.1197 -0.6668
  111MOL   C32942349   1.183   5.809   6.693 -0.4692  0.0148  0.8369
  111MOL   C33042350   1.313   5.766   6.626 -0.0546  0.3151 -0.1283
  111MOL   C33142351   1.064   5.763   6.633 -0.1037 -0.0209 -0.6039
  111MOL   C33242352   0.939   5.785   6.695 -0.0038 -0.0086 -0.0108
  111MOL   C33342353   0.772   6.026   6.855  0.4925 -0.2258  0.8241
  111MOL   H33442354   0.724   5.819   6.873  0.0382 -1.1822  3.4107
  111MOL   H33542355   1.049   5.936   6.983  1.1366  0.5400  0.0071
  111MOL   H33642356   1.271   5.869   6.876 -1.3032 -0.4614  0.5910
  111MOL   H33742357   1.358   5.689   6.687  1.5158  0.6312 -0.8663
  111MOL   H33842358   1.289   5.728   6.527 -1.5254 -0.0232  0.3466
  111MOL   H33942359   1.386   5.847   6.630  1.0007 -0.6428  0.2997
  111MOL   H34042360   1.055   5.718   6.535  0.4410 -1.8232  0.1594
  111MOL   H34142361   0.842   5.760   6.654  0.2234 -1.8451  0.5484
  111MOL   H34242362   0.776   6.030   6.746 -0.3593  1.7136  0.8411
  111MOL   H34342363   0.856   6.091   6.879  1.7849 -1.0339 -1.2954
  111MOL   C34442364   0.631   6.080   6.890 -0.5596 -0.2487  0.4115
  111MOL   C34542365   0.513   5.988   6.859 -0.7350 -0.0276  0.6077
  111MOL   C34642366   0.513   5.891   6.759 -0.6276  0.1492 -0.1076
  111MOL   C34742367   0.411   5.790   6.748  0.0197  0.3897  0.3763
  111MOL   C34842368   0.300   5.788   6.836 -0.9874 -0.5074 -0.0653
  111MOL   C34942369   0.179   5.699   6.814 -0.1313  0.3539  0.0543
  111MOL   C35042370   0.297   5.888   6.931  0.1568 -0.3229 -0.1789
  111MOL   C35142371   0.400   5.988   6.941  0.5412  0.3003  0.2147
  111MOL   C35242372   0.592   6.221   6.847 -0.2625  1.0177 -0.2407
  111MOL   H35342373   0.626   6.085   6.999  2.6338  0.8735  0.5402
  111MOL   H35442374   0.592   5.897   6.686 -2.8571  2.7312 -2.4710
  111MOL   H35542375   0.418   5.719   6.667 -0.6466  0.4138  0.2997
  111MOL   H35642376   0.095   5.758   6.777 -1.5711 -1.7196 -0.1341
  111MOL   H35742377   0.195   5.617   6.744 -0.9341  1.0992 -1.0203
  111MOL   H35842378   0.151   5.655   6.910  0.3449 -0.3203 -0.1109
  111MOL   H35942379   0.215   5.899   7.000  0.4431  0.1481  0.0856
  111MOL   H36042380   0.392   6.061   7.019 -1.3611 -2.3309  2.5903
  111MOL   H36142381   0.492   6.235   6.886 -1.1929 -0.1523 -2.1266
  111MOL   H36242382   0.583   6.223   6.738  2.1298 -1.1776 -0.5486
  111MOL   C36342383   0.687   6.341   6.882 -0.3025 -0.6668 -0.3513
  111MOL   C36442384   0.741   6.340   7.024  0.1718 -0.5674  0.4621
  111MOL   C36542385   0.875   6.308   7.050  0.7754  0.1406  0.2711
  111MOL   C36642386   0.929   6.298   7.179 -0.3071 -0.0884 -0.0394
  111MOL   C36742387   0.851   6.315   7.294 -0.5459  0.2100 -0.1115
  111MOL   C36842388   0.916   6.314   7.438  0.3377  0.4351  0.1885
  111MOL   C36942389   0.715   6.346   7.275 -0.2060  0.0865 -0.1132
  111MOL   C37042390   0.661   6.361   7.143  0.1986 -0.2522  0.2643
  111MOL   C37142391   0.635   6.473   6.836 -0.0862 -0.2232 -0.2440
  111MOL   H37242392   0.768   6.315   6.814 -0.4103 -1.5740 -0.1503
  111MOL   H37342393   0.949   6.293   6.972  2.7917  2.0219  1.7801
  111MOL   H37442394   1.035   6.281   7.185  0.3718  1.3933 -4.9278
  111MOL   H37542395   0.857   6.376   7.506 -1.9755 -0.8841 -0.5428
  111MOL   H37642396   0.901   6.209   7.466 -1.2024  0.5974  0.0251
  111MOL   H37742397   1.024   6.325   7.436  0.1300  3.5624  2.5986
  111MOL   H37842398   0.651   6.352   7.361 -1.6789 -1.0018 -1.1107
  111MOL   H37942399   0.561   6.395   7.119  0.7976 -0.0205 -2.0162
  111MOL   H38042400   0.685   6.548   6.897 -1.5638 -0.0015  0.7235
  111MOL   H38142401   0.529   6.493   6.856  0.3308  0.9647  0.8665
  111MOL   H38242402   0.636   6.494   6.729 -1.0181  1.4084  0.0394
  112MOL     C142403   0.000   1.757   7.377 -0.6171  0.9210 -0.1849
  112MOL     C242404   8.005   1.749   7.245 -0.1901 -0.1461  0.0394
  112MOL     C342405   8.041   1.658   7.145  0.2640  0.1317 -0.0856
  112MOL     C442406   7.981   1.653   7.020 -0.0956  0.0057  0.0242
  112MOL     C542407   7.886   1.753   6.984  0.6559 -0.6218 -0.8857
  112MOL     C642408   7.817   1.747   6.850 -0.0601 -0.0820  0.4107
  112MOL     C742409   7.847   1.847   7.082 -0.7986  0.1713 -0.4912
  112MOL     C842410   7.902   1.843   7.213 -0.5330  0.2390  0.0327
  112MOL     C942411   0.154   1.792   7.372 -0.1358 -0.3562  0.0514
  112MOL    H1042412   8.032   1.826   7.446 -1.1715  0.1629  0.1782
  112MOL    H1142413   0.021   1.571   7.168  0.6277  0.1032 -1.1163
  112MOL    H1242414   8.010   1.565   6.964  1.2526 -0.6763  1.7471
  112MOL    H1342415   7.789   1.850   6.828  0.2659  0.2672  1.6048
  112MOL    H1442416   7.891   1.699   6.786  0.5546 -3.0390  3.1835
  112MOL    H1542417   7.736   1.675   6.865  2.1160 -2.4455  1.2895
  112MOL    H1642418   7.770   1.921   7.065 -0.2308  0.4561 -1.9705
  112MOL    H1742419   7.888   1.929   7.277  2.0336  0.6336  0.1105
  112MOL    H1842420   0.208   1.699   7.360  0.9745  0.2174  0.5632
  112MOL    H1942421   0.169   1.828   7.473 -0.4317  0.9977 -0.3710
  112MOL    H2042422   8.066   1.662   7.427 -0.7993  1.8262  1.5089
  112MOL    C2142423   0.195   1.897   7.265  0.5073  0.2695 -0.2491
  112MOL    C2242424   0.346   1.907   7.254  0.3208 -0.1805 -0.0987
  112MOL    C2342425   0.406   1.870   7.135  0.3023  0.4640 -0.1066
  112MOL    C2442426   0.546   1.873   7.113  0.1437 -0.2343 -0.4807
  112MOL    C2542427   0.629   1.920   7.220 -0.3156 -0.0812  0.0999
  112MOL    C2642428   0.781   1.944   7.202  0.1557  0.4486 -0.7629
  112MOL    C2742429   0.568   1.961   7.337  0.3930  0.6649  0.2174
  112MOL    C2842430   0.435   1.947   7.359 -0.1260  0.4108  0.3978
  112MOL    C2942431   0.132   2.037   7.285 -0.7065  1.1725 -0.6157
  112MOL    H3042432   0.160   1.859   7.169 -0.6367  0.2006  0.1904
  112MOL    H3142433   0.338   1.839   7.056  0.3077  0.7663 -0.2281
  112MOL    H3242434   0.599   1.838   7.025  0.5931  0.2378 -0.3946
  112MOL    H3342435   0.831   1.903   7.290  0.0519  0.2183 -0.8106
  112MOL    H3442436   0.816   1.891   7.113  1.8058 -1.7211  1.1157
  112MOL    H3542437   0.809   2.049   7.207  2.4135 -0.1097 -0.7571
  112MOL    H3642438   0.630   2.001   7.416  1.5401 -1.9774  0.7272
  112MOL    H3742439   0.385   1.968   7.452 -1.5164 -0.4824 -0.1163
  112MOL    H3842440   0.193   2.077   7.366 -1.4390 -0.0885  0.5830
  112MOL    H3942441   0.024   2.049   7.298 -0.5307  1.8063  0.3599
  112MOL    C4042442   0.159   2.132   7.167  0.0044 -0.0353 -0.2616
  112MOL    C4142443   0.165   2.274   7.215  0.6753 -0.5230  0.7222
  112MOL    C4242444   0.051   2.332   7.271  0.3388 -0.0133  0.4458
  112MOL    C4342445   0.057   2.469   7.317 -0.6146  0.6902 -1.2820
  112MOL    C4442446   0.175   2.545   7.289 -0.5905 -0.3090 -0.4365
  112MOL    C4542447   0.187   2.684   7.338  0.3467 -0.4320  0.2876
  112MOL    C4642448   0.291   2.482   7.237  0.5633  0.1585  0.1846
  112MOL    C4742449   0.286   2.347   7.207 -0.4487 -0.3854  0.5156
  112MOL    C4842450   0.065   2.102   7.051  0.5166 -0.6585  0.0092
  112MOL    H4942451   0.260   2.112   7.131  0.7315  0.9917  1.1538
  112MOL    H5042452   8.036   2.281   7.274  0.1575  0.1099 -2.0661
  112MOL    H5142453   8.053   2.510   7.372  0.8110 -0.7434  2.1063
  112MOL    H5242454   0.112   2.756   7.304 -1.7196 -2.0008  1.3995
  112MOL    H5342455   0.175   2.694   7.446 -0.8639  3.4915 -0.1153
  112MOL    H5442456   0.286   2.711   7.302  0.4136 -1.3838 -0.2645
  112MOL    H5542457   0.384   2.537   7.228  0.9533 -0.6760 -1.1195
  112MOL    H5642458   0.374   2.297   7.170 -1.1834 -1.6817  0.4644
  112MOL    H5742459   8.043   2.115   7.085  0.3306 -2.0436  0.0049
  112MOL    H5842460   0.070   1.999   7.013  0.0522 -1.2361  1.4997
  112MOL    C5942461   0.085   2.199   6.934  0.1472 -0.0441  0.1474
  112MOL    C6042462   8.045   2.201   6.844  0.2061 -0.1547  0.1151
  112MOL    C6142463   8.013   2.089   6.764  0.4330  0.1717  0.0953
  112MOL    C6242464   7.895   2.090   6.688 -0.6257 -0.2263 -0.1602
  112MOL    C6342465   7.804   2.202   6.688  0.6389  0.2910  0.6146
  112MOL    C6442466   7.678   2.198   6.603 -0.2234 -0.4686 -0.8181
  112MOL    C6542467   7.838   2.311   6.770 -0.4710  0.0072 -0.4326
  112MOL    C6642468   7.958   2.313   6.845 -0.1367  0.3974 -0.5201
  112MOL    C6742469   0.216   2.180   6.858 -0.1168  0.0837  0.2249
  112MOL    H6842470   0.088   2.303   6.967  0.8162 -0.4627  1.4371
  112MOL    H6942471   8.072   1.999   6.772 -1.4118 -1.1849 -1.0672
  112MOL    H7042472   7.870   2.003   6.629  1.8853  0.3454 -2.2070
  112MOL    H7142473   7.594   2.185   6.672  1.1026  0.0849  0.9546
  112MOL    H7242474   7.675   2.290   6.544  1.0257 -0.5828 -1.0659
  112MOL    H7342475   7.677   2.119   6.528 -0.9469 -0.3917 -0.8930
  112MOL    H7442476   7.779   2.402   6.767  0.1291  0.3730 -1.4236
  112MOL    H7542477   7.980   2.394   6.913 -2.0771 -0.3913  1.1129
  112MOL    H7642478   0.211   2.091   6.795  4.8541 -0.6159  0.6305
  112MOL    H7742479   0.290   2.156   6.934 -1.2954 -3.3745  0.3722
  112MOL    C7842480   0.258   2.304   6.768  0.2005  0.1869  0.7139
  112MOL    C7942481   0.355   2.261   6.659  0.0963 -0.1782 -0.2693
  112MOL    C8042482   0.343   2.309   6.526 -0.4763  0.4080 -0.0089
  112MOL    C8142483   0.424   2.273   6.410  0.0384 -0.1910 -0.1818
  112MOL    C8242484   0.518   2.168   6.437  0.1225 -0.0659 -0.1948
  112MOL    C8342485   0.581   2.099   6.315  0.1798  0.1753 -0.4105
  112MOL    C8442486   0.529   2.111   6.566 -0.2899 -0.0629 -0.4279
  112MOL    C8542487   0.457   2.164   6.675  0.8768 -0.6656  0.4048
  112MOL    C8642488   0.319   2.414   6.853 -0.1748 -0.7653 -0.0863
  112MOL    H8742489   0.173   2.341   6.711  0.4546 -1.5093 -0.8179
  112MOL    H8842490   0.273   2.388   6.502 -0.8970 -0.3835 -1.4440
  112MOL    H8942491   0.404   2.314   6.313 -0.7605  2.0341  0.8895
  112MOL    H9042492   0.503   2.081   6.242  0.7184 -3.5209 -0.1711
  112MOL    H9142493   0.645   2.170   6.262 -0.0598 -0.2711 -1.3004
  112MOL    H9242494   0.637   2.007   6.332  0.3044  0.5662  1.3851
  112MOL    H9342495   0.596   2.028   6.582 -2.7080 -1.7881  0.9650
  112MOL    H9442496   0.474   2.114   6.770 -2.4833 -0.9138  0.9302
  112MOL    H9542497   0.388   2.367   6.923 -0.2642 -0.3128  0.3094
  112MOL    H9642498   0.239   2.454   6.915 -0.5980 -1.2434 -0.3186
  112MOL    C9742499   0.386   2.540   6.779  0.4852  0.5272 -0.0162
  112MOL    C9842500   0.474   2.618   6.875 -0.3328 -0.2101 -0.2931
  112MOL    C9942501   0.616   2.614   6.854  0.4488  0.0656  0.1556
  112MOL   C10042502   0.698   2.691   6.937  0.4610 -0.6336 -1.0575
  112MOL   C10142503   0.644   2.747   7.055  0.1673 -0.7946 -0.5697
  112MOL   C10242504   0.733   2.829   7.142 -0.7688 -0.1320  0.0584
  112MOL   C10342505   0.506   2.752   7.074 -0.0003  0.2812  0.6380
  112MOL   C10442506   0.423   2.686   6.983 -0.4757 -0.4076  0.5310
  112MOL   C10542507   0.271   2.620   6.708  0.2963  0.9480  0.3773
  112MOL   H10642508   0.463   2.499   6.714  2.3524  1.5466  1.5006
  112MOL   H10742509   0.661   2.535   6.795  1.0345 -1.4906  2.6187
  112MOL   H10842510   0.803   2.699   6.914  0.4579 -1.3994 -1.3540
  112MOL   H10942511   0.670   2.915   7.167  0.1042  0.8604 -1.1003
  112MOL   H11042512   0.768   2.771   7.227  1.1834  0.1418 -0.5344
  112MOL   H11142513   0.807   2.878   7.079 -3.5190  2.9625 -0.9501
  112MOL   H11242514   0.456   2.806   7.153  3.2344  0.9320  2.3253
  112MOL   H11342515   0.316   2.699   6.995 -0.3369  1.0908  0.2708
  112MOL   H11442516   0.204   2.627   6.793 -1.3645 -0.8715 -0.7571
  112MOL   H11542517   0.219   2.558   6.635  1.4999  1.0425 -0.5764
  112MOL   C11642518   0.271   2.759   6.652 -0.1339  0.8147 -0.5773
  112MOL   C11742519   0.130   2.822   6.646  0.0466  0.4444  0.1058
  112MOL   C11842520   0.115   2.955   6.680 -0.0490 -0.0725 -0.0028
  112MOL   C11942521   8.069   3.021   6.662  0.2042 -0.7069 -0.2998
  112MOL   C12042522   7.956   2.942   6.638 -0.0389 -0.1888  0.3972
  112MOL   C12142523   7.821   3.009   6.631 -0.1047  0.1014 -0.1344
  112MOL   C12242524   7.971   2.806   6.611  0.3540  0.1796 -0.2542
  112MOL   C12342525   0.021   2.743   6.609  0.1413  0.4121  0.0121
  112MOL   C12442526   0.349   2.775   6.521 -0.0553 -0.8407  0.3842
  112MOL   H12542527   0.337   2.812   6.721  1.7858 -0.9813 -0.9866
  112MOL   H12642528   0.205   3.011   6.700  0.1390 -0.5583  0.5318
  112MOL   H12742529   8.056   3.127   6.676  0.1575 -0.5828 -1.2571
  112MOL   H12842530   7.825   3.074   6.544 -0.5010  2.0633  1.2749
  112MOL   H12942531   7.744   2.937   6.603  0.1873  0.2179 -1.2681
  112MOL   H13042532   7.799   3.062   6.724 -0.0566 -1.2931  0.6837
  112MOL   H13142533   7.883   2.753   6.577  0.1186  0.2216  0.2784
  112MOL   H13242534   0.033   2.643   6.569 -1.7194  1.2457 -2.8395
  112MOL   H13342535   0.298   2.849   6.461 -0.1879  0.3708  1.9577
  112MOL   H13442536   0.346   2.678   6.471 -1.7716  0.4460 -2.1165
  112MOL   C13542537   0.492   2.842   6.540  0.6060  0.7757  0.0229
  112MOL   C13642538   0.467   2.980   6.602 -0.2960  0.4195  0.0071
  112MOL   C13742539   0.496   3.005   6.737  0.1445 -0.1745 -0.7412
  112MOL   C13842540   0.462   3.122   6.800  0.0331 -0.3847  0.4030
  112MOL   C13942541   0.405   3.226   6.726 -0.4340  0.4274  0.0192
  112MOL   C14042542   0.376   3.360   6.791  0.3587  0.2483  0.1117
  112MOL   C14142543   0.382   3.208   6.590 -0.3978  0.3551 -0.5239
  112MOL   C14242544   0.413   3.083   6.526 -0.2674 -0.4599  0.9954
  112MOL   C14342545   0.583   2.847   6.419 -0.0808  0.2274 -0.0240
  112MOL   H14442546   0.535   2.778   6.617  2.2325  0.1701 -1.3663
  112MOL   H14542547   0.531   2.924   6.800 -0.2969  0.9922  1.0476
  112MOL   H14642548   0.475   3.144   6.905  0.3459 -0.4690  0.3827
  112MOL   H14742549   0.471   3.404   6.821 -0.1211  1.0159  0.5071
  112MOL   H14842550   0.322   3.420   6.718  0.3874 -0.4515 -0.4990
  112MOL   H14942551   0.312   3.352   6.879  0.9779  1.1758  0.6534
  112MOL   H15042552   0.324   3.280   6.535 -0.1610 -0.2214 -1.5485
  112MOL   H15142553   0.385   3.059   6.425  0.3872 -3.6408  1.5114
  112MOL   H15242554   0.662   2.922   6.429 -1.6867  1.7315  1.6657
  112MOL   H15342555   0.525   2.874   6.331 -0.3923 -1.2678 -0.2934
  112MOL   C15442556   0.643   2.697   6.378 -0.3508  0.0267  0.1736
  112MOL   C15542557   0.734   2.635   6.480 -0.3346  0.1588  0.0712
  112MOL   C15642558   0.711   2.498   6.505  0.2719  0.3850 -0.0077
  112MOL   C15742559   0.798   2.431   6.593 -0.4361  0.1443 -0.3227
  112MOL   C15842560   0.911   2.502   6.642  0.0203  0.6987  0.2880
  112MOL   C15942561   0.997   2.434   6.742 -0.4320 -0.3457 -0.5666
  112MOL   C16042562   0.937   2.638   6.602  0.9625 -0.2072 -0.0561
  112MOL   C16142563   0.844   2.707   6.533  0.2393  0.1609  0.2333
  112MOL   C16242564   0.712   2.703   6.237 -0.1555  0.1093  0.0003
  112MOL   H16342565   0.550   2.641   6.373 -1.1171  1.3617 -0.9006
  112MOL   H16442566   0.628   2.448   6.457  1.0927  0.0308 -1.0538
  112MOL   H16542567   0.766   2.334   6.627  1.2889  0.3299  1.9814
  112MOL   H16642568   1.100   2.468   6.730  0.2719 -1.9247  0.6955
  112MOL   H16742569   0.960   2.453   6.843 -2.2150  1.1777 -1.4915
  112MOL   H16842570   0.995   2.326   6.724  1.7032 -0.1810 -1.9956
  112MOL   H16942571   1.022   2.685   6.650  1.0335  0.3304 -0.7132
  112MOL   H17042572   0.859   2.811   6.509 -0.7681 -0.0949 -1.6091
  112MOL   H17142573   0.754   2.605   6.216  2.1333  0.6726  1.7582
  112MOL   H17242574   0.795   2.773   6.246 -0.1741  0.3668 -1.6737
  112MOL   C17342575   0.627   2.746   6.117  0.5254 -0.2784  0.1750
  112MOL   C17442576   0.510   2.662   6.103  0.0444  0.2414  0.9117
  112MOL   C17542577   0.522   2.525   6.062  0.7032  0.2437  0.3419
  112MOL   C17642578   0.412   2.441   6.059 -0.4658 -0.7409  0.1671
  112MOL   C17742579   0.289   2.485   6.112 -0.2053 -0.6580 -0.4189
  112MOL   C17842580   0.174   2.393   6.129 -0.6603  0.1799 -0.6443
  112MOL   C17942581   0.278   2.625   6.145  0.7247 -0.1993  0.3359
  112MOL   C18042582   0.386   2.717   6.141  0.4894  0.3370  0.0563
  112MOL   C18142583   0.721   2.758   5.994 -0.7730 -0.3934  0.3826
  112MOL   H18242584   0.597   2.849   6.132  0.3515 -0.2001 -0.6996
  112MOL   H18342585   0.618   2.484   6.034  0.3990  0.9108 -1.7543
  112MOL   H18442586   0.424   2.336   6.036  2.7878 -0.3801 -0.0233
  112MOL   H18542587   0.179   2.347   6.227  1.7118 -0.7820 -1.1755
  112MOL   H18642588   0.090   2.463   6.122  0.0736  0.8890 -2.7763
  112MOL   H18742589   0.179   2.310   6.058  0.9711 -0.9022  0.7197
  112MOL   H18842590   0.184   2.666   6.181  0.1318 -1.7772  0.5956
  112MOL   H18942591   0.381   2.820   6.173 -3.1544 -0.1220  1.2158
  112MOL   H19042592   0.772   2.665   5.971 -0.5795 -0.2547  0.2382
  112MOL   H19142593   0.794   2.830   6.032 -2.0278  1.5717 -0.8051
  112MOL   C19242594   0.651   2.819   5.872 -0.5407  0.0798 -0.1961
  112MOL   C19342595   0.741   2.814   5.742  0.1744 -0.2715  0.4710
  112MOL   C19442596   0.884   2.823   5.748 -0.6791  0.4042  0.5778
  112MOL   C19542597   0.971   2.830   5.635 -0.0805  0.4286 -0.4276
  112MOL   C19642598   0.911   2.808   5.509  0.3958 -0.7544  0.6008
  112MOL   C19742599   0.990   2.794   5.377 -0.0857 -0.3947 -0.2199
  112MOL   C19842600   0.768   2.796   5.502 -0.3518 -0.6670 -0.5029
  112MOL   C19942601   0.687   2.802   5.615  0.2077  0.5600 -0.0094
  112MOL   C20042602   0.564   2.947   5.871 -0.9015  0.2914  1.0226
  112MOL   H20142603   0.574   2.745   5.851 -2.5463  1.8603  0.5437
  112MOL   H20242604   0.935   2.817   5.843  1.6561  1.5594 -0.5590
  112MOL   H20342605   1.078   2.841   5.640  0.0230 -0.5402 -0.4433
  112MOL   H20442606   1.065   2.872   5.362  0.0292 -0.3084  0.7824
  112MOL   H20542607   1.028   2.692   5.374  1.0534 -0.0361  1.7098
  112MOL   H20642608   0.915   2.811   5.299  0.1122  0.2665 -0.2684
  112MOL   H20742609   0.718   2.771   5.410 -1.4728 -0.1161 -0.0503
  112MOL   H20842610   0.579   2.796   5.620  0.3721 -1.5498  1.8275
  112MOL   H20942611   0.494   2.950   5.955 -1.2206  0.6884  0.7505
  112MOL   H21042612   0.497   2.935   5.785  1.7349 -1.5378 -0.8391
  112MOL   C21142613   0.645   3.083   5.870  0.3027  0.0846 -0.2302
  112MOL   C21242614   0.703   3.110   6.008 -1.0502  0.8253  0.3795
  112MOL   C21342615   0.843   3.121   6.032  0.0440  0.7545  0.5346
  112MOL   C21442616   0.895   3.141   6.165  0.1947  0.0730  0.2787
  112MOL   C21542617   0.813   3.142   6.271  0.0756  0.2577 -0.1099
  112MOL   C21642618   0.878   3.139   6.411 -0.0957 -0.4195 -0.4482
  112MOL   C21742619   0.679   3.130   6.256  0.9958  0.1132  0.2462
  112MOL   C21842620   0.621   3.125   6.121 -0.3955 -0.4137 -0.4441
  112MOL   C21942621   0.558   3.197   5.819  0.3112  0.0368  0.6495
  112MOL   H22042622   0.725   3.072   5.797 -1.0898  0.2877 -1.8282
  112MOL   H22142623   0.915   3.118   5.951 -0.2397  0.4763  0.2903
  112MOL   H22242624   0.996   3.171   6.186  0.6633 -1.8128  0.8186
  112MOL   H22342625   0.820   3.105   6.497 -0.4220 -0.3392 -0.6375
  112MOL   H22442626   0.964   3.074   6.399 -1.4026 -2.1256 -0.7857
  112MOL   H22542627   0.923   3.235   6.433 -0.8737 -0.1052 -0.2005
  112MOL   H22642628   0.614   3.124   6.342 -1.1511 -0.6592 -1.3866
  112MOL   H22742629   0.514   3.115   6.114 -0.5171  0.3398  0.2730
  112MOL   H22842630   0.471   3.201   5.883  0.6910  0.7685  1.1259
  112MOL   H22942631   0.523   3.183   5.716  0.0355  0.3984  0.6941
  112MOL   C23042632   0.630   3.335   5.825  0.7075 -0.1419  0.3216
  112MOL   C23142633   0.524   3.453   5.823 -0.7638  0.1160  0.3832
  112MOL   C23242634   0.487   3.511   5.946  0.0950  0.5869  0.6452
  112MOL   C23342635   0.401   3.617   5.937  0.0352  0.3285 -0.4477
  112MOL   C23442636   0.353   3.666   5.815 -0.2767  0.8419 -0.3817
  112MOL   C23542637   0.261   3.788   5.831  0.5909  0.0796 -0.9781
  112MOL   C23642638   0.380   3.605   5.694 -0.2338 -0.6548 -0.1530
  112MOL   C23742639   0.468   3.493   5.700  0.1067 -0.3059 -0.3359
  112MOL   C23842640   0.751   3.365   5.730  0.3794  0.2584  0.2146
  112MOL   H23942641   0.673   3.342   5.924  3.3050 -1.8805 -0.6264
  112MOL   H24042642   0.526   3.474   6.039  0.4485  2.1320  1.1170
  112MOL   H24142643   0.370   3.662   6.030 -1.1436  1.1553 -1.2299
  112MOL   H24242644   0.208   3.788   5.926  2.0740 -1.0943 -0.1327
  112MOL   H24342645   0.323   3.878   5.830 -1.6201  1.6492 -2.3889
  112MOL   H24442646   0.185   3.798   5.753  0.1590 -2.5297 -0.9383
  112MOL   H24542647   0.342   3.650   5.604 -1.0264 -1.5021 -0.2437
  112MOL   H24642648   0.503   3.446   5.610  0.2244 -0.4338 -0.2217
  112MOL   H24742649   0.724   3.346   5.626  2.9085 -3.9424  0.1952
  112MOL   H24842650   0.830   3.292   5.743  1.2797  1.2726  0.5638
  112MOL   C24942651   0.804   3.508   5.740  0.1361 -0.9596  0.6103
  112MOL   C25042652   0.872   3.535   5.611  0.1220 -0.2014 -0.4789
  112MOL   C25142653   0.814   3.620   5.515 -1.0039  0.6174 -0.5072
  112MOL   C25242654   0.872   3.620   5.384 -0.0969  0.5834 -0.4332
  112MOL   C25342655   0.991   3.552   5.359  0.5709  0.1645  0.0656
  112MOL   C25442656   1.057   3.540   5.225  0.0473 -0.0261 -0.3344
  112MOL   C25542657   1.057   3.482   5.463  0.2300  0.1403  0.3848
  112MOL   C25642658   0.993   3.471   5.585 -0.0556 -0.2783 -0.1666
  112MOL   C25742659   0.891   3.545   5.865 -0.2680  0.8429  0.2157
  112MOL   H25842660   0.716   3.572   5.744  0.4929 -0.4145 -0.2826
  112MOL   H25942661   0.721   3.671   5.535  0.2117  2.3958  0.8049
  112MOL   H26042662   0.823   3.674   5.305 -1.2727  0.9443  0.5270
  112MOL   H26142663   1.006   3.586   5.141 -0.1441 -1.3067 -0.9270
  112MOL   H26242664   1.156   3.585   5.220 -0.6420  1.8404  1.6739
  112MOL   H26342665   1.063   3.433   5.205  0.4265 -0.3453  1.3689
  112MOL   H26442666   1.144   3.420   5.447 -0.2585 -0.1542 -1.3088
  112MOL   H26542667   1.040   3.407   5.658 -1.5473 -0.0325  1.0323
  112MOL   H26642668   0.991   3.504   5.856  0.2646  1.9613  0.9579
  112MOL   H26742669   0.851   3.489   5.950 -0.3514  1.4836  0.6005
  112MOL   C26842670   0.909   3.699   5.893  0.0547  0.3683  0.9258
  112MOL   C26942671   1.032   3.725   5.977 -0.6723  0.7554  0.1266
  112MOL   C27042672   1.048   3.670   6.105  0.0711  0.4218 -0.6455
  112MOL   C27142673   1.162   3.691   6.185  0.2859  0.2374 -0.3948
  112MOL   C27242674   1.263   3.777   6.138 -0.4246  0.0505  0.3170
  112MOL   C27342675   1.382   3.803   6.226  0.2421  0.6008 -0.0756
  112MOL   C27442676   1.249   3.836   6.012  0.3814 -0.3508 -0.6654
  112MOL   C27542677   1.136   3.809   5.932  0.2763 -0.5776  0.3622
  112MOL   C27642678   0.776   3.770   5.945 -0.0317  0.6500  0.4248
  112MOL   H27742679   0.929   3.734   5.792  0.3992 -0.2009  0.7920
  112MOL   H27842680   0.965   3.613   6.145  0.6199 -0.8576 -1.3005
  112MOL   H27942681   1.172   3.628   6.272 -3.0572  0.1492 -0.0272
  112MOL   H28042682   1.459   3.846   6.162  0.4216 -2.6865 -2.1952
  112MOL   H28142683   1.363   3.881   6.300 -0.1144  0.3291  0.1207
  112MOL   H28242684   1.427   3.716   6.274  0.9237  2.0188  1.9095
  112MOL   H28342685   1.314   3.917   5.985 -1.7035  1.8211  0.6168
  112MOL   H28442686   1.133   3.855   5.834 -0.5075 -0.7925  0.2834
  112MOL   H28542687   0.735   3.700   6.017  2.7054 -2.8614 -1.3063
  112MOL   H28642688   0.703   3.767   5.864  0.5908  0.5138 -0.1305
  112MOL   C28742689   0.799   3.917   5.989 -0.1503 -0.1083  0.4272
  112MOL   C28842690   0.689   3.974   6.078 -0.5416  0.4987 -0.4548
  112MOL   C28942691   0.716   4.087   6.162  0.7595  0.7599  0.3794
  112MOL   C29042692   0.615   4.147   6.235  0.2050  0.1910  0.0759
  112MOL   C29142693   0.479   4.111   6.209  0.0398  0.5309 -0.1757
  112MOL   C29242694   0.367   4.196   6.264 -0.0678  0.2168  0.8644
  112MOL   C29342695   0.455   3.988   6.145  0.7274 -0.4476  0.6314
  112MOL   C29442696   0.558   3.923   6.079 -0.5055  0.2802 -0.2792
  112MOL   C29542697   0.813   4.003   5.854  0.1991  0.3544 -0.0979
  112MOL   H29642698   0.889   3.928   6.049  0.6898 -0.9626 -0.6570
  112MOL   H29742699   0.815   4.130   6.160  1.0422  0.0672 -1.4767
  112MOL   H29842700   0.635   4.229   6.301  1.5326 -0.1762  0.1323
  112MOL   H29942701   0.303   4.229   6.182  0.3802 -2.7333 -0.7531
  112MOL   H30042702   0.304   4.127   6.321 -2.2894  1.4991  0.0384
  112MOL   H30142703   0.401   4.276   6.330 -2.8930  1.3180  1.0462
  112MOL   H30242704   0.354   3.953   6.133  1.0323 -0.4503 -2.3004
  112MOL   H30342705   0.548   3.833   6.019 -0.7472  0.9275 -1.2141
  112MOL   H30442706   0.889   3.963   5.787 -1.2143 -0.5885 -1.1711
  112MOL   H30542707   0.848   4.103   5.879  0.3657  0.1102  0.6766
  112MOL   C30642708   0.687   4.027   5.769 -0.1032  0.2532  0.1734
  112MOL   C30742709   0.727   4.016   5.626  0.1629  0.2380  0.5474
  112MOL   C30842710   0.662   3.917   5.545 -0.0299 -0.3917 -0.2252
  112MOL   C30942711   0.686   3.913   5.406  0.2796  1.0650  0.3070
  112MOL   C31042712   0.763   4.013   5.340  0.2902 -0.0748 -0.0163
  112MOL   C31142713   0.780   4.010   5.194  0.2180 -0.0254 -0.3553
  112MOL   C31242714   0.822   4.106   5.423  0.4272  0.4310  0.2154
  112MOL   C31342715   0.812   4.109   5.563  0.2932  0.5276 -0.2344
  112MOL   C31442716   0.618   4.163   5.800 -0.1333 -0.4687 -0.5674
  112MOL   H31542717   0.616   3.947   5.794  1.8710 -1.4841  0.3732
  112MOL   H31642718   0.588   3.848   5.581 -0.1513 -0.6904 -1.0388
  112MOL   H31742719   0.642   3.837   5.343  2.2455 -0.8274  1.1712
  112MOL   H31842720   0.805   4.109   5.156 -1.8383  0.1285 -1.3660
  112MOL   H31942721   0.855   3.938   5.161 -1.7620 -1.5284 -1.6880
  112MOL   H32042722   0.688   3.973   5.151 -0.2471  1.4476 -0.6681
  112MOL   H32142723   0.879   4.181   5.369 -1.3821  1.2541 -0.5716
  112MOL   H32242724   0.871   4.168   5.631  0.3547 -1.8370  1.8371
  112MOL   H32342725   0.708   4.225   5.793 -0.5331 -0.0501 -2.3769
  112MOL   H32442726   0.577   4.165   5.900  1.5385  2.0471  0.1137
  112MOL   C32542727   0.520   4.219   5.693 -0.8267 -0.6157  0.0884
  112MOL   C32642728   0.483   4.363   5.739  0.4271 -0.6555  0.8547
  112MOL   C32742729   0.534   4.474   5.665  0.3736  0.4259 -0.3049
  112MOL   C32842730   0.534   4.605   5.723 -0.7874  0.4436  1.0772
  112MOL   C32942731   0.468   4.621   5.844  0.4916  0.0278  0.1949
  112MOL   C33042732   0.457   4.762   5.896  0.4694  0.3490  0.6500
  112MOL   C33142733   0.423   4.513   5.918 -0.2494 -0.8886 -0.4502
  112MOL   C33242734   0.421   4.383   5.864  0.7185 -0.5153 -0.1986
  112MOL   C33342735   0.391   4.131   5.683 -0.1624 -0.3748  0.8794
  112MOL   H33442736   0.569   4.225   5.597 -0.0108  1.6528  0.6289
  112MOL   H33542737   0.579   4.452   5.569  1.5225  0.1830  0.2861
  112MOL   H33642738   0.586   4.686   5.675 -2.4460 -0.0570 -1.6317
  112MOL   H33742739   0.360   4.806   5.875  0.0979  0.1339  1.9241
  112MOL   H33842740   0.473   4.767   6.003 -0.5598 -2.9156  1.0270
  112MOL   H33942741   0.532   4.826   5.850  0.5661 -0.5041 -0.3966
  112MOL   H34042742   0.385   4.528   6.018  0.2307  1.4896 -0.6014
  112MOL   H34142743   0.395   4.298   5.926 -0.2600 -1.1758 -1.4996
  112MOL   H34242744   0.347   4.135   5.783 -0.1749  1.3448  0.8252
  112MOL   H34342745   0.424   4.030   5.658 -0.5140 -0.7013  1.6881
  112MOL   C34442746   0.281   4.177   5.585 -0.0146 -0.6245 -0.8656
  112MOL   C34542747   0.164   4.217   5.665 -0.1079 -0.9692 -0.2340
  112MOL   C34642748   0.153   4.344   5.721  0.0166 -0.1708  0.2290
  112MOL   C34742749   0.035   4.389   5.791 -0.1330 -0.1764 -0.3134
  112MOL   C34842750   8.012   4.295   5.819 -0.0253  0.5766 -0.4281
  112MOL   C34942751   7.885   4.334   5.906 -0.2357 -0.1962  0.0057
  112MOL   C35042752   8.019   4.166   5.765  0.2071 -0.1196 -0.5420
  112MOL   C35142753   0.053   4.129   5.685 -0.6536 -0.5850 -0.0384
  112MOL   C35242754   0.246   4.085   5.470  0.1552  0.2111 -0.5005
  112MOL   H35342755   0.315   4.269   5.537  1.6087 -0.2502  0.9398
  112MOL   H35442756   0.228   4.415   5.687 -0.1775 -0.5272 -0.9780
  112MOL   H35542757   0.027   4.490   5.827 -0.4154 -0.2117 -0.2815
  112MOL   H35642758   7.870   4.245   5.968 -0.6453 -1.9898 -2.5487
  112MOL   H35742759   7.898   4.419   5.972 -2.2464  1.1346 -1.2750
  112MOL   H35842760   7.805   4.359   5.837 -0.0748 -2.0119 -0.8907
  112MOL   H35942761   7.945   4.092   5.792 -0.4251 -0.0397 -2.0129
  112MOL   H36042762   0.042   4.030   5.643 -1.5415  0.2385 -1.7892
  112MOL   H36142763   0.145   4.110   5.438  0.0757  1.2320  0.5105
  112MOL   H36242764   0.241   3.985   5.513 -0.5449  0.2899 -0.3973
  112MOL   C36342765   0.356   4.067   5.354 -0.1031  0.0622  0.2071
  112MOL   C36442766   0.390   4.197   5.284  0.0811  0.9418 -0.0760
  112MOL   C36542767   0.295   4.267   5.209 -0.0331  0.3829  0.0324
  112MOL   C36642768   0.326   4.389   5.146  0.7073 -0.0228 -0.0200
  112MOL   C36742769   0.453   4.450   5.157  0.0848  0.1683  0.8029
  112MOL   C36842770   0.476   4.586   5.098  0.1682 -0.2311 -0.7571
  112MOL   C36942771   0.543   4.385   5.244 -0.1643 -0.5194 -0.3902
  112MOL   C37042772   0.516   4.261   5.304  0.1562  0.2431  0.1412
  112MOL   C37142773   0.331   3.943   5.255  0.2123 -0.3531 -0.3524
  112MOL   H37242774   0.452   4.057   5.406 -1.0643  2.0665  2.4492
  112MOL   H37342775   0.200   4.218   5.197  0.2994  0.1576 -1.8675
  112MOL   H37442776   0.250   4.426   5.078  0.8772 -2.5716 -1.6724
  112MOL   H37542777   0.578   4.601   5.062  1.2536 -1.8409  1.4713
  112MOL   H37642778   0.414   4.600   5.010  0.4990 -0.4745 -1.0301
  112MOL   H37742779   0.440   4.659   5.171  1.3667 -1.7671  1.4416
  112MOL   H37842780   0.638   4.431   5.270  0.8156 -3.2786  1.2059
  112MOL   H37942781   0.587   4.202   5.360 -0.2491 -0.6420 -0.2617
  112MOL   H38042782   0.316   3.843   5.297  1.2532  0.4412  1.9861
  112MOL   H38142783   0.408   3.930   5.179  1.0021  0.0518  0.3807
  112MOL   H38242784   0.249   3.958   5.184 -0.0681  0.8198  0.2001
  113MOL     C142785   0.166   6.256   3.696  1.2010  0.1149 -0.0115
  113MOL     C242786   0.133   6.209   3.842 -0.2055  0.3140 -0.5599
  113MOL     C342787   0.196   6.270   3.951 -0.9604 -0.2293 -0.2785
  113MOL     C442788   0.175   6.223   4.080  0.2221  0.4601  0.1110
  113MOL     C542789   0.097   6.109   4.103 -1.2188 -0.2028 -0.3069
  113MOL     C642790   0.068   6.054   4.247 -0.5546  0.0825  0.2542
  113MOL     C742791   0.033   6.050   3.999  0.1403 -0.6074 -0.1015
  113MOL     C842792   0.046   6.101   3.866 -0.8585 -0.1427  0.0892
  113MOL     C942793   0.085   6.385   3.678  0.0479  0.0639  0.0134
  113MOL    H1042794   0.271   6.285   3.689  1.1354  0.4527  0.4013
  113MOL    H1142795   0.265   6.353   3.945 -0.4472 -0.6291  0.0850
  113MOL    H1242796   0.215   6.278   4.164  1.8360 -0.2781 -0.1558
  113MOL    H1342797   8.057   6.103   4.279 -0.3688  2.9765 -3.3151
  113MOL    H1442798   0.047   5.947   4.240  0.9605 -0.3829  2.1989
  113MOL    H1542799   0.144   6.076   4.322  0.4172 -1.0582 -0.3776
  113MOL    H1642800   8.050   5.964   4.013 -1.2198  0.4672  0.4553
  113MOL    H1742801   8.076   6.054   3.783 -0.4183  0.7868 -0.7035
  113MOL    H1842802   0.123   6.458   3.749 -1.4093  0.3669  0.5046
  113MOL    H1942803   8.063   6.355   3.703 -1.0350  1.3525 -2.6265
  113MOL    H2042804   0.146   6.178   3.622  2.9754 -0.0080 -0.3780
  113MOL    C2142805   0.082   6.448   3.534 -0.3272 -0.6545 -0.2764
  113MOL    C2242806   8.079   6.576   3.536  0.1050  1.2455  0.2685
  113MOL    C2342807   0.047   6.697   3.484  0.9854 -0.5773  0.5408
  113MOL    C2442808   8.051   6.815   3.474  0.0836 -0.1950 -0.4182
  113MOL    C2542809   7.916   6.809   3.509 -0.2939 -0.4848  0.5775
  113MOL    C2642810   7.830   6.928   3.508 -0.6949 -0.2602 -0.1050
  113MOL    C2742811   7.862   6.690   3.561 -0.0751 -0.1173  0.8135
  113MOL    C2842812   7.943   6.574   3.567 -0.1061 -0.6451  0.3542
  113MOL    C2942813   0.029   6.364   3.416 -0.6714  0.6602 -0.2764
  113MOL    H3042814   0.182   6.477   3.501 -0.9223  0.6159 -1.0182
  113MOL    H3142815   0.146   6.707   3.441  0.4362 -0.0406 -0.6364
  113MOL    H3242816   0.022   6.907   3.448  1.8911 -0.9645  0.3011
  113MOL    H3342817   7.725   6.904   3.493 -0.3365 -0.9033 -1.6823
  113MOL    H3442818   7.849   6.990   3.596  1.1010 -0.0663 -0.6212
  113MOL    H3542819   7.869   6.995   3.432 -1.6843  2.9239  2.1184
  113MOL    H3642820   7.756   6.696   3.584 -0.0768  0.2780  0.7164
  113MOL    H3742821   7.903   6.482   3.606 -0.2857 -0.6459  0.1735
  113MOL    H3842822   8.075   6.443   3.348  2.9561  1.0787 -1.7568
  113MOL    H3942823   8.029   6.300   3.451  0.7788 -1.9487 -1.6079
  113MOL    C4042824   0.126   6.274   3.329 -0.5415  0.0499  0.6386
  113MOL    C4142825   0.243   6.356   3.289  0.4658 -0.1222 -0.5864
  113MOL    C4242826   0.238   6.461   3.192  0.2796  0.4599 -0.3940
  113MOL    C4342827   0.346   6.547   3.165  0.7456  0.4020  0.2545
  113MOL    C4442828   0.472   6.521   3.223 -0.2604  0.1392 -0.8844
  113MOL    C4542829   0.597   6.600   3.191 -0.0597  0.8362  0.5007
  113MOL    C4642830   0.481   6.415   3.313 -0.1075 -0.3619  0.2554
  113MOL    C4742831   0.372   6.334   3.347  0.1508 -0.4775  0.0768
  113MOL    C4842832   0.047   6.224   3.203  0.4958  0.2756 -0.4343
  113MOL    H4942833   0.163   6.186   3.382  2.2423  0.7636 -0.0101
  113MOL    H5042834   0.142   6.471   3.143 -0.0511 -3.0769 -0.6235
  113MOL    H5142835   0.340   6.626   3.092  1.0537  1.1106  0.9873
  113MOL    H5242836   0.652   6.555   3.109 -0.5704 -0.9123  1.0847
  113MOL    H5342837   0.571   6.702   3.164 -2.7734 -0.3192 -1.4967
  113MOL    H5442838   0.656   6.589   3.282 -1.7441 -2.0044  1.3100
  113MOL    H5542839   0.574   6.381   3.357 -0.5377 -0.4337  1.1212
  113MOL    H5642840   0.398   6.257   3.418  3.4373  0.0254 -0.5407
  113MOL    H5742841   0.121   6.189   3.131  0.2947 -0.7876 -0.1311
  113MOL    H5842842   0.001   6.309   3.154  2.3158 -0.0914 -2.8531
  113MOL    C5942843   8.026   6.111   3.239  0.0841  0.2014 -0.4094
  113MOL    C6042844   0.007   5.994   3.309 -1.0841 -0.1188 -0.1470
  113MOL    C6142845   0.117   5.924   3.250 -1.3251  0.5851 -0.1109
  113MOL    C6242846   0.169   5.810   3.314 -0.0703  0.3351 -0.8018
  113MOL    C6342847   0.139   5.778   3.443 -0.8817  0.2227 -0.1332
  113MOL    C6442848   0.209   5.666   3.516  0.4394 -0.0068  0.3419
  113MOL    C6542849   0.031   5.848   3.500 -0.6139  1.1645 -0.5546
  113MOL    C6642850   8.048   5.958   3.437  0.2818  0.6778  0.2903
  113MOL    C6742851   7.945   6.074   3.113 -0.3288 -0.2131  0.7063
  113MOL    H6842852   7.952   6.151   3.309  1.6564 -1.6278  2.3961
  113MOL    H6942853   0.159   5.945   3.153 -0.3172 -1.4023 -0.1570
  113MOL    H7042854   0.242   5.756   3.255  1.2058  0.8236  0.2911
  113MOL    H7142855   0.243   5.685   3.617  0.7610 -1.2038  0.4642
  113MOL    H7242856   0.139   5.583   3.525  0.3103  0.1279  0.5625
  113MOL    H7342857   0.291   5.624   3.458 -0.5461  0.5933 -1.5333
  113MOL    H7442858   8.076   5.829   3.601  1.1004 -0.4799 -0.2351
  113MOL    H7542859   7.967   6.008   3.487  0.2856 -0.8474  1.8779
  113MOL    H7642860   7.996   5.992   3.062 -1.9541 -2.2752  2.2758
  113MOL    H7742861   7.947   6.154   3.039 -0.6164 -2.2673 -1.5894
  113MOL    C7842862   7.796   6.034   3.143  0.0249  0.0351 -0.2040
  113MOL    C7942863   7.750   5.906   3.079 -0.3690  0.2731 -1.3851
  113MOL    C8042864   7.694   5.894   2.954 -0.4048  0.0699 -0.2058
  113MOL    C8142865   7.650   5.770   2.904 -0.3986  0.5653 -0.4259
  113MOL    C8242866   7.662   5.654   2.982  0.3542 -0.0939 -0.5263
  113MOL    C8342867   7.639   5.510   2.929  0.2775  0.1457 -0.3665
  113MOL    C8442868   7.703   5.664   3.115 -0.5128  0.2776  0.3902
  113MOL    C8542869   7.743   5.791   3.160  0.3675 -0.5588 -0.1300
  113MOL    C8642870   7.707   6.154   3.096 -0.2049  0.0821  0.2979
  113MOL    H8742871   7.770   6.021   3.248  0.0077  0.8563 -0.1020
  113MOL    H8842872   7.675   5.970   2.880 -1.8134  2.0736  2.1483
  113MOL    H8942873   7.633   5.755   2.799 -1.4278 -0.7144 -0.0896
  113MOL    H9042874   7.651   5.510   2.821 -0.0190 -0.0527 -0.3998
  113MOL    H9142875   7.709   5.440   2.975  1.3086  1.4285  0.0284
  113MOL    H9242876   7.543   5.463   2.952 -0.4781  1.2726 -1.1942
  113MOL    H9342877   7.711   5.573   3.173  1.2580  0.6795  0.8234
  113MOL    H9442878   7.781   5.795   3.261 -0.7631 -2.4133  0.3848
  113MOL    H9542879   7.605   6.118   3.090 -0.1545 -0.3460  1.8321
  113MOL    H9642880   7.735   6.191   2.997 -1.6563  1.5437  0.4231
  113MOL    C9742881   7.694   6.268   3.200 -0.0716  0.3695 -0.3411
  113MOL    C9842882   7.650   6.221   3.342  0.1277  0.1644  0.7984
  113MOL    C9942883   7.531   6.140   3.358  0.0474 -0.1096 -0.7904
  113MOL   C10042884   7.492   6.104   3.490  0.1317  0.0657  0.1742
  113MOL   C10142885   7.577   6.124   3.601  0.2223 -0.0999  0.1256
  113MOL   C10242886   7.553   6.053   3.735 -0.7129  0.6078  0.2333
  113MOL   C10342887   7.690   6.203   3.587 -0.5268  0.5453  0.5186
  113MOL   C10442888   7.725   6.253   3.459  0.0681 -0.4829  0.0359
  113MOL   C10542889   7.582   6.370   3.143  0.2739  0.1377 -1.0829
  113MOL   H10642890   7.790   6.315   3.222 -0.6055  1.4611 -0.3210
  113MOL   H10742891   7.464   6.121   3.275 -1.6522  1.8689  0.0687
  113MOL   H10842892   7.409   6.035   3.502 -0.5759  0.7642 -0.6248
  113MOL   H10942893   7.478   5.974   3.721 -0.4699  0.4848 -0.3910
  113MOL   H11042894   7.643   6.009   3.778  1.6999  1.9024 -3.2702
  113MOL   H11142895   7.518   6.117   3.816 -0.0263  0.1339  0.9052
  113MOL   H11242896   7.757   6.221   3.669  1.9329 -2.2568 -0.7889
  113MOL   H11342897   7.812   6.315   3.446 -0.6014  0.8610  1.8268
  113MOL   H11442898   7.559   6.450   3.214 -1.5637 -0.7633 -0.6161
  113MOL   H11542899   7.481   6.329   3.141  0.4087 -0.3157  0.6614
  113MOL   C11642900   7.616   6.431   3.007 -0.2006 -0.3713  1.3327
  113MOL   C11742901   7.760   6.479   2.990  0.0068 -0.3397 -0.1693
  113MOL   C11842902   7.816   6.563   3.081 -0.0061 -0.0993  0.0797
  113MOL   C11942903   7.949   6.617   3.055 -0.7981  0.2753 -1.1564
  113MOL   C12042904   8.016   6.591   2.937  0.4097  0.7259  0.4563
  113MOL   C12142905   0.075   6.648   2.919  0.0915 -0.0232  0.0777
  113MOL   C12242906   7.954   6.503   2.847 -0.5725  0.2195  0.5349
  113MOL   C12342907   7.828   6.450   2.870  0.4243  0.7098 -0.2455
  113MOL   C12442908   7.522   6.548   2.971 -0.3979 -0.6581 -0.3313
  113MOL   H12542909   7.591   6.364   2.925  0.3598  0.2059  0.6777
  113MOL   H12642910   7.760   6.589   3.170 -1.1277  0.7115 -0.8401
  113MOL   H12742911   7.993   6.688   3.124 -0.6045  0.3426 -1.3469
  113MOL   H12842912   0.084   6.729   2.847 -0.0350  0.1458  0.2537
  113MOL   H12942913   0.094   6.708   3.008  0.1992  0.7130 -0.4347
  113MOL   H13042914   0.158   6.576   2.917 -0.2733 -0.4025 -1.9160
  113MOL   H13142915   8.016   6.489   2.759  1.9454 -3.5817  2.8069
  113MOL   H13242916   7.785   6.384   2.797  1.2635 -0.4672  0.3161
  113MOL   H13342917   7.550   6.622   3.046 -1.9277  0.1264 -0.5015
  113MOL   H13442918   7.418   6.521   2.992 -0.3744 -0.1095  0.5429
  113MOL   C13542919   7.526   6.612   2.828  0.9193 -0.0321  0.8094
  113MOL   C13642920   7.543   6.760   2.824  0.6102 -0.6518  0.0898
  113MOL   C13742921   7.440   6.851   2.789 -0.6651 -0.0232  0.4514
  113MOL   C13842922   7.470   6.988   2.780  0.3120  0.2407  0.0019
  113MOL   C13942923   7.597   7.035   2.817 -0.4534 -0.3259 -0.0938
  113MOL   C14042924   7.633   7.182   2.807  0.5289  0.2097  0.0346
  113MOL   C14142925   7.704   6.943   2.851 -0.3154 -0.7803  0.4072
  113MOL   C14242926   7.667   6.807   2.860  0.4521 -0.6983  0.3295
  113MOL   C14342927   7.412   6.567   2.726  0.2744  0.5554  0.3548
  113MOL   H14442928   7.614   6.573   2.778 -1.8490 -2.3835 -2.4634
  113MOL   H14542929   7.340   6.818   2.766 -0.1102 -1.2869 -0.1576
  113MOL   H14642930   7.390   7.059   2.762  0.9725  0.8769 -0.4389
  113MOL   H14742931   7.546   7.234   2.846  0.2507 -1.5047  1.7737
  113MOL   H14842932   7.721   7.212   2.863 -0.4441  4.8995 -0.7277
  113MOL   H14942933   7.634   7.210   2.701 -1.3714  3.9532  0.9351
  113MOL   H15042934   7.798   6.987   2.882 -0.6608 -0.1219  0.5364
  113MOL   H15142935   7.745   6.736   2.885  1.4215  0.2874  0.1784
  113MOL   H15242936   7.320   6.601   2.774 -1.0506 -0.6557 -1.2464
  113MOL   H15342937   7.404   6.460   2.748  1.6047  0.7420  1.8532
  113MOL   C15442938   7.407   6.601   2.573 -0.3687 -0.4378  0.2652
  113MOL   C15542939   7.274   6.567   2.506  0.4011 -0.0207  0.7569
  113MOL   C15642940   7.234   6.640   2.392  0.5051 -0.5282 -0.9142
  113MOL   C15742941   7.114   6.622   2.325 -0.0226  0.0582 -0.0443
  113MOL   C15842942   7.022   6.523   2.378  0.4226 -0.4230 -0.0571
  113MOL   C15942943   6.894   6.503   2.298 -0.5163  0.2281 -0.4859
  113MOL   C16042944   7.057   6.448   2.490 -0.2478  0.1719  1.1369
  113MOL   C16142945   7.179   6.478   2.558  0.1485 -0.2489  0.2057
  113MOL   C16242946   7.530   6.542   2.491 -0.6540  0.1211 -0.1641
  113MOL   H16342947   7.419   6.709   2.572 -1.1660 -0.3162  1.7788
  113MOL   H16442948   7.307   6.712   2.361  2.4427 -2.1773 -0.3295
  113MOL   H16542949   7.088   6.671   2.233  0.2855  0.5813  0.1490
  113MOL   H16642950   6.886   6.564   2.209  1.4586  3.2088  1.2849
  113MOL   H16742951   6.886   6.401   2.262 -2.9861  0.7765 -1.5695
  113MOL   H16842952   6.806   6.534   2.354 -1.7983 -1.5058 -1.5009
  113MOL   H16942953   6.992   6.381   2.544  0.8617 -0.3340  1.8656
  113MOL   H17042954   7.202   6.430   2.652  1.1815  0.3935  0.2886
  113MOL   H17142955   7.622   6.553   2.549 -1.2517 -0.2891  0.8612
  113MOL   H17242956   7.549   6.613   2.410 -0.9073  0.3030 -0.0654
  113MOL   C17342957   7.503   6.403   2.422  0.1135  0.4351  0.1574
  113MOL   C17442958   7.475   6.292   2.515  0.3739  0.2800  0.1181
  113MOL   C17542959   7.358   6.223   2.491  0.3673  0.0924  1.2346
  113MOL   C17642960   7.327   6.116   2.580  0.5971  0.6002 -0.7590
  113MOL   C17742961   7.421   6.082   2.677  0.4312 -0.0710  0.0568
  113MOL   C17842962   7.387   5.954   2.753  0.4813 -0.0311 -0.2229
  113MOL   C17942963   7.540   6.155   2.699  0.0489 -0.3724 -0.6417
  113MOL   C18042964   7.572   6.256   2.610 -0.3731  0.6171 -0.1368
  113MOL   C18142965   7.620   6.375   2.325 -0.2104 -0.1009 -0.3772
  113MOL   H18242966   7.416   6.414   2.357 -0.2515 -1.5100  0.3087
  113MOL   H18342967   7.293   6.253   2.410  1.1174  1.4904  1.1237
  113MOL   H18442968   7.235   6.060   2.568  1.1214 -0.0569 -1.8420
  113MOL   H18542969   7.282   5.925   2.750  0.4350  0.2227 -1.0572
  113MOL   H18642970   7.441   5.875   2.700  0.1850  1.1301 -2.2909
  113MOL   H18742971   7.419   5.956   2.857  0.0834 -0.5116 -0.0877
  113MOL   H18842972   7.598   6.119   2.783 -0.8240 -0.6764 -0.1711
  113MOL   H18942973   7.665   6.306   2.632 -1.1197  1.5597  0.9496
  113MOL   H19042974   7.655   6.274   2.345 -4.1003 -2.0934 -3.0778
  113MOL   H19142975   7.698   6.445   2.355  0.2208 -0.5420 -0.4762
  113MOL   C19242976   7.596   6.367   2.171 -0.1109  0.5874 -0.3542
  113MOL   C19342977   7.538   6.231   2.129 -0.6414 -0.2002  0.7136
  113MOL   C19442978   7.615   6.119   2.103  0.1432 -0.2810  0.3355
  113MOL   C19542979   7.547   6.002   2.065  0.3083  0.3344  0.0149
  113MOL   C19642980   7.402   5.985   2.065  0.5367  0.4946  0.4870
  113MOL   C19742981   7.333   5.854   2.032  0.4543 -0.9589 -0.1112
  113MOL   C19842982   7.331   6.096   2.105  0.1931 -0.0065 -0.0234
  113MOL   C19942983   7.393   6.224   2.122  0.4284  0.7970 -0.7966
  113MOL   C20042984   7.705   6.422   2.081  0.7577 -0.5694 -0.2474
  113MOL   H20142985   7.513   6.434   2.147  0.1258  0.8697 -0.3861
  113MOL   H20242986   7.723   6.126   2.095  0.1939 -0.0284  1.1834
  113MOL   H20342987   7.615   5.921   2.041 -1.8166 -1.2006 -1.0001
  113MOL   H20442988   7.341   5.823   1.927 -1.8516 -1.1294 -0.2531
  113MOL   H20542989   7.384   5.787   2.101  0.9741 -1.1594 -0.6793
  113MOL   H20642990   7.227   5.848   2.056 -0.2398 -1.0476 -2.9626
  113MOL   H20742991   7.225   6.079   2.096  0.5254 -0.8162 -2.8179
  113MOL   H20842992   7.329   6.306   2.150  1.1732  1.0754  0.0890
  113MOL   H20942993   7.658   6.421   1.983  1.3614 -3.8299 -0.5635
  113MOL   H21042994   7.788   6.352   2.074  0.6228 -0.6736 -0.8141
  113MOL   C21142995   7.757   6.559   2.123 -0.4283 -0.2287 -0.6195
  113MOL   C21242996   7.652   6.671   2.129  0.3074  0.2244  0.9333
  113MOL   C21342997   7.540   6.673   2.039 -0.2820 -0.3715  0.0532
  113MOL   C21442998   7.443   6.780   2.047 -0.8429  0.0245 -0.0222
  113MOL   C21542999   7.460   6.877   2.147 -0.1182  0.0019  0.3165
  113MOL   C21643000   7.356   6.981   2.158  0.4259 -0.1030  0.2179
  113MOL   C21743001   7.576   6.886   2.224 -0.6320 -0.4373  0.8615
  113MOL   C21843002   7.663   6.781   2.219  0.4265 -0.2896  0.5454
  113MOL   C21943003   7.874   6.599   2.016 -0.5368  0.5298 -0.0517
  113MOL   H22043004   7.795   6.554   2.225  0.9364 -3.7861 -1.2048
  113MOL   H22143005   7.521   6.598   1.963 -1.0290 -0.1989  0.0679
  113MOL   H22243006   7.356   6.767   1.984 -2.8739 -2.7367  3.1618
  113MOL   H22343007   7.318   7.005   2.058  1.3360 -0.4559 -0.2204
  113MOL   H22443008   7.270   6.950   2.216 -0.5330 -1.7522 -1.9934
  113MOL   H22543009   7.393   7.075   2.199 -2.0859  0.0612  2.1980
  113MOL   H22643010   7.599   6.965   2.295  0.8234 -0.0532 -0.0288
  113MOL   H22743011   7.749   6.784   2.286  0.2922 -0.4390  0.7235
  113MOL   H22843012   7.879   6.706   1.997  3.0573 -0.0272 -2.7541
  113MOL   H22943013   7.856   6.558   1.916  2.7866 -1.8057  0.2415
  113MOL   C23043014   8.011   6.558   2.060 -0.0287 -0.2092 -0.4355
  113MOL   C23143015   8.047   6.641   2.195 -0.3186 -1.1039 -0.1455
  113MOL   C23243016   8.033   6.583   2.321  0.1352 -0.1074  0.6789
  113MOL   C23343017   8.061   6.649   2.436  0.0362  0.2355  0.5194
  113MOL   C23443018   0.041   6.776   2.426 -0.3626  0.5172  0.3549
  113MOL   C23543019   0.099   6.853   2.542  0.0552  0.5952  0.1637
  113MOL   C23643020   0.048   6.844   2.301 -0.1576 -0.4080  0.9097
  113MOL   C23743021   0.011   6.771   2.188  0.2369  0.4462  0.4975
  113MOL   C23843022   0.038   6.570   1.957  0.5206  0.0493  0.2944
  113MOL   H23943023   8.005   6.456   2.097 -1.8804  0.1606  0.3679
  113MOL   H24043024   8.005   6.479   2.333  0.2726 -0.3099 -0.6244
  113MOL   H24143025   8.046   6.595   2.529 -0.3557 -0.9835 -0.2392
  113MOL   H24243026   0.086   6.961   2.541 -0.4422  0.5435  0.5097
  113MOL   H24343027   0.043   6.823   2.631 -0.1209  0.3163 -0.0392
  113MOL   H24443028   0.203   6.820   2.543 -0.5402 -1.3881 -0.8308
  113MOL   H24543029   0.080   6.946   2.289 -0.7918 -0.2808  0.2570
  113MOL   H24643030   0.017   6.820   2.092 -0.7166  1.9821  1.2115
  113MOL   H24743031   0.135   6.543   1.999  1.9161  1.7945 -1.7103
  113MOL   H24843032   0.059   6.676   1.942 -2.0265  1.0915  3.6042
  113MOL   C24943033   0.037   6.490   1.831 -0.0056 -0.6584 -0.3774
  113MOL   C25043034   8.070   6.349   1.862  0.2647  0.4354 -0.3471
  113MOL   C25143035   0.063   6.265   1.949 -0.5967  0.0235 -0.1956
  113MOL   C25243036   0.017   6.134   1.974 -0.3976 -0.4841  0.1361
  113MOL   C25343037   7.988   6.080   1.910  0.3140  0.0401 -0.7012
  113MOL   C25443038   7.959   5.930   1.921 -0.5104 -0.4827  0.4113
  113MOL   C25543039   7.914   6.159   1.817  0.2799  0.0363 -0.1190
  113MOL   C25643040   7.956   6.295   1.793 -0.1725 -0.4688 -0.0937
  113MOL   C25743041   0.158   6.500   1.735  0.4370  0.0304  0.3682
  113MOL   H25843042   8.034   6.537   1.779 -0.5260  1.7869  2.4962
  113MOL   H25943043   0.154   6.310   1.986 -0.2043 -1.1534  0.2955
  113MOL   H26043044   0.091   6.082   2.033  0.4431 -0.8883 -1.2294
  113MOL   H26143045   7.865   5.926   1.976 -0.9757  0.4796 -0.3114
  113MOL   H26243046   7.946   5.882   1.825  2.3501  2.1760 -1.3971
  113MOL   H26343047   8.038   5.878   1.976  0.6215 -1.2663 -1.9044
  113MOL   H26443048   7.845   6.110   1.750 -1.1928 -1.4430  2.4015
  113MOL   H26543049   7.905   6.358   1.722  0.3946  0.8797  0.6798
  113MOL   H26643050   0.145   6.429   1.653 -1.4644 -0.2705  0.9096
  113MOL   H26743051   0.250   6.472   1.786  1.2692  1.1453 -0.5069
  113MOL   C26843052   0.190   6.632   1.663 -0.4902  0.3993 -0.1473
  113MOL   C26943053   0.078   6.689   1.583 -0.4376  0.8464  0.4198
  113MOL   C27043054   0.050   6.824   1.605 -0.8274  0.1821  0.3695
  113MOL   C27143055   8.031   6.885   1.526  0.2128  0.2521 -0.1047
  113MOL   C27243056   7.944   6.812   1.441  0.1818  0.4497 -0.3465
  113MOL   C27343057   7.833   6.881   1.367 -0.3331 -0.3693 -0.1521
  113MOL   C27443058   7.972   6.676   1.432  0.6985 -0.7856  0.2092
  113MOL   C27543059   0.000   6.614   1.493  0.3173 -0.9936  0.6139
  113MOL   C27643060   0.313   6.622   1.576  0.3140 -0.2010 -0.3057
  113MOL   H27743061   0.210   6.691   1.752  1.8333  1.7171 -1.4995
  113MOL   H27843062   0.117   6.871   1.676 -0.2351 -0.5478  0.3051
  113MOL   H27943063   8.007   6.989   1.537 -1.6322 -0.1693 -0.0331
  113MOL   H28043064   7.778   6.807   1.308 -1.3029  0.6153 -0.5138
  113MOL   H28143065   7.776   6.939   1.441 -0.0887  0.8065 -0.8796
  113MOL   H28243066   7.882   6.953   1.303 -0.6903 -0.8138 -0.9250
  113MOL   H28343067   7.910   6.613   1.370 -0.8367 -0.5031  1.4491
  113MOL   H28443068   0.028   6.511   1.477 -0.0342 -0.9161 -0.5142
  113MOL   H28543069   0.287   6.548   1.500 -0.3877  0.4416 -0.7036
  113MOL   H28643070   0.393   6.583   1.639 -1.9447 -0.0238  2.8078
  113MOL   C28743071   0.373   6.747   1.504 -0.0368  0.2846 -0.1752
  113MOL   C28843072   0.479   6.706   1.402 -0.1763 -0.4037  0.1385
  113MOL   C28943073   0.438   6.715   1.263  0.2143  0.5949 -0.7114
  113MOL   C29043074   0.529   6.673   1.165 -0.1078 -0.2451 -0.0984
  113MOL   C29143075   0.655   6.621   1.198 -0.9830 -0.0308 -0.9779
  113MOL   C29243076   0.748   6.564   1.096 -0.4590  0.6246 -0.0076
  113MOL   C29343077   0.698   6.627   1.335  0.1053 -0.5923 -0.1419
  113MOL   C29443078   0.611   6.673   1.431  0.1352  0.0168 -0.2134
  113MOL   C29543079   0.441   6.851   1.607  0.0314  0.2070 -0.4310
  113MOL   H29643080   0.292   6.803   1.458 -0.6068  0.9252  1.5873
  113MOL   H29743081   0.343   6.752   1.228  0.0252  0.4151 -0.3961
  113MOL   H29843082   0.503   6.667   1.061 -2.4349  3.0435  0.2201
  113MOL   H29943083   0.769   6.460   1.123  0.2268  0.3709 -1.4786
  113MOL   H30043084   0.701   6.558   0.998  0.7358  0.5133 -0.5739
  113MOL   H30143085   0.838   6.621   1.077 -1.4070  2.3924  0.6445
  113MOL   H30243086   0.790   6.582   1.369  1.4982  1.5894 -0.9630
  113MOL   H30343087   0.643   6.664   1.534 -0.4951 -0.6598 -0.0771
  113MOL   H30443088   0.530   6.804   1.649  0.1527  0.5445 -0.3101
  113MOL   H30543089   0.378   6.861   1.695 -0.1551 -0.9931 -0.4190
  113MOL   C30643090   0.475   6.985   1.537 -0.4661  0.1900  0.0863
  113MOL   C30743091   0.587   7.064   1.613  0.6409 -0.2383  0.0547
  113MOL   C30843092   0.690   7.117   1.538 -0.5522 -0.1018  0.2408
  113MOL   C30943093   0.791   7.200   1.591 -0.4799  0.6514 -0.1758
  113MOL   C31043094   0.797   7.217   1.724  0.3281 -0.1103 -0.2311
  113MOL   C31143095   0.910   7.304   1.775 -1.2601  0.2617 -0.5833
  113MOL   C31243096   0.705   7.154   1.807  0.3263  1.0192 -0.1932
  113MOL   C31343097   0.601   7.078   1.754 -0.2327 -0.2236  0.4841
  113MOL   C31443098   0.346   7.070   1.517 -0.3931 -1.0971  0.8440
  113MOL   H31543099   0.522   6.973   1.440 -0.8932  1.9740 -0.3563
  113MOL   H31643100   0.699   7.105   1.431 -2.5878 -0.4214  0.0740
  113MOL   H31743101   0.863   7.247   1.526 -0.7884  0.6916 -0.4842
  113MOL   H31843102   0.881   7.372   1.856 -1.9698  0.7772 -1.2624
  113MOL   H31943103   0.992   7.242   1.812 -2.4078 -1.5085 -0.9692
  113MOL   H32043104   0.959   7.364   1.699  0.8635 -0.7657 -0.0620
  113MOL   H32143105   0.714   7.157   1.914  0.4038  0.4768 -0.1838
  113MOL   H32243106   0.521   7.040   1.816 -1.7735  1.0925 -0.6451
  113MOL   H32343107   0.292   7.060   1.611 -3.4783 -1.8181 -0.9388
  113MOL   H32443108   0.275   7.026   1.447  0.4499 -0.8289 -0.2012
  113MOL   C32543109   0.367   7.218   1.471  0.1434  0.4004  0.0778
  113MOL   C32643110   0.253   7.296   1.530 -0.3680 -0.1173  0.0149
  113MOL   C32743111   0.273   7.388   1.641 -0.2309  0.2046 -0.2500
  113MOL   C32843112   0.163   7.465   1.678 -0.2040 -0.3448 -0.1669
  113MOL   C32943113   0.038   7.449   1.612 -0.4954  0.5001 -0.6655
  113MOL   C33043114   8.001   7.545   1.649 -0.1416  0.5972 -0.5960
  113MOL   C33143115   0.019   7.357   1.515 -0.2100 -0.8666  0.3333
  113MOL   C33243116   0.123   7.276   1.476  0.3225 -0.1950  0.1047
  113MOL   C33343117   0.391   7.235   1.318  0.2873 -0.2314  0.8199
  113MOL   H33443118   0.461   7.258   1.510  0.1730 -0.4102  0.8307
  113MOL   H33543119   0.362   7.416   1.695  1.0165 -1.9758 -1.1087
  113MOL   H33643120   0.197   7.532   1.755  1.8093 -1.7723  0.2400
  113MOL   H33743121   7.936   7.503   1.726  0.2002 -0.1336 -0.6995
  113MOL   H33843122   8.050   7.625   1.705  0.1655  0.0981 -0.1470
  113MOL   H33943123   7.950   7.588   1.563  1.9809  1.7294 -1.3460
  113MOL   H34043124   8.012   7.336   1.455  1.1746 -0.7230 -1.8023
  113MOL   H34143125   0.110   7.203   1.398 -1.8152 -0.8475  1.0388
  113MOL   H34243126   0.302   7.193   1.271  0.7358 -1.3955  0.9864
  113MOL   H34343127   0.469   7.168   1.283  1.3281  0.3274  2.0145
  113MOL   C34443128   0.399   7.384   1.277 -0.5885 -0.1821 -0.3565
  113MOL   C34543129   0.342   7.404   1.135 -0.8843  0.3111  0.2301
  113MOL   C34643130   0.202   7.416   1.125 -0.1328  0.4827  0.0809
  113MOL   C34743131   0.146   7.448   0.996  0.0522  0.4376  0.3759
  113MOL   C34843132   0.227   7.454   0.884 -0.5323  0.2835  0.5268
  113MOL   C34943133   0.163   7.471   0.747  0.0232 -0.8811  0.0918
  113MOL   C35043134   0.368   7.433   0.900 -0.2550 -0.1371  0.3263
  113MOL   C35143135   0.428   7.407   1.024  0.0016  0.0777  0.5224
  113MOL   C35243136   0.539   7.447   1.313  0.1174 -0.8850 -0.2969
  113MOL   H35343137   0.329   7.450   1.329  1.1306  0.0939  1.6876
  113MOL   H35443138   0.142   7.409   1.214  1.3251 -1.5480  0.9298
  113MOL   H35543139   0.039   7.454   0.989 -0.0808 -1.3916  0.6203
  113MOL   H35643140   0.171   7.576   0.717  0.9493 -1.6125 -2.3260
  113MOL   H35743141   0.207   7.413   0.666  0.5627  2.7559 -2.3677
  113MOL   H35843142   0.059   7.440   0.751 -0.8110  0.9004 -4.1075
  113MOL   H35943143   0.426   7.430   0.809 -1.5353 -0.5915 -0.5008
  113MOL   H36043144   0.534   7.388   1.032  0.1148  0.2561 -0.4655
  113MOL   H36143145   0.613   7.417   1.238  0.2239 -2.1971  0.3190
  113MOL   H36243146   0.574   7.393   1.401 -2.0022 -0.1412  1.0332
  113MOL   C36343147   0.539   7.595   1.344 -0.6630 -0.1043  0.0504
  113MOL   C36443148   0.669   7.667   1.300  0.4155  0.3495 -0.4721
  113MOL   C36543149   0.791   7.616   1.342 -0.1085 -0.6288  0.4346
  113MOL   C36643150   0.905   7.679   1.298  0.1329  0.7475 -0.3696
  113MOL   C36743151   0.899   7.789   1.213 -1.0190  0.4528  0.1858
  113MOL   C36843152   1.032   7.849   1.165 -0.4912 -0.2081 -0.1064
  113MOL   C36943153   0.772   7.841   1.167 -0.0277  0.5140  0.7046
  113MOL   C37043154   0.660   7.774   1.209  0.5882 -0.3201  0.1984
  113MOL   C37143155   0.518   7.617   1.493  0.3099  0.0491  0.0434
  113MOL   H37243156   0.461   7.643   1.284 -2.1917 -4.2017 -1.3757
  113MOL   H37343157   0.799   7.530   1.407  0.2148 -0.8976  0.0429
  113MOL   H37443158   1.001   7.635   1.322  0.2033  2.5088  2.7629
  113MOL   H37543159   1.103   7.842   1.248 -0.2105 -0.5958 -0.3771
  113MOL   H37643160   1.074   7.787   1.086  1.1735  0.1844  0.4478
  113MOL   H37743161   1.019   7.952   1.131  1.2395  0.4072  1.0065
  113MOL   H37843162   0.764   7.928   1.104  0.0019 -0.3158 -0.4676
  113MOL   H37943163   0.566   7.816   1.175  0.0926 -1.5354  0.0566
  113MOL   H38043164   0.416   7.585   1.517  0.6318 -0.9373  0.1324
  113MOL   H38143165   0.533   7.718   1.531 -1.1975  0.1519  0.4096
  113MOL   H38243166   0.577   7.549   1.555  0.5943  0.5111  0.2776
  114MOL     C143167   1.027   0.203   7.440  0.4910 -0.2037 -0.1723
  114MOL     C243168   1.065   0.203   7.296 -0.0737  0.3771  0.4436
  114MOL     C343169   1.168   0.287   7.248  0.4271  0.2223  0.1654
  114MOL     C443170   1.202   0.298   7.107  0.0854  0.4192  0.5971
  114MOL     C543171   1.134   0.216   7.015  0.0852  0.2623 -0.0475
  114MOL     C643172   1.172   0.222   6.863  0.2192  0.6301 -0.1192
  114MOL     C743173   1.041   0.123   7.063 -0.0167 -0.0965 -0.0242
  114MOL     C843174   1.012   0.111   7.201 -0.0562 -0.0292  0.3134
  114MOL     C943175   0.944   0.333   7.472 -0.1273 -0.1873  0.8741
  114MOL    H1043176   0.969   0.113   7.461 -0.3624  0.0464 -1.4032
  114MOL    H1143177   1.233   0.345   7.311  0.7435  1.5705 -1.3609
  114MOL    H1243178   1.273   0.373   7.073 -1.4674  1.6009 -0.0776
  114MOL    H1343179   1.206   0.325   6.850 -0.1919  1.1958  2.9310
  114MOL    H1443180   1.255   0.156   6.838 -2.3193 -1.3978 -3.7600
  114MOL    H1543181   1.096   0.209   6.786 -0.8927  1.0402  0.8956
  114MOL    H1643182   0.983   0.057   6.999  0.6778 -1.7697  1.0331
  114MOL    H1743183   0.945   0.034   7.236 -0.9960  0.6479  0.0441
  114MOL    H1843184   0.860   0.338   7.403  1.8062 -0.0101 -1.5562
  114MOL    H1943185   1.003   0.419   7.442 -0.2332 -0.8942 -1.4719
  114MOL    H2043186   1.110   0.200   7.510 -0.2068 -0.4203  0.6535
  114MOL    C2143187   0.890   0.339   7.621  0.0534 -0.4847  0.7999
  114MOL    C2243188   0.824   0.211   7.674  0.1388  0.1165  0.6185
  114MOL    C2343189   0.862   0.154   7.801 -0.5375 -0.2073 -0.4721
  114MOL    C2443190   0.799   0.040   7.845  0.3890  0.0342  0.0476
  114MOL    C2543191   0.710   8.047   7.760  0.3023  0.6077 -0.2276
  114MOL    C2643192   0.663   7.909   7.796  0.7555 -0.5293  0.4437
  114MOL    C2743193   0.677   0.024   7.637  0.3844  0.2398 -0.5512
  114MOL    C2843194   0.737   0.140   7.589  0.5262 -0.1624  0.1671
  114MOL    C2943195   0.799   0.462   7.652  0.1795 -0.2757  0.0781
  114MOL    H3043196   0.977   0.342   7.687  0.0719  0.8097  0.7424
  114MOL    H3143197   0.927   0.210   7.867 -1.8542 -2.7926  3.2175
  114MOL    H3243198   0.839   0.007   7.940 -0.0311 -0.0868  0.1873
  114MOL    H3343199   0.582   7.880   7.729  0.0357 -1.9164  1.8810
  114MOL    H3443200   0.719   7.821   7.763  2.1829  0.6004 -0.1836
  114MOL    H3543201   0.624   7.891   7.896 -1.9413 -1.3508 -0.6791
  114MOL    H3643202   0.611   8.052   7.568  1.4295 -1.1845 -0.5138
  114MOL    H3743203   0.713   0.185   7.494  0.1768  2.5805  1.5012
  114MOL    H3843204   0.764   0.456   7.755  2.8341 -1.7279  0.9407
  114MOL    H3943205   0.709   0.456   7.590 -0.0246  0.4565  0.3036
  114MOL    C4043206   0.861   0.603   7.635  0.8635  0.1965 -0.9890
  114MOL    C4143207   0.995   0.618   7.724 -0.1333 -0.2839  0.3048
  114MOL    C4243208   0.992   0.573   7.856 -0.0443 -0.6713  0.2972
  114MOL    C4343209   1.112   0.590   7.934  0.5010  0.5344  0.2123
  114MOL    C4443210   1.233   0.641   7.873 -0.1396  0.8888  0.0536
  114MOL    C4543211   1.358   0.656   7.956 -0.3438 -0.2076  0.1417
  114MOL    C4643212   1.231   0.671   7.741 -0.4211 -0.4375 -0.0201
  114MOL    C4743213   1.116   0.656   7.660  0.1284 -0.2083  0.3497
  114MOL    C4843214   0.764   0.712   7.661  0.1695 -0.6449  0.5571
  114MOL    H4943215   0.885   0.607   7.529 -2.2693 -0.5914 -1.7837
  114MOL    H5043216   0.896   0.549   7.899 -0.9550 -0.8164 -1.7661
  114MOL    H5143217   1.107   0.573   8.041  0.7946 -0.2900  0.1036
  114MOL    H5243218   1.402   0.754   7.940  0.9510 -0.9369 -1.0101
  114MOL    H5343219   1.339   0.641   8.062 -1.6799  1.3584  0.1446
  114MOL    H5443220   1.437   0.592   7.914  0.3022 -1.7117  3.5136
  114MOL    H5543221   1.323   0.708   7.697 -0.4484 -0.6094 -0.2215
  114MOL    H5643222   1.120   0.680   7.554  0.2822 -0.0460  0.3911
  114MOL    H5743223   0.733   0.703   7.765  0.7708  0.9469  0.8933
  114MOL    H5843224   0.669   0.705   7.608 -0.4215  1.4456  1.2889
  114MOL    C5943225   0.809   0.855   7.626 -0.2458 -1.0913 -0.4757
  114MOL    C6043226   0.720   0.970   7.680  0.8180  0.2788 -0.3151
  114MOL    C6143227   0.767   1.073   7.765 -0.4935  0.6336  0.1374
  114MOL    C6243228   0.681   1.163   7.826  0.3555  0.2553 -0.3902
  114MOL    C6343229   0.543   1.164   7.778 -0.3027 -0.4674  0.1398
  114MOL    C6443230   0.432   1.262   7.825 -0.0627  0.0023 -0.2339
  114MOL    C6543231   0.501   1.066   7.689 -0.2348 -0.3619 -0.5078
  114MOL    C6643232   0.583   0.962   7.645  0.3691 -0.0047  0.5650
  114MOL    C6743233   0.857   0.876   7.479  0.2812  0.3235  0.3556
  114MOL    H6843234   0.897   0.865   7.689 -0.8482  1.0086  0.0814
  114MOL    H6943235   0.870   1.056   7.792 -1.0599 -2.5466  0.5535
  114MOL    H7043236   0.719   1.224   7.906  0.9333 -0.6475  0.0268
  114MOL    H7143237   0.393   1.244   7.926 -0.7994 -0.0671 -0.5249
  114MOL    H7243238   0.455   1.368   7.817 -2.0141  0.4557 -0.1778
  114MOL    H7343239   0.347   1.253   7.757  0.3955 -2.2747 -0.5426
  114MOL    H7443240   0.396   1.062   7.662 -0.2403 -1.1218 -0.4041
  114MOL    H7543241   0.532   0.883   7.591 -1.7451  1.8568 -0.2362
  114MOL    H7643242   0.935   0.803   7.454 -0.7052  0.1721 -2.4821
  114MOL    H7743243   0.906   0.974   7.483 -1.6566  1.3850 -1.1903
  114MOL    C7843244   0.753   0.883   7.366 -0.0126 -0.0444 -0.0680
  114MOL    C7943245   0.684   0.740   7.334 -0.6995  0.6657  0.2608
  114MOL    C8043246   0.554   0.709   7.371 -0.5658 -1.0844  0.4650
  114MOL    C8143247   0.503   0.579   7.341  0.0547  0.2511  1.2459
  114MOL    C8243248   0.592   0.479   7.299  0.0821  0.1602 -0.1652
  114MOL    C8343249   0.536   0.335   7.273 -0.1462  0.4159 -0.4986
  114MOL    C8443250   0.720   0.511   7.257 -0.3174 -0.7200  0.6513
  114MOL    C8543251   0.767   0.644   7.274  0.1629  0.4259 -0.1439
  114MOL    C8643252   0.793   0.961   7.241  0.4534 -0.2896 -0.5503
  114MOL    H8743253   0.676   0.941   7.417 -0.2073  0.3518 -0.7986
  114MOL    H8843254   0.494   0.793   7.404  0.9261 -0.1285  0.7639
  114MOL    H8943255   0.398   0.555   7.347 -0.1655  1.2232  1.4288
  114MOL    H9043256   0.427   0.331   7.276 -0.2081  1.7085 -0.9674
  114MOL    H9143257   0.568   0.300   7.175 -1.3080 -2.8362  0.2136
  114MOL    H9243258   0.563   0.271   7.357 -0.6068  2.3392  1.1513
  114MOL    H9343259   0.790   0.446   7.207 -1.1930 -1.0096 -0.2238
  114MOL    H9443260   0.868   0.673   7.249  0.0845  1.8322  1.1383
  114MOL    H9543261   0.886   0.921   7.201  1.1613  0.3407  0.4424
  114MOL    H9643262   0.812   1.065   7.269 -1.0416 -0.2129  0.2409
  114MOL    C9743263   0.689   0.956   7.121 -0.0794 -0.3135 -0.1421
  114MOL    C9843264   0.750   1.007   6.990 -0.3641  0.0588 -1.0357
  114MOL    C9943265   0.745   0.933   6.869  0.3515 -0.7810 -0.4552
  114MOL   C10043266   0.777   0.998   6.753  0.3760 -0.4966  0.1331
  114MOL   C10143267   0.831   1.126   6.750 -0.1372  0.2854 -0.0079
  114MOL   C10243268   0.892   1.182   6.617  0.4431  0.7525 -0.1722
  114MOL   C10343269   0.836   1.202   6.868  0.2087 -0.5463  0.6846
  114MOL   C10443270   0.787   1.143   6.983  0.0115 -0.4260 -0.1544
  114MOL   C10543271   0.556   1.013   7.161 -0.1043  0.1471  0.2832
  114MOL   H10643272   0.675   0.852   7.092 -0.2443 -0.0954 -0.8355
  114MOL   H10743273   0.684   0.843   6.866 -0.4487 -0.2925  0.6532
  114MOL   H10843274   0.777   0.941   6.662  0.2208  0.8024 -0.6924
  114MOL   H10943275   0.899   1.289   6.594 -0.1099  0.7196 -0.5023
  114MOL   H11043276   0.997   1.151   6.614  0.8959  2.3064 -1.1472
  114MOL   H11143277   0.839   1.143   6.530 -0.1615  5.1008 -1.8694
  114MOL   H11243278   0.870   1.304   6.876 -1.1059 -0.1620  1.4200
  114MOL   H11343279   0.784   1.198   7.077 -2.2451 -1.4812  0.4222
  114MOL   H11443280   0.558   1.121   7.174 -0.2352  0.5468 -2.7313
  114MOL   H11543281   0.523   0.976   7.258  0.6163 -1.3810 -0.0303
  114MOL   C11643282   0.441   0.988   7.063  0.3497  0.0983  0.6765
  114MOL   C11743283   0.313   1.064   7.100  0.7977  0.5590 -0.6417
  114MOL   C11843284   0.278   1.181   7.036 -0.5274  0.8738 -0.4612
  114MOL   C11943285   0.153   1.245   7.062  0.1272  0.7387  0.0112
  114MOL   C12043286   0.067   1.200   7.161  0.1374  0.4694 -0.6538
  114MOL   C12143287   8.022   1.278   7.204  0.1940 -0.9653 -0.5220
  114MOL   C12243288   0.092   1.078   7.224  0.1001 -0.0160  0.6161
  114MOL   C12343289   0.216   1.015   7.195 -0.6241 -0.1757  1.0062
  114MOL   C12443290   0.402   0.839   7.057  0.0333  0.8184 -0.0130
  114MOL   H12543291   0.478   1.015   6.964 -1.1154 -3.5302 -0.9488
  114MOL   H12643292   0.351   1.226   6.971 -0.5059  1.0480 -0.3172
  114MOL   H12743293   0.122   1.334   7.011 -1.2200 -0.7712 -1.8354
  114MOL   H12843294   8.039   1.321   7.302  0.2824  0.6529 -1.2417
  114MOL   H12943295   8.008   1.355   7.129  0.5385 -1.2561 -0.8911
  114MOL   H13043296   7.935   1.212   7.200  1.5476 -2.7570 -1.0422
  114MOL   H13143297   0.012   1.042   7.287  0.1174 -0.7305  0.2335
  114MOL   H13243298   0.224   0.921   7.249 -0.1949 -1.9580 -2.0157
  114MOL   H13343299   0.379   0.809   7.159  1.2765 -0.6862 -0.1593
  114MOL   H13443300   0.484   0.778   7.019  0.0630  2.3581 -2.5642
  114MOL   C13543301   0.273   0.791   6.972  0.0412  0.0757  0.3067
  114MOL   C13643302   0.177   0.711   7.060 -0.4625 -0.1380  0.0981
  114MOL   C13743303   0.037   0.735   7.067  0.1858 -0.3131  0.0927
  114MOL   C13843304   8.038   0.664   7.158 -0.0868 -0.0985 -0.1200
  114MOL   C13943305   0.019   0.567   7.239  0.2938  0.3828  0.2384
  114MOL   C14043306   8.015   0.484   7.334 -0.6901  0.0815  0.0111
  114MOL   C14143307   0.153   0.538   7.231  0.0408 -0.3284  0.2468
  114MOL   C14243308   0.232   0.605   7.137 -0.3752 -0.2498  0.3297
  114MOL   C14343309   0.306   0.711   6.841  0.5528  0.3191 -0.1205
  114MOL   H14443310   0.226   0.880   6.929  1.3805  0.0142 -1.3366
  114MOL   H14543311   8.069   0.813   7.010 -2.4240 -1.2516  0.9298
  114MOL   H14643312   7.931   0.680   7.157  0.1900  1.9043  0.0494
  114MOL   H14743313   8.020   0.376   7.322 -0.1782  0.1833 -0.7638
  114MOL   H14843314   8.043   0.512   7.435  0.4478 -0.9309 -0.0132
  114MOL   H14943315   7.913   0.522   7.331 -0.4334  0.6419 -3.6231
  114MOL   H15043316   0.195   0.467   7.300 -1.0802 -0.7587  0.4936
  114MOL   H15143317   0.336   0.575   7.142 -0.6111 -0.9745  1.2603
  114MOL   H15243318   0.210   0.670   6.811 -0.3671  0.9148  1.9541
  114MOL   H15343319   0.368   0.626   6.870 -1.0435 -0.1473  2.0492
  114MOL   C15443320   0.369   0.794   6.727 -0.1193  0.0933 -0.0778
  114MOL   C15543321   0.299   0.924   6.698 -1.3449  0.3006 -0.5954
  114MOL   C15643322   0.167   0.926   6.651  0.3363 -0.2442  0.2111
  114MOL   C15743323   0.084   1.040   6.653 -0.1229  0.7870  0.3962
  114MOL   C15843324   0.139   1.163   6.685  0.2307  0.7089  0.5424
  114MOL   C15943325   0.055   1.295   6.687  0.2822 -0.7032  0.6598
  114MOL   C16043326   0.278   1.169   6.716 -0.2115 -0.1577 -0.5159
  114MOL   C16143327   0.360   1.051   6.723  0.9595  0.0706 -0.3983
  114MOL   C16243328   0.377   0.704   6.604 -0.6637 -0.1893 -0.4699
  114MOL   H16343329   0.471   0.812   6.761 -0.1771 -1.4732  0.9692
  114MOL   H16443330   0.112   0.836   6.628  0.2776  0.3285 -1.9827
  114MOL   H16543331   8.064   1.022   6.616  0.8325  0.0178 -1.9235
  114MOL   H16643332   0.089   1.366   6.612 -0.3848  0.8490  1.7994
  114MOL   H16743333   8.030   1.271   6.672 -0.0259 -0.4914  2.4001
  114MOL   H16843334   0.064   1.349   6.781 -0.4106 -0.9655  0.8776
  114MOL   H16943335   0.316   1.268   6.735 -1.1569 -0.0054  0.6251
  114MOL   H17043336   0.465   1.065   6.741  1.3887 -0.7723 -2.1886
  114MOL   H17143337   0.284   0.712   6.547  0.0238  0.1634 -1.5760
  114MOL   H17243338   0.391   0.597   6.619 -0.3345 -0.2531 -1.2080
  114MOL   C17343339   0.495   0.748   6.504 -0.4551 -0.0295 -0.6518
  114MOL   C17443340   0.466   0.865   6.409 -0.2485  0.8094  0.6022
  114MOL   C17543341   0.552   0.976   6.398  0.5619  0.7177 -0.2873
  114MOL   C17643342   0.530   1.075   6.297  0.4404 -0.6190 -0.7925
  114MOL   C17743343   0.425   1.058   6.200 -0.6863  0.1034  0.2562
  114MOL   C17843344   0.416   1.160   6.092 -0.0835 -0.3343  0.2230
  114MOL   C17943345   0.339   0.952   6.214 -0.1663  0.1177  0.5382
  114MOL   C18043346   0.353   0.856   6.318  0.2229 -0.0322 -0.1047
  114MOL   C18143347   0.554   0.633   6.415 -0.0071  0.6264  0.7193
  114MOL   H18243348   0.568   0.786   6.574 -0.2804 -1.7330  0.1266
  114MOL   H18343349   0.634   0.980   6.468 -1.0177 -0.0300  1.6586
  114MOL   H18443350   0.601   1.155   6.285  0.6342 -0.4863  1.0597
  114MOL   H18543351   0.441   1.117   5.995  0.6994  0.7594 -0.0640
  114MOL   H18643352   0.314   1.198   6.088 -0.5266 -1.2488  2.0890
  114MOL   H18743353   0.494   1.233   6.110 -0.3553  0.2249 -0.8374
  114MOL   H18843354   0.253   0.942   6.150 -0.0115 -1.8937  0.6023
  114MOL   H18943355   0.286   0.771   6.319 -1.5534  1.3251  0.7441
  114MOL   H19043356   0.611   0.674   6.331  0.6421  0.7743  1.2263
  114MOL   H19143357   0.464   0.589   6.374 -0.3486  1.8633  0.1101
  114MOL   C19243358   0.646   0.525   6.480 -0.4513 -0.5120 -0.2985
  114MOL   C19343359   0.745   0.582   6.582  0.0517  0.0878  0.3401
  114MOL   C19443360   0.849   0.660   6.546 -0.1093 -0.2603  0.0639
  114MOL   C19543361   0.947   0.709   6.635 -0.1869 -0.0082  0.2304
  114MOL   C19643362   0.928   0.685   6.773  0.2767  0.2322 -0.1831
  114MOL   C19743363   1.030   0.745   6.868  0.0699  0.0207  0.1363
  114MOL   C19843364   0.817   0.607   6.815 -0.6726  0.4122 -0.2240
  114MOL   C19943365   0.726   0.555   6.722 -0.9064  0.1330 -0.4542
  114MOL   C20043366   0.701   0.427   6.375 -0.4383  0.2466 -0.0841
  114MOL   H20143367   0.581   0.460   6.538  0.4514 -1.4266 -0.3045
  114MOL   H20243368   0.853   0.693   6.444  0.6099  0.5888  0.3638
  114MOL   H20343369   1.032   0.766   6.601  0.2429 -0.1118  1.0997
  114MOL   H20443370   1.100   0.815   6.824  0.9522  0.1757  1.7503
  114MOL   H20543371   0.966   0.795   6.941  0.7230  2.5840 -1.0096
  114MOL   H20643372   1.091   0.667   6.913  3.1127  0.5514 -2.8747
  114MOL   H20743373   0.799   0.583   6.918 -2.1111 -1.3474 -0.8637
  114MOL   H20843374   0.642   0.498   6.759 -0.1730 -0.8330 -0.2179
  114MOL   H20943375   0.786   0.477   6.328  1.3933 -0.2431  2.5609
  114MOL   H21043376   0.627   0.415   6.296 -1.3646  2.2212  0.4475
  114MOL   C21143377   0.760   0.287   6.427  0.1269 -0.7558  0.9339
  114MOL   C21243378   0.877   0.248   6.342 -0.5805 -0.9220  1.0260
  114MOL   C21343379   0.863   0.247   6.200  0.0045  0.4955  0.1916
  114MOL   C21443380   0.968   0.215   6.108  0.5931 -0.0403 -0.0533
  114MOL   C21543381   1.092   0.181   6.167 -0.4871 -0.1620 -0.7838
  114MOL   C21643382   1.204   0.133   6.075  0.4326  0.1236  0.3590
  114MOL   C21743383   1.116   0.185   6.304  0.0967 -0.6755 -0.0558
  114MOL   C21843384   1.005   0.216   6.391 -1.1258  0.0050  0.6431
  114MOL   C21943385   0.651   0.180   6.407  0.5487 -0.7713  0.2749
  114MOL   H22043386   0.789   0.292   6.532  0.9182 -1.8987  0.7872
  114MOL   H22143387   0.762   0.270   6.169  0.3713  0.6670 -0.8988
  114MOL   H22243388   0.956   0.222   6.001 -2.9343 -0.5597  0.2641
  114MOL   H22343389   1.236   0.030   6.090 -0.3933 -0.2140 -0.1823
  114MOL   H22443390   1.178   0.135   5.969 -2.3757 -0.5806  0.9768
  114MOL   H22543391   1.291   0.199   6.082 -0.3611  1.4405 -1.7566
  114MOL   H22643392   1.213   0.159   6.343  1.4170  1.1977 -1.9643
  114MOL   H22743393   1.024   0.223   6.497 -1.6974  1.1116  0.6824
  114MOL   H22843394   0.693   0.079   6.408  0.0339 -0.9889  0.1759
  114MOL   H22943395   0.616   0.181   6.304  1.2316 -1.5124  0.0285
  114MOL   C23043396   0.541   0.167   6.510  0.1520 -0.4048  0.0983
  114MOL   C23143397   0.594   0.138   6.650  0.1590  0.1826 -0.2101
  114MOL   C23243398   0.565   0.230   6.754 -0.0667 -0.7610 -0.0831
  114MOL   C23343399   0.596   0.200   6.889 -0.0394 -0.5482  0.8197
  114MOL   C23443400   0.645   0.072   6.923 -0.0134 -0.2751 -0.7573
  114MOL   C23543401   0.683   0.029   7.063 -0.3569 -0.5183  0.5032
  114MOL   C23643402   0.664   8.056   6.821 -0.0036  0.4622  0.9539
  114MOL   C23743403   0.648   0.015   6.689 -0.1908  0.5391 -0.0765
  114MOL   C23843404   0.415   0.079   6.475  0.0660 -0.3004  0.1032
  114MOL   H23943405   0.502   0.269   6.516 -0.5515 -0.4869 -2.6941
  114MOL   H24043406   0.511   0.320   6.730 -0.6155 -1.1384 -0.2873
  114MOL   H24143407   0.566   0.265   6.969  0.5039 -0.4833  0.9724
  114MOL   H24243408   0.762   8.035   7.067 -1.5192 -2.0853 -3.1660
  114MOL   H24343409   0.704   0.118   7.122  1.0721 -0.6538  0.2025
  114MOL   H24443410   0.599   8.062   7.115 -0.9102 -0.5867 -0.4404
  114MOL   H24543411   0.687   7.955   6.851  0.9354  0.3081 -0.2401
  114MOL   H24643412   0.663   8.013   6.621 -0.9420 -0.6607  1.1932
  114MOL   H24743413   0.366   0.039   6.564  0.6552  0.1806  0.6482
  114MOL   H24843414   0.461   8.078   6.417 -0.6127 -0.6712  0.0763
  114MOL   C24943415   0.299   0.143   6.396  0.1073 -0.1290 -0.0000
  114MOL   C25043416   0.218   0.250   6.472 -0.2635  0.3254 -0.3771
  114MOL   C25143417   0.162   0.225   6.598 -0.2615 -0.3486  0.1115
  114MOL   C25243418   0.085   0.321   6.662  0.3716 -0.2410  0.0767
  114MOL   C25343419   0.078   0.450   6.611  1.4866 -0.2620 -0.4622
  114MOL   C25443420   8.054   0.540   6.678 -0.6140 -0.6666 -0.2653
  114MOL   C25543421   0.126   0.470   6.482 -0.4195  0.4700  0.0396
  114MOL   C25643422   0.198   0.375   6.411  0.0738  0.1008 -0.5242
  114MOL   C25743423   0.206   0.030   6.331 -0.3359  0.2354  0.3547
  114MOL   H25843424   0.348   0.193   6.312  1.9986 -0.2981  0.9761
  114MOL   H25943425   0.166   0.130   6.650 -2.3970 -0.8348 -0.5553
  114MOL   H26043426   0.028   0.299   6.750 -0.0980  1.6236  0.2653
  114MOL   H26143427   7.961   0.496   6.644 -1.7173  2.6041 -1.6907
  114MOL   H26243428   8.066   0.550   6.785  0.3873  0.0386 -0.4319
  114MOL   H26343429   8.052   0.635   6.625 -0.4047  0.8445  2.3748
  114MOL   H26443430   0.106   0.565   6.434  0.0094  0.6611  0.2297
  114MOL   H26543431   0.235   0.402   6.313  1.6970  0.0590  0.0586
  114MOL   H26643432   0.148   8.075   6.416  0.0237  1.1562  0.9779
  114MOL   H26743433   0.268   8.032   6.287  0.0287  0.0682  1.1529
  114MOL   C26843434   0.111   0.073   6.213 -0.2199  0.9155 -0.6621
  114MOL   C26943435   8.057   0.000   6.215 -0.3034  0.0753  0.2506
  114MOL   C27043436   7.957   0.049   6.298  0.5878 -0.2082 -0.3411
  114MOL   C27143437   7.833   8.065   6.305 -0.7493 -0.1944  0.1460
  114MOL   C27243438   7.799   7.947   6.236  0.1027  0.4440  0.2104
  114MOL   C27343439   7.663   7.889   6.242 -0.2116 -0.6258 -0.0730
  114MOL   C27443440   7.898   7.894   6.157 -0.4929 -1.1412  0.1485
  114MOL   C27543441   8.026   7.958   6.152  0.1421 -0.3064 -0.4906
  114MOL   C27643442   0.177   0.047   6.075 -0.5242  0.1300 -0.2349
  114MOL   H27743443   0.093   0.178   6.235  0.0613  0.4754  1.7548
  114MOL   H27843444   7.966   0.135   6.363  0.1128 -1.1158  0.9468
  114MOL   H27943445   7.754   0.034   6.360  0.2579  0.9590  0.5848
  114MOL   H28043446   7.585   7.956   6.278 -0.7298 -1.0890 -0.3253
  114MOL   H28143447   7.625   7.838   6.154 -0.5231  1.6711 -1.2930
  114MOL   H28243448   7.664   7.809   6.316  2.1917 -2.2908 -1.8028
  114MOL   H28343449   7.892   7.794   6.116  0.3065 -0.9027 -0.5601
  114MOL   H28443450   0.025   7.894   6.115  1.0402  0.0685  0.7296
  114MOL   H28543451   0.098   0.063   6.003 -0.1839  1.9631 -0.2070
  114MOL   H28643452   0.199   8.021   6.062  1.4571  0.5741 -0.7471
  114MOL   C28743453   0.290   0.142   6.021  0.1609  0.3991  0.4720
  114MOL   C28843454   0.248   0.290   6.003  0.2692 -0.9349  0.3743
  114MOL   C28943455   0.122   0.323   5.940  0.4178  0.5155 -0.4505
  114MOL   C29043456   0.101   0.458   5.903  0.2763  0.1286 -0.2261
  114MOL   C29143457   0.193   0.556   5.942 -0.1900 -0.3794 -0.5713
  114MOL   C29243458   0.176   0.697   5.885  0.3076  0.4934 -0.1257
  114MOL   C29343459   0.307   0.526   6.024 -0.3372  0.1739 -0.8308
  114MOL   C29443460   0.332   0.391   6.053 -0.5370 -0.4327 -0.5241
  114MOL   C29543461   0.343   0.077   5.895  0.1562  0.6749 -0.0415
  114MOL   H29643462   0.367   0.149   6.097 -0.2357 -0.8815  1.0055
  114MOL   H29743463   0.060   0.242   5.905  1.1111 -0.8908  1.4874
  114MOL   H29843464   0.020   0.479   5.835  0.1261 -2.8089 -1.0191
  114MOL   H29943465   0.279   0.733   5.897  1.0775 -2.4336  2.6036
  114MOL   H30043466   0.157   0.701   5.778  0.5660  0.5050 -0.1721
  114MOL   H30143467   0.112   0.760   5.947  0.8322  1.1814 -0.2774
  114MOL   H30243468   0.382   0.600   6.047 -0.3619 -0.1268  0.2051
  114MOL   H30343469   0.421   0.356   6.102  0.2142 -1.0513 -2.2934
  114MOL   H30443470   0.271   0.077   5.812  2.5053 -1.1034 -2.1319
  114MOL   H30543471   0.366   8.054   5.920  1.4178  0.7485 -0.8554
  114MOL   C30643472   0.484   0.112   5.846  0.2929 -0.2788 -0.5567
  114MOL   C30743473   0.497   0.257   5.790 -0.9314 -0.0664  0.5099
  114MOL   C30843474   0.615   0.330   5.794 -0.6638  0.6366  0.4003
  114MOL   C30943475   0.628   0.465   5.758  0.2841  0.1635 -0.2295
  114MOL   C31043476   0.509   0.532   5.714  0.1861 -0.3484 -0.0891
  114MOL   C31143477   0.510   0.681   5.675 -0.1369 -0.5530  0.0525
  114MOL   C31243478   0.394   0.463   5.688 -0.1719 -0.4675 -0.4149
  114MOL   C31343479   0.388   0.322   5.724 -0.3409  0.4160  0.6601
  114MOL   C31443480   0.547   0.012   5.751 -0.2177 -0.3809  0.3786
  114MOL   H31543481   0.542   0.114   5.938  0.1191 -0.4972 -0.4400
  114MOL   H31643482   0.697   0.274   5.835  0.1231  1.3735 -0.1446
  114MOL   H31743483   0.726   0.510   5.766 -0.3266  1.2292  1.6531
  114MOL   H31843484   0.543   0.700   5.573 -0.9530 -2.0898 -0.5192
  114MOL   H31943485   0.404   0.704   5.685  0.1695  0.1082  2.0564
  114MOL   H32043486   0.577   0.735   5.742 -0.3135  0.3877 -0.5304
  114MOL   H32143487   0.306   0.514   5.651 -0.5991 -0.9575 -0.0883
  114MOL   H32243488   0.294   0.272   5.712 -0.9374  1.5756  0.4409
  114MOL   H32343489   0.574   0.062   5.658  1.9910 -3.5707 -0.8015
  114MOL   H32443490   0.469   8.027   5.712 -1.0103  0.7142  0.1337
  114MOL   C32543491   0.676   8.016   5.807  0.3330 -0.2768 -0.6707
  114MOL   C32643492   0.638   7.948   5.943 -0.6139  0.6974  0.3402
  114MOL   C32743493   0.524   7.863   5.946  0.3704 -0.2716  0.5351
  114MOL   C32843494   0.479   7.813   6.063  0.4907 -0.4009  0.2099
  114MOL   C32943495   0.540   7.835   6.184 -0.2205 -0.0248  0.3270
  114MOL   C33043496   0.487   7.765   6.310 -0.1572 -0.4421  0.7450
  114MOL   C33143497   0.653   7.926   6.186 -0.3759 -0.6790  0.5978
  114MOL   C33243498   0.696   7.985   6.063  0.0661 -0.1278 -0.2471
  114MOL   C33343499   0.809   0.011   5.805  0.3511  0.0476  0.6219
  114MOL   H33443500   0.684   7.935   5.735 -0.1802 -1.4777  0.5911
  114MOL   H33543501   0.467   7.840   5.856  1.1279 -1.1432  0.2751
  114MOL   H33643502   0.392   7.749   6.064 -0.8493  1.3754  1.1727
  114MOL   H33743503   0.551   7.782   6.396 -1.2079  0.1505  1.4238
  114MOL   H33843504   0.384   7.790   6.336 -0.7926 -0.2816 -1.7921
  114MOL   H33943505   0.481   7.657   6.296  1.3245 -0.4614  0.2068
  114MOL   H34043506   0.696   7.947   6.283 -1.2190  0.1063  0.8098
  114MOL   H34143507   0.778   8.055   6.070 -0.2085  0.3786 -1.9788
  114MOL   H34243508   0.891   8.031   5.844  0.8145  0.3781  0.1584
  114MOL   H34343509   0.801   0.093   5.877  2.8102 -0.0900  1.1009
  114MOL   C34443510   0.851   0.077   5.666  0.7890  0.6228 -0.7476
  114MOL   C34543511   0.856   8.047   5.558  0.5357  0.9133 -0.3663
  114MOL   C34643512   0.942   7.934   5.566 -0.2337 -0.3667  0.5325
  114MOL   C34743513   0.952   7.846   5.456  0.0464  0.5451 -0.8747
  114MOL   C34843514   0.867   7.860   5.348  0.9130  0.0780 -0.2256
  114MOL   C34943515   0.868   7.756   5.239 -0.7287  0.4343 -0.5986
  114MOL   C35043516   0.771   7.970   5.347  0.3043 -0.0802 -0.7010
  114MOL   C35143517   0.769   8.062   5.447  0.0856 -0.8713 -0.0600
  114MOL   C35243518   0.981   0.158   5.677 -0.1205 -0.2132  0.1398
  114MOL   H35343519   0.769   0.146   5.644  0.2222  0.4376  0.7387
  114MOL   H35443520   1.006   7.911   5.650 -1.2733 -2.4148  0.7726
  114MOL   H35543521   1.018   7.762   5.470 -0.0092  0.7652  0.8804
  114MOL   H35643522   0.872   7.818   5.149  0.9143  0.8913 -0.2268
  114MOL   H35743523   0.961   7.698   5.240 -0.2993  1.1261  2.3734
  114MOL   H35843524   0.777   7.698   5.251 -1.1232  0.9020 -1.3128
  114MOL   H35943525   0.707   7.989   5.262 -1.7043 -1.0417  0.5575
  114MOL   H36043526   0.705   0.068   5.439  0.0744 -1.1150 -3.0714
  114MOL   H36143527   1.053   0.084   5.712  1.0865  1.3169  0.9083
  114MOL   H36243528   0.961   0.239   5.746  0.6672  0.0106  0.1020
  114MOL   C36343529   1.034   0.218   5.543  0.6278  0.2621  0.2650
  114MOL   C36443530   1.167   0.282   5.578  0.2803  0.1950  0.4415
  114MOL   C36543531   1.175   0.396   5.649  0.2942  0.3715  0.2782
  114MOL   C36643532   1.293   0.450   5.694 -0.2170 -0.4164 -0.5509
  114MOL   C36743533   1.410   0.387   5.659  0.6997 -0.5002 -0.6228
  114MOL   C36843534   1.543   0.440   5.714  0.2965  0.2524  0.3284
  114MOL   C36943535   1.407   0.277   5.577 -0.3036 -1.0774 -0.0524
  114MOL   C37043536   1.285   0.212   5.541 -0.0084  0.2639 -0.8026
  114MOL   C37143537   0.937   0.317   5.484  0.4022 -0.3675  0.2878
  114MOL   H37243538   1.050   0.135   5.474 -2.2038 -0.0899 -0.0068
  114MOL   H37343539   1.088   0.455   5.675 -0.3937 -0.2164 -0.6225
  114MOL   H37443540   1.299   0.537   5.757 -1.4662 -1.5064  1.1080
  114MOL   H37543541   1.605   0.362   5.759  0.9425 -0.0313 -1.0386
  114MOL   H37643542   1.602   0.493   5.639  1.4469  1.5890  2.1114
  114MOL   H37743543   1.522   0.507   5.797 -1.5878  0.3204 -0.1802
  114MOL   H37843544   1.505   0.241   5.549 -0.1680  0.1390 -1.2099
  114MOL   H37943545   1.280   0.114   5.495  2.4501 -0.6390  0.7946
  114MOL   H38043546   0.855   0.258   5.444  1.1640 -1.1202 -0.1714
  114MOL   H38143547   0.977   0.380   5.405 -1.7182  1.6843  0.7816
  114MOL   H38243548   0.898   0.382   5.563  2.8197  0.4713  0.8371
  115MOL     C143549   4.531   2.130   4.981  0.7411  0.8348 -0.7036
  115MOL     C243550   4.660   2.187   4.945 -0.7107 -0.3605 -0.5795
  115MOL     C343551   4.718   2.145   4.825 -0.1502  0.5577 -0.4887
  115MOL     C443552   4.841   2.199   4.780  0.5294  0.3019 -0.9209
  115MOL     C543553   4.905   2.297   4.858  0.0118  0.4788 -0.8672
  115MOL     C643554   5.032   2.353   4.803 -0.1255 -0.4944 -0.6655
  115MOL     C743555   4.844   2.335   4.976  0.2709 -0.3767 -0.2800
  115MOL     C843556   4.720   2.284   5.023 -0.4820  0.5345  0.0721
  115MOL     C943557   4.406   2.217   4.983 -0.3981 -0.5117 -1.0698
  115MOL    H1043558   4.517   2.039   4.923 -2.2625  0.0951  1.1056
  115MOL    H1143559   4.663   2.069   4.772 -1.8553  1.2234  0.2946
  115MOL    H1243560   4.878   2.164   4.684  0.6060  0.0112 -0.7883
  115MOL    H1343561   5.022   2.359   4.695  1.0449 -1.5669 -0.8315
  115MOL    H1443562   5.040   2.459   4.828  2.2049 -1.1521  1.5355
  115MOL    H1543563   5.127   2.308   4.830  2.3427  4.6762  0.0021
  115MOL    H1643564   4.887   2.418   5.030 -2.0776 -0.3171  1.5944
  115MOL    H1743565   4.683   2.323   5.117  1.4476  0.3730  0.9355
  115MOL    H1843566   4.339   2.185   4.903 -1.2033  0.5175 -0.8256
  115MOL    H1943567   4.426   2.323   4.968 -1.1557  0.1433  2.1582
  115MOL    H2043568   4.554   2.085   5.078 -1.1821 -1.1732 -1.1375
  115MOL    C2143569   4.328   2.198   5.116  0.1445  0.4432  0.3638
  115MOL    C2243570   4.283   2.045   5.135  1.1318  0.1168  0.5166
  115MOL    C2343571   4.314   1.973   5.253 -0.1878 -0.6814  0.8576
  115MOL    C2443572   4.262   1.845   5.281  0.1936 -0.5650  0.3448
  115MOL    C2543573   4.182   1.784   5.183 -0.8024 -0.1187 -0.0330
  115MOL    C2643574   4.135   1.639   5.199  0.0233  0.1865 -0.3101
  115MOL    C2743575   4.151   1.853   5.068  0.7470 -0.3211  0.4700
  115MOL    C2843576   4.196   1.983   5.044  0.9060  1.0590 -1.2110
  115MOL    C2943577   4.205   2.292   5.128  0.5730  0.4028  0.1182
  115MOL    H3043578   4.399   2.220   5.196 -0.7391  0.3323  1.1940
  115MOL    H3143579   4.372   2.025   5.328  1.7551  0.0311 -1.0750
  115MOL    H3243580   4.280   1.798   5.376  0.6677 -2.3434 -0.6036
  115MOL    H3343581   4.230   1.585   5.204 -1.1551 -1.9739 -1.0023
  115MOL    H3443582   4.051   1.621   5.266  0.1895  1.3899  0.2376
  115MOL    H3543583   4.082   1.609   5.109 -0.0940  1.0272 -0.5307
  115MOL    H3643584   4.086   1.802   4.998  1.4751 -0.8424  0.1671
  115MOL    H3743585   4.168   2.033   4.952 -2.6301  2.9379  0.8116
  115MOL    H3843586   4.115   2.254   5.080  0.1964  1.7471 -0.2699
  115MOL    H3943587   4.231   2.369   5.054  1.5652 -1.3169 -1.3801
  115MOL    C4043588   4.177   2.356   5.265 -0.4103 -0.2870 -0.5183
  115MOL    C4143589   4.112   2.263   5.371  0.5821  0.2765 -0.8361
  115MOL    C4243590   4.007   2.175   5.344 -0.3711  0.3006 -0.0910
  115MOL    C4343591   3.951   2.088   5.433 -0.0262  0.3074 -0.1434
  115MOL    C4443592   3.999   2.076   5.570  0.1466 -1.0224  0.1209
  115MOL    C4543593   3.945   1.974   5.666 -0.8747  0.1443 -0.1934
  115MOL    C4643594   4.100   2.165   5.605 -0.4484  0.3085  0.8035
  115MOL    C4743595   4.159   2.248   5.505 -0.0473 -0.8120 -0.5845
  115MOL    C4843596   4.099   2.493   5.258  0.3524  0.0735 -0.2356
  115MOL    H4943597   4.278   2.373   5.301 -0.8326  1.1364  0.0439
  115MOL    H5043598   3.975   2.175   5.241  0.6511 -1.9178 -0.4305
  115MOL    H5143599   3.871   2.023   5.400  0.6422 -1.4383  1.5567
  115MOL    H5243600   3.877   2.021   5.738 -0.2145 -0.6030  0.9275
  115MOL    H5343601   3.913   1.884   5.614  1.1223  0.2353 -1.6237
  115MOL    H5443602   4.028   1.945   5.730 -0.9334 -0.8687 -0.5782
  115MOL    H5543603   4.149   2.166   5.701 -1.3778  1.5071  1.2801
  115MOL    H5643604   4.253   2.293   5.530 -0.9076 -1.2698  3.7451
  115MOL    H5743605   4.083   2.525   5.361  1.3255 -0.1571 -0.0082
  115MOL    H5843606   4.003   2.469   5.212  1.4276 -0.7894 -2.0979
  115MOL    C5943607   4.167   2.618   5.196 -0.2191  0.0025  1.4077
  115MOL    C6043608   4.316   2.619   5.234  0.5892 -0.2558  0.5744
  115MOL    C6143609   4.419   2.587   5.134  0.5113 -0.1020 -0.4295
  115MOL    C6243610   4.553   2.589   5.166  0.2597  0.1225 -0.0270
  115MOL    C6343611   4.595   2.615   5.294  0.3459  0.0976 -0.0957
  115MOL    C6443612   4.748   2.616   5.322  0.8044 -0.1394  0.6746
  115MOL    C6543613   4.498   2.652   5.394  0.3814  0.0672 -0.2118
  115MOL    C6643614   4.358   2.648   5.367 -0.0703 -0.2371  0.4724
  115MOL    C6743615   4.091   2.749   5.223 -0.0699 -0.3968  0.5036
  115MOL    H6843616   4.170   2.603   5.088 -0.1386  0.3358  1.3624
  115MOL    H6943617   4.386   2.575   5.032  0.0128 -0.8963 -0.1796
  115MOL    H7043618   4.624   2.571   5.086 -0.9519  3.2534 -1.8938
  115MOL    H7143619   4.810   2.535   5.284 -0.1531 -0.2698 -0.6548
  115MOL    H7243620   4.795   2.709   5.290 -3.0725  1.6060 -0.1906
  115MOL    H7343621   4.759   2.604   5.429 -1.3984  0.2699  0.9720
  115MOL    H7443622   4.530   2.673   5.496  2.4148 -1.0938 -0.5613
  115MOL    H7543623   4.279   2.663   5.439  1.0343 -1.9665  2.1139
  115MOL    H7643624   4.143   2.836   5.182  0.8230 -0.7112  0.9705
  115MOL    H7743625   4.092   2.767   5.331 -0.7616  2.6481  0.0563
  115MOL    C7843626   3.953   2.752   5.168 -0.1974 -0.1964  0.1181
  115MOL    C7943627   3.949   2.752   5.011 -0.1334  0.5092 -0.5193
  115MOL    C8043628   3.833   2.701   4.952 -0.2015  0.2663 -0.5074
  115MOL    C8143629   3.824   2.687   4.811  0.6313 -0.1362  0.0800
  115MOL    C8243630   3.925   2.739   4.726  0.2633 -0.3825  0.2329
  115MOL    C8343631   3.915   2.729   4.569  0.2012 -0.1452  0.2042
  115MOL    C8443632   4.038   2.800   4.789 -0.5934  1.1899  0.1422
  115MOL    C8543633   4.056   2.806   4.931  0.2801 -0.0325 -0.8693
  115MOL    C8643634   3.870   2.873   5.221  0.4698 -0.0749 -0.4285
  115MOL    H8743635   3.894   2.666   5.199 -2.5196  0.9340 -1.1226
  115MOL    H8843636   3.752   2.667   5.015  0.1392  1.5756  0.6739
  115MOL    H8943637   3.733   2.643   4.773  0.7338  2.2353 -3.1412
  115MOL    H9043638   4.005   2.673   4.544  0.1726 -0.0956 -0.0063
  115MOL    H9143639   3.820   2.686   4.537  0.9636 -1.7034 -0.0412
  115MOL    H9243640   3.917   2.829   4.526 -1.8480 -0.7401 -1.3514
  115MOL    H9343641   4.116   2.851   4.734  2.0125 -0.4282  2.1842
  115MOL    H9443642   4.137   2.862   4.975 -0.7271  0.1334  0.8135
  115MOL    H9543643   3.777   2.895   5.168  0.2437  0.3440  0.1321
  115MOL    H9643644   3.935   2.958   5.206  0.0213  0.3642  0.0940
  115MOL    C9743645   3.833   2.856   5.366 -0.0742  0.9197 -0.3431
  115MOL    C9843646   3.731   2.750   5.395 -0.0211 -0.3070 -0.2534
  115MOL    C9943647   3.597   2.765   5.342 -0.2534  0.1398  0.1579
  115MOL   C10043648   3.495   2.686   5.382 -0.2148 -0.0207  0.2150
  115MOL   C10143649   3.525   2.579   5.469  1.0854 -0.0871  0.0736
  115MOL   C10243650   3.412   2.480   5.512  0.0871  0.2003 -0.2795
  115MOL   C10343651   3.661   2.553   5.506  0.2615  0.8007 -0.2347
  115MOL   C10443652   3.759   2.641   5.472  0.5945 -0.9158 -0.8495
  115MOL   C10543653   3.788   2.985   5.436  0.2774 -1.3801  0.3912
  115MOL   H10643654   3.922   2.822   5.419 -0.4066  1.9281  0.8940
  115MOL   H10743655   3.574   2.848   5.277 -2.4783  0.0330  0.7498
  115MOL   H10843656   3.394   2.709   5.349 -1.0302  0.7101  3.1028
  115MOL   H10943657   3.356   2.449   5.424  1.5349 -0.5518 -0.9536
  115MOL   H11043658   3.451   2.401   5.576 -0.6538 -0.0986 -0.1957
  115MOL   H11143659   3.341   2.536   5.573  1.2212  1.7619 -0.3513
  115MOL   H11243660   3.689   2.476   5.577  0.0720 -0.7015 -1.7593
  115MOL   H11343661   3.858   2.622   5.511  1.0455  1.6775 -0.6756
  115MOL   H11443662   3.725   2.955   5.520  2.0254 -1.1254  1.8302
  115MOL   H11543663   3.725   3.041   5.366  0.8088 -1.1369  0.1026
  115MOL   C11643664   3.900   3.084   5.477  0.1615  0.1919 -0.1663
  115MOL   C11743665   4.006   3.011   5.553 -0.2725  0.5237 -0.1312
  115MOL   C11843666   4.134   2.982   5.502 -0.1080  0.7298 -0.0405
  115MOL   C11943667   4.231   2.896   5.569  0.2769 -0.4698  0.7547
  115MOL   C12043668   4.187   2.834   5.690  0.2079 -0.2864  0.3641
  115MOL   C12143669   4.278   2.728   5.758 -0.0418  0.7449  0.5011
  115MOL   C12243670   4.064   2.875   5.748 -0.0769  0.3099  0.3981
  115MOL   C12343671   3.971   2.956   5.682 -0.1901 -0.6533 -0.8089
  115MOL   C12443672   3.832   3.201   5.548  0.4239  0.3988 -0.1989
  115MOL   H12543673   3.942   3.132   5.389  0.5763  2.1670  1.0715
  115MOL   H12643674   4.154   3.025   5.405 -0.3597 -0.8624 -0.8123
  115MOL   H12743675   4.329   2.879   5.527  0.0087 -1.1513  0.3943
  115MOL   H12843676   4.383   2.757   5.758  0.1034  0.2120  0.9281
  115MOL   H12943677   4.250   2.698   5.859 -0.3260  2.2691  0.8974
  115MOL   H13043678   4.268   2.636   5.700 -0.1889  0.3892  1.0856
  115MOL   H13143679   4.025   2.826   5.835  1.8077 -0.5211  0.8032
  115MOL   H13243680   3.878   2.978   5.733  1.1438  0.2386  1.3275
  115MOL   H13343681   3.771   3.169   5.633  0.9907  0.9584  0.4209
  115MOL   H13443682   3.763   3.242   5.473  1.2975 -0.9920 -1.8019
  115MOL   C13543683   3.933   3.305   5.605  0.0831 -0.6286 -0.4084
  115MOL   C13643684   3.871   3.406   5.701 -0.8584 -0.3540  0.2296
  115MOL   C13743685   3.748   3.459   5.658 -0.3455 -0.3850  0.0669
  115MOL   C13843686   3.679   3.546   5.743 -0.5422 -0.1127 -0.0813
  115MOL   C13943687   3.725   3.578   5.870  0.0733  0.2070  0.2193
  115MOL   C14043688   3.648   3.676   5.955  0.3567 -0.1941  0.0600
  115MOL   C14143689   3.846   3.521   5.916  0.0703 -0.4614  0.6894
  115MOL   C14243690   3.920   3.439   5.831  0.0608 -0.4415 -0.7686
  115MOL   C14343691   4.023   3.380   5.497  0.5418  0.2223 -0.0444
  115MOL   H14443692   4.005   3.253   5.669  0.0237 -1.7440 -1.2353
  115MOL   H14543693   3.699   3.443   5.563 -2.4995 -0.0335  1.0781
  115MOL   H14643694   3.588   3.594   5.710 -1.1372 -0.8728  0.4398
  115MOL   H14743695   3.721   3.735   6.011  0.7503  1.9864 -2.6429
  115MOL   H14843696   3.586   3.754   5.912  0.6003  0.2206  0.4498
  115MOL   H14943697   3.590   3.615   6.024  1.1105 -0.9354  0.0391
  115MOL   H15043698   3.875   3.536   6.019  2.2874  2.1816 -0.2758
  115MOL   H15143699   4.020   3.412   5.861 -0.0060  1.9621  1.8759
  115MOL   H15243700   3.957   3.454   5.452  1.7573  0.2792 -1.7467
  115MOL   H15343701   4.033   3.316   5.410  2.2289 -0.1819  0.4282
  115MOL   C15443702   4.163   3.445   5.540  0.0769 -0.0730 -0.3106
  115MOL   C15543703   4.193   3.555   5.429 -0.1089  0.0836  0.3611
  115MOL   C15643704   4.198   3.688   5.474 -0.2393  0.3102 -0.7770
  115MOL   C15743705   4.229   3.797   5.388 -0.3609 -0.3526 -0.0836
  115MOL   C15843706   4.237   3.771   5.247 -0.1218 -0.0755 -0.4131
  115MOL   C15943707   4.232   3.887   5.156 -0.2878 -0.0409 -0.8371
  115MOL   C16043708   4.230   3.638   5.198 -0.1182 -0.2286  0.1031
  115MOL   C16143709   4.206   3.535   5.290 -0.5520  0.2571 -0.1746
  115MOL   C16243710   4.277   3.338   5.532  0.4180 -0.2128  0.4643
  115MOL   H16343711   4.151   3.481   5.642 -2.8289 -0.2369 -0.5632
  115MOL   H16443712   4.181   3.720   5.576  0.1790 -1.1138 -0.2570
  115MOL   H16543713   4.243   3.895   5.432 -0.7858  0.0044 -0.7244
  115MOL   H16643714   4.276   3.856   5.061  1.4686  0.4484 -0.2057
  115MOL   H16743715   4.131   3.925   5.139 -0.0589  0.7049 -0.5525
  115MOL   H16843716   4.296   3.964   5.198 -0.9393  0.4219 -0.6935
  115MOL   H16943717   4.213   3.616   5.094  0.0182  1.1758 -0.2227
  115MOL   H17043718   4.204   3.439   5.240 -0.0907  1.3189 -2.2909
  115MOL   H17143719   4.366   3.387   5.495  0.5221 -1.4892 -1.0244
  115MOL   H17243720   4.254   3.264   5.455  0.3543  1.9474 -1.6547
  115MOL   C17343721   4.320   3.276   5.663  0.1608 -0.2109 -0.0795
  115MOL   C17443722   4.320   3.368   5.782 -0.4357 -0.2583 -0.2619
  115MOL   C17543723   4.244   3.329   5.900  0.1518 -0.1644  0.8791
  115MOL   C17643724   4.243   3.421   6.004  0.2303  0.3549 -0.1513
  115MOL   C17743725   4.308   3.544   5.999 -0.4583 -0.8062 -0.5976
  115MOL   C17843726   4.305   3.651   6.111  0.1923  0.3503 -0.2817
  115MOL   C17943727   4.393   3.570   5.895 -0.2823 -0.3971  0.0966
  115MOL   C18043728   4.401   3.483   5.784 -0.3442  0.8907 -0.0565
  115MOL   C18143729   4.457   3.202   5.651 -0.5536  0.7911  0.4433
  115MOL   H18243730   4.242   3.203   5.682  1.1008 -1.3626 -0.5586
  115MOL   H18343731   4.185   3.239   5.904  0.5723 -0.5562 -1.1789
  115MOL   H18443732   4.186   3.402   6.093 -0.2263 -0.9785 -0.7226
  115MOL   H18543733   4.285   3.594   6.203 -1.9117  0.8736 -0.3775
  115MOL   H18643734   4.403   3.698   6.117  0.5869 -0.4111 -0.6853
  115MOL   H18743735   4.223   3.720   6.092  1.5487  1.5174 -1.9838
  115MOL   H18843736   4.459   3.654   5.882 -1.1286  0.4639  1.2455
  115MOL   H18943737   4.474   3.501   5.708  0.3288  1.4409  0.7170
  115MOL   H19043738   4.533   3.264   5.603  1.6854 -0.7593  1.8750
  115MOL   H19143739   4.457   3.117   5.582 -1.0356  0.7907  0.4432
  115MOL   C19243740   4.522   3.154   5.788 -0.5774  0.1912 -0.0377
  115MOL   C19343741   4.659   3.099   5.764 -0.0365  0.6951  0.2461
  115MOL   C19443742   4.762   3.143   5.848 -0.2093 -0.7146 -0.5123
  115MOL   C19543743   4.897   3.095   5.832 -0.6149 -0.2782 -0.1666
  115MOL   C19643744   4.923   2.988   5.737  0.1958 -0.2211  0.0502
  115MOL   C19743745   5.055   2.921   5.739 -0.1609 -0.4618 -0.2707
  115MOL   C19843746   4.814   2.941   5.665  0.2544  0.4114  0.3514
  115MOL   C19943747   4.682   3.001   5.671 -0.2532  0.6292 -0.1087
  115MOL   C20043748   4.436   3.049   5.870  0.2817 -0.0931 -0.2618
  115MOL   H20143749   4.531   3.246   5.846  2.3655  0.0039 -0.1516
  115MOL   H20243750   4.757   3.218   5.926 -0.5651 -1.1247 -0.1439
  115MOL   H20343751   4.974   3.127   5.899 -1.8741  0.3660  0.9990
  115MOL   H20443752   5.067   2.851   5.656  1.7254 -0.7292  0.1953
  115MOL   H20543753   5.130   3.000   5.737 -2.6772  2.0262  0.0395
  115MOL   H20643754   5.067   2.863   5.831 -0.8100  0.5797  0.4730
  115MOL   H20743755   4.834   2.859   5.598 -2.4174 -0.4928  0.6014
  115MOL   H20843756   4.610   2.960   5.602  0.2739 -0.6745  0.0999
  115MOL   H20943757   4.435   2.963   5.803 -0.1960 -1.0504  0.9467
  115MOL   H21043758   4.336   3.086   5.892  1.0687  1.3218  1.0172
  115MOL   C21143759   4.490   3.017   6.020  0.5446 -0.7235  0.6810
  115MOL   C21243760   4.432   2.882   6.068  0.0912 -0.2130  0.2788
  115MOL   C21343761   4.490   2.766   6.015  0.3910  0.3828 -0.0564
  115MOL   C21443762   4.437   2.638   6.044 -0.2552  0.1524 -0.1755
  115MOL   C21543763   4.335   2.626   6.146  0.3121  0.7487  0.8531
  115MOL   C21643764   4.294   2.493   6.193  0.1792 -0.0644 -0.3686
  115MOL   C21743765   4.283   2.743   6.204  0.2140 -0.2087  0.4593
  115MOL   C21843766   4.332   2.871   6.166  0.6540 -0.0313 -0.8269
  115MOL   C21943767   4.451   3.140   6.111 -0.5653  0.7320  0.0767
  115MOL   H22043768   4.599   3.015   6.027  0.6742  0.8272 -0.7100
  115MOL   H22143769   4.557   2.789   5.933  0.5161  1.5678  0.3620
  115MOL   H22243770   4.479   2.548   6.001  1.4495  1.3468 -1.0686
  115MOL   H22343771   4.219   2.435   6.138 -0.0112  0.4955 -0.7075
  115MOL   H22443772   4.379   2.430   6.220  1.5508  1.3842 -1.2135
  115MOL   H22543773   4.258   2.516   6.293  0.4610 -0.5032 -0.1668
  115MOL   H22643774   4.202   2.729   6.273  1.4913  1.3587  2.3371
  115MOL   H22743775   4.289   2.957   6.214 -0.0090 -1.0795  0.4945
  115MOL   H22843776   4.342   3.139   6.110 -0.5966 -1.4240  1.2324
  115MOL   H22943777   4.482   3.232   6.062  0.7791  0.8189  1.0493
  115MOL   C23043778   4.513   3.137   6.258 -0.4423 -0.0189  1.0394
  115MOL   C23143779   4.441   3.232   6.352  0.4901  0.8910 -0.0471
  115MOL   C23243780   4.458   3.367   6.340 -0.0032 -0.2163 -0.7401
  115MOL   C23343781   4.395   3.458   6.425  0.0627 -0.3020 -0.3410
  115MOL   C23443782   4.311   3.406   6.528  0.3841  0.3216 -0.2094
  115MOL   C23543783   4.218   3.491   6.608  0.0624 -0.2455 -0.1706
  115MOL   C23643784   4.301   3.266   6.543  0.0934  0.5624  0.3287
  115MOL   C23743785   4.361   3.179   6.455  0.0632 -0.8569  0.2101
  115MOL   C23843786   4.669   3.158   6.274  0.0618 -0.4772  0.2659
  115MOL   H23943787   4.488   3.038   6.297  0.3662 -0.9660 -0.7983
  115MOL   H24043788   4.523   3.411   6.266  2.0775 -2.0345 -0.0481
  115MOL   H24143789   4.409   3.565   6.422  0.0256 -0.2954 -0.2599
  115MOL   H24243790   4.147   3.544   6.544  2.1058  2.0997 -0.5835
  115MOL   H24343791   4.162   3.429   6.677 -0.6904  0.8464  0.2061
  115MOL   H24443792   4.269   3.563   6.673  1.2583 -2.9806  2.0141
  115MOL   H24543793   4.246   3.228   6.628 -2.6752 -1.2366 -2.1828
  115MOL   H24643794   4.339   3.073   6.465 -1.5734 -0.4691  1.0055
  115MOL   H24743795   4.681   3.231   6.354 -0.3251 -2.4215  2.1486
  115MOL   H24843796   4.708   3.211   6.187  1.2910  1.6951  2.0658
  115MOL   C24943797   4.761   3.047   6.331  0.3655  0.0622 -0.7721
  115MOL   C25043798   4.907   3.081   6.365  0.1694 -0.4474 -0.5953
  115MOL   C25143799   4.949   3.128   6.491 -0.5235  0.6534  0.3548
  115MOL   C25243800   5.080   3.164   6.524  0.4174 -0.5801 -0.3267
  115MOL   C25343801   5.178   3.174   6.426 -0.4299 -0.5054 -0.0296
  115MOL   C25443802   5.320   3.218   6.458 -0.1050  0.6511 -0.4170
  115MOL   C25543803   5.137   3.136   6.298 -0.2213 -0.5685 -0.4709
  115MOL   C25643804   5.007   3.093   6.265 -0.0631  0.2187  0.4969
  115MOL   C25743805   4.747   2.918   6.242  0.3850  0.2533 -0.6924
  115MOL   H25843806   4.721   3.025   6.431 -0.2125  0.8012 -0.8403
  115MOL   H25943807   4.875   3.130   6.570  0.1673  0.5982  1.0042
  115MOL   H26043808   5.112   3.194   6.623  2.8633  0.5198 -1.3857
  115MOL   H26143809   5.377   3.129   6.484  0.7497  1.4471  0.4554
  115MOL   H26243810   5.349   3.240   6.355  0.8366 -0.0543 -0.3075
  115MOL   H26343811   5.327   3.303   6.526  2.8245 -0.2331  0.4587
  115MOL   H26443812   5.212   3.143   6.220 -0.2498 -2.2832 -0.6603
  115MOL   H26543813   4.983   3.063   6.164  0.2490  0.0737  0.4651
  115MOL   H26643814   4.782   2.946   6.143 -0.7243 -1.2226 -1.5158
  115MOL   H26743815   4.645   2.880   6.238  0.2978  0.3127  0.5960
  115MOL   C26843816   4.833   2.798   6.294 -0.5883 -0.1086  0.2373
  115MOL   C26943817   4.913   2.727   6.179  0.2496 -0.1126 -0.2490
  115MOL   C27043818   4.844   2.706   6.056 -0.5976  0.0838 -0.8613
  115MOL   C27143819   4.901   2.627   5.953  0.1109 -0.0069  0.2758
  115MOL   C27243820   5.034   2.585   5.968 -0.7137  0.8669  0.5051
  115MOL   C27343821   5.094   2.497   5.861  0.1276 -0.7388  0.2915
  115MOL   C27443822   5.105   2.615   6.088  0.1347 -0.3014 -0.5804
  115MOL   C27543823   5.047   2.680   6.197 -0.0653  0.7522  0.1250
  115MOL   C27643824   4.738   2.696   6.363 -0.2490 -0.0487  0.5583
  115MOL   H27743825   4.906   2.836   6.365 -0.5968  0.2616  0.0476
  115MOL   H27843826   4.741   2.735   6.044 -0.8371 -0.5575 -0.3675
  115MOL   H27943827   4.837   2.617   5.866 -0.0557  0.6540  0.3222
  115MOL   H28043828   5.064   2.536   5.764 -1.0702  1.1433  1.3778
  115MOL   H28143829   5.196   2.461   5.862  0.1069 -0.8271 -0.4747
  115MOL   H28243830   5.043   2.403   5.884 -1.9933  0.7584  1.9719
  115MOL   H28343831   5.200   2.567   6.103 -0.2289 -1.1192 -0.8181
  115MOL   H28443832   5.088   2.701   6.295 -0.6200 -3.2944  1.3169
  115MOL   H28543833   4.794   2.604   6.379  2.7581  1.6043 -0.1756
  115MOL   H28643834   4.662   2.666   6.291 -0.9515  0.8362  0.9278
  115MOL   C28743835   4.679   2.726   6.501  0.3536  0.0359  0.4850
  115MOL   C28843836   4.780   2.769   6.604 -0.4158 -0.0890 -0.6628
  115MOL   C28943837   4.775   2.890   6.672 -0.6155 -0.6770 -0.1527
  115MOL   C29043838   4.882   2.919   6.769 -0.5234  0.7952 -0.2285
  115MOL   C29143839   4.979   2.828   6.809 -0.3261  0.2839  0.4097
  115MOL   C29243840   5.091   2.857   6.897 -0.3427  0.6939 -0.2504
  115MOL   C29343841   4.975   2.700   6.743  0.7895  0.6339  0.0529
  115MOL   C29443842   4.872   2.677   6.648 -0.6835 -0.0189  0.4144
  115MOL   C29543843   4.597   2.600   6.545 -0.7153  0.8650 -1.0030
  115MOL   H29643844   4.608   2.809   6.500 -0.3882 -0.5152  3.0410
  115MOL   H29743845   4.698   2.964   6.658 -0.8659 -0.4494  2.1955
  115MOL   H29843846   4.883   3.012   6.825 -1.3176  0.7282 -0.1022
  115MOL   H29943847   5.053   2.863   6.999  1.0510  0.1356  0.3114
  115MOL   H30043848   5.174   2.788   6.881  1.1105  2.5411 -0.7878
  115MOL   H30143849   5.126   2.956   6.869  0.5967  1.0816  2.1505
  115MOL   H30243850   5.045   2.622   6.769  1.9847  1.9924  1.0013
  115MOL   H30343851   4.851   2.581   6.603  0.6449  0.8916 -2.2281
  115MOL   H30443852   4.659   2.511   6.550 -2.0371 -0.1425 -2.0636
  115MOL   H30543853   4.527   2.572   6.466 -0.1547  1.6280 -1.7870
  115MOL   C30643854   4.488   2.606   6.662  0.9858  0.4848  0.7949
  115MOL   C30743855   4.387   2.718   6.649 -0.3276  0.3227 -0.0613
  115MOL   C30843856   4.268   2.687   6.585  0.2405  0.1647  0.0624
  115MOL   C30943857   4.151   2.771   6.588 -0.0982 -0.8330  0.1012
  115MOL   C31043858   4.167   2.906   6.646 -0.4784 -0.7569 -0.3419
  115MOL   C31143859   4.052   3.004   6.642 -0.1360 -0.3048  0.3184
  115MOL   C31243860   4.289   2.938   6.707 -0.3257  0.6514  0.3393
  115MOL   C31343861   4.400   2.846   6.715 -0.2577 -0.1343 -0.2388
  115MOL   C31443862   4.552   2.619   6.801  0.4292 -0.1013  0.3422
  115MOL   H31543863   4.431   2.514   6.670  1.8881 -0.1253  0.3153
  115MOL   H31643864   4.257   2.603   6.518 -1.1673  0.9445 -0.7187
  115MOL   H31743865   4.061   2.739   6.539 -0.4270 -1.0825  0.8700
  115MOL   H31843866   4.053   3.078   6.722 -1.6828  0.6274 -0.4892
  115MOL   H31943867   4.053   3.068   6.554 -1.0892 -2.0518 -0.9770
  115MOL   H32043868   3.957   2.950   6.642 -0.6241  0.5123 -2.0200
  115MOL   H32143869   4.302   3.035   6.754  0.4025  1.6963 -1.9157
  115MOL   H32243870   4.488   2.869   6.774  0.2689 -0.5122 -0.8797
  115MOL   H32343871   4.473   2.626   6.876 -0.7122  1.0377 -0.9313
  115MOL   H32443872   4.611   2.710   6.813  1.3596 -0.8113  1.2678
  115MOL   C32543873   4.639   2.504   6.850  0.5326 -0.2490  0.3128
  115MOL   C32643874   4.564   2.372   6.860 -0.4195 -0.2084  0.3974
  115MOL   C32743875   4.474   2.349   6.963 -0.5088 -0.3690 -0.0420
  115MOL   C32843876   4.397   2.230   6.970 -0.2306 -0.3354 -0.3855
  115MOL   C32943877   4.426   2.131   6.873 -0.0073 -0.0632  0.1730
  115MOL   C33043878   4.353   1.997   6.873 -0.2910 -0.9065  0.9394
  115MOL   C33143879   4.516   2.154   6.766  0.2623 -0.2551 -0.1941
  115MOL   C33243880   4.585   2.279   6.759 -0.5723 -0.1026 -0.1603
  115MOL   C33343881   4.712   2.535   6.980  0.1453 -0.4948 -0.5596
  115MOL   H33443882   4.708   2.484   6.769  0.8099  0.2638  0.4216
  115MOL   H33543883   4.457   2.417   7.045 -3.3300  1.3161 -1.9409
  115MOL   H33643884   4.317   2.217   7.041 -0.2822  0.1542 -0.3543
  115MOL   H33743885   4.331   1.961   6.974 -0.4030 -0.4745  1.0704
  115MOL   H33843886   4.262   2.009   6.815  0.6885  0.2091 -0.3936
  115MOL   H33943887   4.413   1.917   6.830 -3.0476 -1.7360 -1.5052
  115MOL   H34043888   4.527   2.083   6.686  2.6847 -1.3817  1.0764
  115MOL   H34143889   4.651   2.302   6.676 -0.4239 -0.5125 -0.1543
  115MOL   H34243890   4.646   2.556   7.064 -0.2506 -1.6409 -0.5613
  115MOL   H34343891   4.764   2.628   6.962  0.1831 -0.2208  0.9463
  115MOL   C34443892   4.818   2.432   7.041  0.3422 -0.4602 -0.0115
  115MOL   C34543893   4.910   2.498   7.153 -0.6950  0.0713 -0.4578
  115MOL   C34643894   4.876   2.494   7.290 -0.2031  1.0729  0.2714
  115MOL   C34743895   4.959   2.565   7.379 -0.0365 -0.2517  0.6373
  115MOL   C34843896   5.078   2.627   7.346 -0.3589 -0.0685  0.6279
  115MOL   C34943897   5.169   2.698   7.439 -0.2570  0.3496 -0.7099
  115MOL   C35043898   5.104   2.636   7.209  0.5573  0.0470  0.9225
  115MOL   C35143899   5.021   2.575   7.118  0.3898 -0.3504 -0.2110
  115MOL   C35243900   4.905   2.355   6.932  0.0720  0.6607 -0.5588
  115MOL   H35343901   4.756   2.364   7.100  1.0993 -1.8068 -0.7528
  115MOL   H35443902   4.781   2.454   7.323  0.4426 -0.5376  0.2444
  115MOL   H35543903   4.928   2.561   7.482 -2.8045  0.2320 -0.1311
  115MOL   H35643904   5.249   2.755   7.392 -0.5037 -0.7099 -2.4574
  115MOL   H35743905   5.129   2.768   7.512  1.8706  1.3219 -0.4453
  115MOL   H35843906   5.206   2.614   7.498 -2.0512 -0.5707 -0.8490
  115MOL   H35943907   5.191   2.690   7.174  0.7651 -1.1694 -0.4654
  115MOL   H36043908   5.048   2.588   7.014 -0.8700  0.7358 -0.4124
  115MOL   H36143909   4.939   2.437   6.868 -1.4066  0.9947 -0.9378
  115MOL   H36243910   4.843   2.296   6.865  0.0864  1.1797 -1.0310
  115MOL   C36343911   4.999   2.251   6.992  0.2459 -0.2016  0.5364
  115MOL   C36443912   5.106   2.219   6.887  0.1227  0.0580  0.5664
  115MOL   C36543913   5.071   2.176   6.760  0.3164  0.8418  0.3134
  115MOL   C36643914   5.165   2.147   6.660  0.4845  0.1742  0.2810
  115MOL   C36743915   5.298   2.159   6.696 -0.0907 -0.7160 -0.3369
  115MOL   C36843916   5.402   2.125   6.591 -0.0421  0.3468  0.1537
  115MOL   C36943917   5.332   2.184   6.827  0.4684 -0.4314 -1.1853
  115MOL   C37043918   5.243   2.227   6.922 -0.3676  0.4354 -0.2994
  115MOL   C37143919   4.931   2.129   7.043 -0.5817  0.1275 -0.9822
  115MOL   H37243920   5.062   2.290   7.073  0.0813  0.6992  0.2400
  115MOL   H37343921   4.964   2.177   6.741  0.4448  0.5785 -0.4008
  115MOL   H37443922   5.139   2.130   6.557 -0.5113  0.6879  0.4401
  115MOL   H37543923   5.363   2.146   6.491  2.2655  0.2182 -0.7997
  115MOL   H37643924   5.493   2.185   6.598  1.1635 -1.5191  0.6369
  115MOL   H37743925   5.443   2.027   6.613 -0.6333 -0.0232 -0.3903
  115MOL   H37843926   5.435   2.182   6.857  0.3910 -1.5604 -0.9640
  115MOL   H37943927   5.275   2.247   7.023  0.1231  0.2689 -0.4207
  115MOL   H38043928   5.002   2.053   7.078 -1.9986 -0.5016  0.6509
  115MOL   H38143929   4.866   2.090   6.965 -0.6837  1.1270 -1.3890
  115MOL   H38243930   4.868   2.151   7.129 -1.3414 -1.5229 -1.0865
  116MOL     C143931   0.171   7.916   1.571  0.3991 -0.1355  0.2439
  116MOL     C243932   0.198   7.965   1.713 -0.0611  0.1325  0.4091
  116MOL     C343933   0.330   7.987   1.757  0.0168 -0.6303  0.0967
  116MOL     C443934   0.346   8.022   1.891 -0.0664 -0.0287 -0.4927
  116MOL     C543935   0.236   8.042   1.981  0.0477  0.3704 -0.7999
  116MOL     C643936   0.260   8.076   2.128  0.4791  0.2610  0.4376
  116MOL     C743937   0.106   8.004   1.936 -0.3126 -0.0892 -0.4654
  116MOL     C843938   0.090   7.976   1.803 -0.1989  0.1711 -0.0693
  116MOL     C943939   0.096   8.011   1.485  0.2795  0.0097 -0.8105
  116MOL    H1043940   0.267   7.898   1.523  1.3743  3.6554  0.5605
  116MOL    H1143941   0.418   7.965   1.699 -0.2139  0.2217 -0.5765
  116MOL    H1243942   0.450   8.016   1.922 -0.0806 -0.5958 -0.5561
  116MOL    H1343943   0.205   8.001   2.185  0.3799  1.5284  2.0234
  116MOL    H1443944   0.363   0.010   2.161  0.3892  0.4729  0.6314
  116MOL    H1543945   0.211   0.091   2.149  0.0696  0.5851 -1.7863
  116MOL    H1643946   0.023   7.997   2.005  0.3148 -1.5951  0.1686
  116MOL    H1743947   8.074   7.946   1.764  0.5570 -0.0354 -1.7979
  116MOL    H1843948   0.144   0.029   1.474  1.6705 -0.3155  2.1663
  116MOL    H1943949   0.013   8.042   1.548 -0.7256 -1.1331 -1.5514
  116MOL    H2043950   0.129   7.816   1.573  0.9637 -0.3902 -0.6285
  116MOL    C2143951   0.041   7.953   1.356 -0.6647  0.3251 -0.1694
  116MOL    C2243952   0.153   7.937   1.256  0.5173  0.0572  0.4790
  116MOL    C2343953   0.192   8.047   1.179 -1.0238 -0.1076 -0.3758
  116MOL    C2443954   0.278   8.030   1.065 -0.9290 -1.2706  0.0768
  116MOL    C2543955   0.307   7.901   1.015 -0.6121 -0.1709 -0.7334
  116MOL    C2643956   0.389   7.879   0.894 -0.1562 -0.1279 -0.0388
  116MOL    C2743957   0.263   7.791   1.099 -0.1417 -0.0645 -0.1005
  116MOL    C2843958   0.199   7.810   1.222 -0.2916  0.6229  0.0113
  116MOL    C2943959   7.998   8.038   1.312  0.6126 -0.2077  0.8075
  116MOL    H3043960   0.003   7.852   1.369 -0.1980 -0.0118 -1.3933
  116MOL    H3143961   0.162   0.067   1.206 -0.4126 -0.4964  1.8479
  116MOL    H3243962   0.331   0.027   1.010 -1.2547 -1.1074 -0.0105
  116MOL    H3343963   0.479   7.936   0.916  0.7899 -1.5777 -0.1062
  116MOL    H3443964   0.420   7.777   0.872  0.1176 -0.8458  3.3962
  116MOL    H3543965   0.343   7.921   0.805  1.1230 -0.4503 -0.8594
  116MOL    H3643966   0.279   7.687   1.074 -0.9960  0.1345 -1.4813
  116MOL    H3743967   0.166   7.720   1.271  0.4262 -0.2074 -1.0190
  116MOL    H3843968   7.961   8.002   1.215  0.1997  1.3682  0.3686
  116MOL    H3943969   8.044   0.055   1.292  0.5341 -0.3694 -0.1963
  116MOL    C4043970   7.881   8.051   1.409  0.1845 -0.2152  1.0256
  116MOL    C4143971   7.813   7.916   1.424 -0.0883  0.0061 -0.4054
  116MOL    C4243972   7.759   7.847   1.316  0.3966  0.7022 -0.3020
  116MOL    C4343973   7.706   7.723   1.332  0.1144 -0.3780  0.0711
  116MOL    C4443974   7.702   7.669   1.459 -0.3443  0.8413  0.0390
  116MOL    C4543975   7.646   7.526   1.465  0.2250  0.1314 -0.2436
  116MOL    C4643976   7.745   7.737   1.575 -0.0397  0.0058 -0.2160
  116MOL    C4743977   7.813   7.859   1.554 -0.1646  0.6647 -0.4328
  116MOL    C4843978   7.769   0.070   1.378 -0.1247  0.0802 -0.3436
  116MOL    H4943979   7.911   0.005   1.508  0.6386  0.2603  0.7231
  116MOL    H5043980   7.745   7.895   1.220  0.7031  0.2650 -0.5646
  116MOL    H5143981   7.659   7.670   1.250 -1.9244  1.5243 -0.0312
  116MOL    H5243982   7.584   7.502   1.379  0.1951 -1.3215  0.1675
  116MOL    H5343983   7.734   7.461   1.463 -0.6442 -1.0875  0.5408
  116MOL    H5443984   7.580   7.515   1.552 -0.1128  0.1107 -0.5040
  116MOL    H5543985   7.753   7.690   1.671  0.1881 -0.3413 -0.4042
  116MOL    H5643986   7.852   7.909   1.642  1.5927  0.5249 -1.1153
  116MOL    H5743987   7.675   0.043   1.426  1.5061 -1.0291  2.2971
  116MOL    H5843988   7.754   0.068   1.270 -1.0218 -1.3674 -0.1947
  116MOL    C5943989   7.805   0.217   1.412  0.3202 -0.5089 -0.6496
  116MOL    C6043990   7.794   0.258   1.561 -1.1195  0.8836  0.6117
  116MOL    C6143991   7.676   0.233   1.639 -0.6421 -0.1730 -0.7032
  116MOL    C6243992   7.681   0.269   1.775  0.2134  0.3571 -0.0707
  116MOL    C6343993   7.783   0.343   1.832  0.0984 -0.3306 -0.0127
  116MOL    C6443994   7.777   0.376   1.976 -0.5441  0.0481  0.6716
  116MOL    C6543995   7.901   0.374   1.750 -0.2442 -0.1850  0.0284
  116MOL    C6643996   7.900   0.331   1.615  0.1667 -0.0698  0.3351
  116MOL    C6743997   7.711   0.316   1.327 -0.2958  0.4996  0.1842
  116MOL    H6843998   7.907   0.227   1.376 -0.0762  2.2273 -1.1272
  116MOL    H6943999   7.588   0.196   1.589 -0.1396 -2.3816  0.0168
  116MOL    H7044000   7.596   0.238   1.834 -1.0481  1.9379 -0.9938
  116MOL    H7144001   7.679   0.402   2.017 -0.0413  2.3605  0.4803
  116MOL    H7244002   7.806   0.290   2.037  2.4043  0.8075  0.4113
  116MOL    H7344003   7.851   0.448   2.010 -0.0942  0.0894 -0.4000
  116MOL    H7444004   7.984   0.419   1.803  0.2108 -0.6275 -0.3030
  116MOL    H7544005   7.989   0.355   1.559  0.8064  1.7110  2.0250
  116MOL    H7644006   7.732   0.421   1.348 -1.3587  0.4503  1.5702
  116MOL    H7744007   7.606   0.298   1.349  0.2690  0.1786  2.7025
  116MOL    C7844008   7.726   0.319   1.167 -0.1468  0.2576  0.6140
  116MOL    C7944009   7.861   0.349   1.129  1.0569  0.6533  0.6183
  116MOL    C8044010   7.940   0.250   1.066 -0.3799 -0.1739  0.4152
  116MOL    C8144011   0.001   0.265   1.056 -0.0795 -0.5992  0.3734
  116MOL    C8244012   0.063   0.386   1.094 -0.3433  0.4759 -0.3610
  116MOL    C8344013   0.216   0.387   1.102 -0.4114 -0.4076 -0.6574
  116MOL    C8444014   8.057   0.491   1.148 -0.0307  0.2060  0.3683
  116MOL    C8544015   7.919   0.469   1.164  0.0411 -0.0069 -0.3168
  116MOL    C8644016   7.620   0.403   1.094 -0.1462 -0.0840  0.4242
  116MOL    H8744017   7.716   0.220   1.123 -1.7882 -0.7315  3.0304
  116MOL    H8844018   7.904   0.151   1.043  0.7710 -0.1897 -1.3753
  116MOL    H8944019   0.054   0.177   1.021  0.1409  0.1652 -1.2811
  116MOL    H9044020   0.236   0.384   1.209  3.8620 -0.3495 -1.3575
  116MOL    H9144021   0.269   0.302   1.058 -2.5572 -2.8110  1.3313
  116MOL    H9244022   0.252   0.479   1.055 -0.6112  0.6250  1.1893
  116MOL    H9344023   0.021   0.585   1.178 -2.7433  1.0086  2.0165
  116MOL    H9444024   7.865   0.547   1.215  1.6340  0.0277  1.3792
  116MOL    H9544025   7.644   0.424   0.990 -1.6308  0.6605  0.2183
  116MOL    H9644026   7.621   0.500   1.144  2.0281 -0.0489  0.3621
  116MOL    C9744027   7.476   0.351   1.098 -0.0571 -0.2384  0.3999
  116MOL    C9844028   7.469   0.206   1.058  0.8645 -0.2766 -0.1957
  116MOL    C9944029   7.464   0.110   1.164 -0.2463 -0.4288  0.0827
  116MOL   C10044030   7.472   8.050   1.126  0.5739  0.4507  0.0256
  116MOL   C10144031   7.476   8.012   0.993 -0.3269 -0.5165 -0.0463
  116MOL   C10244032   7.472   7.865   0.965  0.1448  0.3862  0.1240
  116MOL   C10344033   7.475   0.025   0.891 -1.1918 -0.4482  0.0065
  116MOL   C10444034   7.475   0.166   0.923 -0.1514  0.1334 -0.7343
  116MOL   C10544035   7.378   0.439   1.017  0.4493  0.6794 -0.7779
  116MOL   H10644036   7.450   0.365   1.203 -0.5913  0.2115  0.2119
  116MOL   H10744037   7.449   0.126   1.269  0.9862  0.6791  0.0995
  116MOL   H10844038   7.479   7.973   1.202  2.0456  0.6504  0.1116
  116MOL   H10944039   7.389   7.826   0.907  0.0052  0.4704  0.2685
  116MOL   H11044040   7.563   7.839   0.911 -0.2594 -2.8892  0.9005
  116MOL   H11144041   7.482   7.811   1.059  0.4148 -2.2078 -1.3629
  116MOL   H11244042   7.478   0.001   0.786 -0.4606 -1.3916  0.2429
  116MOL   H11344043   7.481   0.242   0.847  0.8142  0.5868 -0.2080
  116MOL   H11444044   7.397   0.440   0.910  2.0377  0.3343 -0.5102
  116MOL   H11544045   7.394   0.539   1.057 -1.1957  0.2900  0.9309
  116MOL   C11644046   7.226   0.395   1.037  0.3467  0.3839  0.0719
  116MOL   C11744047   7.180   0.294   0.923  0.7211  0.0640  0.1784
  116MOL   C11844048   7.107   0.175   0.954  0.1556 -0.5991 -0.1505
  116MOL   C11944049   7.044   0.101   0.850 -0.0727 -1.1885  0.2966
  116MOL   C12044050   7.057   0.138   0.715  0.4677 -0.4253  0.3355
  116MOL   C12144051   6.996   0.056   0.605  0.3302  0.3968  0.5785
  116MOL   C12244052   7.130   0.251   0.686 -0.0268  0.4491 -0.2352
  116MOL   C12344053   7.194   0.327   0.789 -0.2249  0.0732  0.9186
  116MOL   C12444054   7.132   0.514   1.032 -0.2466  0.4386 -0.3222
  116MOL   H12544055   7.223   0.335   1.129 -0.2634 -2.9932 -2.0552
  116MOL   H12644056   7.110   0.125   1.049  1.2795 -0.5992 -0.1786
  116MOL   H12744057   6.993   0.011   0.882 -0.6752 -0.6907  0.7698
  116MOL   H12844058   6.891   0.035   0.626  0.5321 -1.0422  0.2078
  116MOL   H12944059   6.998   0.112   0.512 -0.5584  1.4233  1.1688
  116MOL   H13044060   7.052   8.044   0.585  1.2300  0.7701  1.3409
  116MOL   H13144061   7.146   0.289   0.586  0.3320  1.3358  0.1616
  116MOL   H13244062   7.233   0.426   0.771 -1.7085  0.3756 -0.8380
  116MOL   H13344063   7.033   0.471   1.047  0.1643 -0.3491  0.1820
  116MOL   H13444064   7.130   0.551   0.930 -0.9693 -0.9922 -0.8287
  116MOL   C13544065   7.160   0.631   1.136  0.4919 -0.3046  0.3777
  116MOL   C13644066   7.237   0.612   1.262  0.6133  0.0362  0.0462
  116MOL   C13744067   7.191   0.511   1.347  0.3035 -0.8437  0.4345
  116MOL   C13844068   7.253   0.488   1.473 -0.6745  0.0465 -0.1823
  116MOL   C13944069   7.364   0.565   1.517  0.0396 -0.2780 -0.0732
  116MOL   C14044070   7.422   0.547   1.657 -0.1461  0.0706 -0.4107
  116MOL   C14144071   7.413   0.665   1.428 -0.2631 -0.0890 -0.2269
  116MOL   C14244072   7.348   0.687   1.305  0.3931  0.3647 -0.2628
  116MOL   C14344073   7.024   0.711   1.158  0.0454 -0.0529 -0.0333
  116MOL   H14444074   7.215   0.707   1.080  0.8249 -0.7246  0.1248
  116MOL   H14544075   7.110   0.445   1.321 -0.2343  0.2564 -0.7324
  116MOL   H14644076   7.212   0.423   1.549  1.1165 -1.4590 -0.4870
  116MOL   H14744077   7.367   0.461   1.694 -3.4823  1.7210 -1.3142
  116MOL   H14844078   7.528   0.523   1.666  0.7400  3.5396 -0.8932
  116MOL   H14944079   7.420   0.635   1.721 -1.4854  1.1107 -1.8384
  116MOL   H15044080   7.495   0.728   1.458 -2.0100  3.4391 -2.4953
  116MOL   H15144081   7.384   0.762   1.236  0.6631  1.2781  0.8572
  116MOL   H15244082   7.028   0.777   1.245  2.5884 -0.5584  0.2648
  116MOL   H15344083   6.959   0.629   1.189  2.0513 -0.9982  1.7795
  116MOL   C15444084   6.968   0.798   1.039  0.3373  0.1804 -0.3990
  116MOL   C15544085   7.055   0.924   1.009 -0.3369  0.8044 -0.7119
  116MOL   C15644086   7.091   1.029   1.104  0.6478  0.5728  0.0806
  116MOL   C15744087   7.187   1.126   1.083 -0.3647 -0.3576  0.5660
  116MOL   C15844088   7.257   1.124   0.961  0.1175 -0.2740 -0.7907
  116MOL   C15944089   7.361   1.225   0.924 -0.6375 -0.5084 -0.0935
  116MOL   C16044090   7.216   1.037   0.865  0.1176  0.5074  0.3885
  116MOL   C16144091   7.117   0.937   0.883  0.4801  0.3670 -0.1152
  116MOL   C16244092   6.822   0.840   1.047 -0.2047  0.7532 -0.7851
  116MOL   H16344093   6.970   0.735   0.950  1.9055  0.6436 -0.7141
  116MOL   H16444094   7.054   1.023   1.205 -2.3686  0.5747 -0.9737
  116MOL   H16544095   7.221   1.188   1.165 -1.9691  2.2864 -0.7222
  116MOL   H16644096   7.342   1.281   0.832  2.4446  2.5192  0.9744
  116MOL   H16744097   7.381   1.294   1.006 -1.0940  0.8102 -1.0682
  116MOL   H16844098   7.449   1.165   0.900 -1.0650 -1.3326  0.3754
  116MOL   H16944099   7.271   1.049   0.773 -2.4227 -0.8036 -1.3703
  116MOL   H17044100   7.092   0.866   0.806  1.3045  0.4767 -0.4849
  116MOL   H17144101   6.802   0.913   0.970  1.7420  1.1263 -0.9632
  116MOL   H17244102   6.802   0.889   1.142 -0.7587  0.7111 -0.8816
  116MOL   C17344103   6.708   0.728   1.029 -0.2076 -0.4745  1.0419
  116MOL   C17444104   6.736   0.622   0.922  0.0443 -0.4787 -0.1709
  116MOL   C17544105   6.756   0.484   0.948  0.0333  0.0831  0.0860
  116MOL   C17644106   6.772   0.400   0.838 -0.5092  0.2144  0.2248
  116MOL   C17744107   6.768   0.448   0.702 -0.0907  0.2496  0.1702
  116MOL   C17844108   6.779   0.356   0.580  0.3083  0.2318  0.0087
  116MOL   C17944109   6.744   0.583   0.681  0.2144  0.1610 -0.3511
  116MOL   C18044110   6.743   0.672   0.792 -0.3802  0.0392 -0.2321
  116MOL   C18144111   6.568   0.789   1.013  0.2799  0.5194  0.6197
  116MOL   H18244112   6.702   0.684   1.129  0.6542 -1.3032  0.7363
  116MOL   H18344113   6.748   0.443   1.048  1.8419 -0.0687  0.1918
  116MOL   H18444114   6.777   0.292   0.847 -0.1809  0.1725 -0.4624
  116MOL   H18544115   6.726   0.392   0.492  1.8679  1.5654 -0.4129
  116MOL   H18644116   6.884   0.336   0.559  0.9910  0.2392  3.0567
  116MOL   H18744117   6.720   0.266   0.597  1.4878 -0.8025 -1.2679
  116MOL   H18844118   6.748   0.622   0.581 -0.1894 -2.6930 -1.5159
  116MOL   H18944119   6.727   0.776   0.771  0.7796  0.2069 -0.3220
  116MOL   H19044120   6.557   0.865   0.936 -1.2812 -1.1614 -0.8662
  116MOL   H19144121   6.548   0.835   1.110  0.1812  1.9397 -0.0643
  116MOL   C19244122   6.449   0.691   1.003  0.6336 -0.4488 -0.8264
  116MOL   C19344123   6.423   0.638   0.861  0.4317 -0.3595 -0.0927
  116MOL   C19444124   6.434   0.500   0.837 -0.3502  0.1300 -0.0841
  116MOL   C19544125   6.421   0.449   0.707 -0.5979 -0.3345  0.0645
  116MOL   C19644126   6.381   0.536   0.608 -0.0197 -0.9324  0.3797
  116MOL   C19744127   6.369   0.476   0.471  0.1147 -0.3929  0.6065
  116MOL   C19844128   6.354   0.672   0.630 -0.0646  0.0804  0.0413
  116MOL   C19944129   6.378   0.721   0.755  0.1943 -0.3027  0.5205
  116MOL   C20044130   6.317   0.763   1.062 -0.6941  0.4613 -0.0939
  116MOL   H20144131   6.478   0.604   1.061  1.2394  1.2931  1.6002
  116MOL   H20244132   6.451   0.433   0.921  1.3212 -1.4743 -1.6459
  116MOL   H20344133   6.439   0.348   0.674 -0.1416 -0.5817  1.0444
  116MOL   H20444134   6.345   0.543   0.388 -1.0928 -0.3300  0.9925
  116MOL   H20544135   6.466   0.431   0.451 -0.3244 -1.9418  1.8515
  116MOL   H20644136   6.303   0.390   0.475  1.7726 -1.6682  1.2043
  116MOL   H20744137   6.321   0.733   0.547  0.0344  1.1428  0.7877
  116MOL   H20844138   6.345   0.823   0.773  0.7665  0.2364 -1.4084
  116MOL   H20944139   6.296   0.839   0.987 -1.9820  0.4776  0.2683
  116MOL   H21044140   6.348   0.798   1.161 -1.1792  0.0524  0.2048
  116MOL   C21144141   6.188   0.679   1.085 -0.4515  0.6018  0.0663
  116MOL   C21244142   6.097   0.676   0.963  0.2237  0.1283 -0.6202
  116MOL   C21344143   6.018   0.788   0.932  0.3301 -0.1304  0.0128
  116MOL   C21444144   5.930   0.792   0.815 -0.2796  1.1284  0.2465
  116MOL   C21544145   5.939   0.679   0.725 -0.3419 -0.8679  0.1948
  116MOL   C21644146   5.868   0.692   0.588  0.6966  0.6171 -0.1259
  116MOL   C21744147   6.014   0.568   0.757 -0.2023  0.0271  0.1132
  116MOL   C21844148   6.095   0.565   0.873 -0.1846  0.0107  0.0272
  116MOL   C21944149   6.107   0.704   1.209 -0.2250  0.7224 -0.0429
  116MOL   H22044150   6.226   0.576   1.086 -1.0120  0.3703 -1.3885
  116MOL   H22144151   6.039   0.872   0.996  0.0207 -0.4320  0.5133
  116MOL   H22244152   5.866   0.877   0.793 -1.1074  0.3753 -0.2936
  116MOL   H22344153   5.930   0.748   0.517 -2.5237  1.5988 -2.3133
  116MOL   H22444154   5.834   0.593   0.558 -0.0597  0.8004  0.1033
  116MOL   H22544155   5.781   0.755   0.610 -1.0226 -0.5854 -3.1335
  116MOL   H22644156   6.012   0.484   0.689  3.3612 -0.7580  0.8724
  116MOL   H22744157   6.162   0.489   0.909 -1.4664 -0.6335  1.1067
  116MOL   H22844158   6.002   0.687   1.186  0.3786 -2.3237 -0.7317
  116MOL   H22944159   6.116   0.811   1.229 -0.5131  0.5535  1.0766
  116MOL   C23044160   6.166   0.631   1.335 -0.4471 -0.3028  0.0191
  116MOL   C23144161   6.129   0.484   1.337  0.5335 -0.3953 -0.5301
  116MOL   C23244162   6.012   0.436   1.275 -0.4786  0.1136  0.4363
  116MOL   C23344163   5.982   0.301   1.282 -0.2340  0.3187  0.8305
  116MOL   C23444164   6.063   0.210   1.357 -0.1160 -0.0188 -0.3167
  116MOL   C23544165   6.032   0.056   1.359  0.2077  0.0678  0.6248
  116MOL   C23644166   6.178   0.254   1.426  0.1323 -0.3816 -0.7437
  116MOL   C23744167   6.205   0.393   1.413 -0.0582  0.4636 -0.1833
  116MOL   C23844168   6.106   0.699   1.458 -0.3438 -0.1802  0.3051
  116MOL   H23944169   6.275   0.625   1.326 -0.4661 -0.0424 -0.4136
  116MOL   H24044170   5.943   0.493   1.215 -0.0167  1.8123  1.4951
  116MOL   H24144171   5.897   0.259   1.230  1.2463 -0.7879 -0.7568
  116MOL   H24244172   6.101   0.000   1.297  0.2794 -0.6675  1.3508
  116MOL   H24344173   6.028   0.018   1.461 -2.7517  0.4789  0.7082
  116MOL   H24444174   5.931   0.030   1.328 -0.1994  0.7374  1.3701
  116MOL   H24544175   6.243   0.189   1.483 -1.4678 -0.6601  0.7985
  116MOL   H24644176   6.290   0.428   1.469  0.8241 -0.4398 -0.9365
  116MOL   H24744177   6.117   0.625   1.538 -2.5090 -0.4794  0.3595
  116MOL   H24844178   5.999   0.721   1.450 -0.6804 -1.2208  1.7034
  116MOL   C24944179   6.177   0.824   1.519 -0.1680  0.2122 -0.2584
  116MOL   C25044180   6.333   0.820   1.531  0.1212  0.0291  1.2183
  116MOL   C25144181   6.407   0.714   1.590  0.7379  0.0834 -0.5854
  116MOL   C25244182   6.550   0.712   1.588 -0.1455 -0.3932 -0.1547
  116MOL   C25344183   6.620   0.827   1.540  0.1178  0.4113 -0.3815
  116MOL   C25444184   6.770   0.818   1.533  0.8408  0.2007  0.2850
  116MOL   C25544185   6.548   0.929   1.475  0.0471 -0.2387 -0.1455
  116MOL   C25644186   6.404   0.920   1.463 -0.1896  0.0556  0.6879
  116MOL   C25744187   6.113   0.853   1.661  0.1598 -0.2485 -0.1043
  116MOL   H25844188   6.159   0.900   1.443  1.2468 -0.7576 -1.6026
  116MOL   H25944189   6.355   0.631   1.635 -1.3286  1.2108 -0.8303
  116MOL   H26044190   6.598   0.628   1.636 -1.8115 -1.4119 -0.2347
  116MOL   H26144191   6.800   0.771   1.627  1.2126 -0.2303 -0.0463
  116MOL   H26244192   6.816   0.749   1.463 -0.1710 -0.7327  0.5131
  116MOL   H26344193   6.805   0.920   1.528  0.4958  0.3087  0.0272
  116MOL   H26444194   6.599   1.011   1.427 -2.0068  0.4160 -1.2761
  116MOL   H26544195   6.345   0.998   1.416  0.6173 -0.1623 -0.7116
  116MOL   H26644196   6.115   0.765   1.726  3.0089  0.6585  1.1086
  116MOL   H26744197   6.009   0.875   1.634  0.3982  0.2867 -0.5794
  116MOL   C26844198   6.172   0.962   1.751  0.1216 -0.3385  0.2909
  116MOL   C26944199   6.095   0.947   1.893 -0.1636 -0.2825 -0.2919
  116MOL   C27044200   5.952   0.942   1.906 -0.9631 -0.5258 -0.4285
  116MOL   C27144201   5.891   0.926   2.039 -0.0620  0.0819  0.6742
  116MOL   C27244202   5.973   0.920   2.152 -0.3759 -0.1399  0.2976
  116MOL   C27344203   5.912   0.897   2.290  0.0861 -0.3285 -0.0856
  116MOL   C27444204   6.115   0.927   2.139  0.2297  0.0077  0.9276
  116MOL   C27544205   6.175   0.941   2.012  0.4045 -0.0548 -0.1426
  116MOL   C27644206   6.167   1.107   1.682  0.3747 -0.4235 -0.2011
  116MOL   H27744207   6.278   0.948   1.775 -0.1703 -2.5112  0.4092
  116MOL   H27844208   5.884   0.953   1.823 -1.9105 -0.1368  0.3834
  116MOL   H27944209   5.785   0.921   2.058  0.0264  0.5795  1.3318
  116MOL   H28044210   5.873   0.796   2.303  0.4045 -0.3208  0.9356
  116MOL   H28144211   5.985   0.922   2.367 -0.5043 -0.2744  0.4521
  116MOL   H28244212   5.831   0.966   2.313 -1.5144 -1.6329 -1.6219
  116MOL   H28344213   6.180   0.924   2.225  0.6980 -2.1511  0.5311
  116MOL   H28444214   6.283   0.943   2.010  0.4293  0.7220  1.1975
  116MOL   H28544215   6.062   1.138   1.676  0.9510  1.8354  0.9066
  116MOL   H28644216   6.200   1.101   1.578  2.7071  2.7284  0.3009
  116MOL   C28744217   6.258   1.220   1.747 -0.4887  0.0449 -0.4738
  116MOL   C28844218   6.200   1.356   1.724 -0.0201 -0.2294  0.9342
  116MOL   C28944219   6.158   1.435   1.835  0.6494  0.2131  0.2561
  116MOL   C29044220   6.110   1.563   1.808 -0.4474 -0.6588 -0.3260
  116MOL   C29144221   6.096   1.612   1.678 -0.2749  0.1845 -0.1420
  116MOL   C29244222   6.068   1.758   1.653  0.7506  0.0743 -0.3700
  116MOL   C29344223   6.115   1.531   1.564 -0.3364  0.5158  0.3158
  116MOL   C29444224   6.171   1.403   1.590  0.7174 -1.0660 -1.0610
  116MOL   C29544225   6.412   1.208   1.701  0.2683 -0.0912 -0.2236
  116MOL   H29644226   6.265   1.198   1.854 -2.5130  1.2387 -0.0589
  116MOL   H29744227   6.187   1.408   1.935  2.5688 -0.8661 -0.5607
  116MOL   H29844228   6.106   1.641   1.883  0.3786  1.0821 -2.0148
  116MOL   H29944229   6.122   1.829   1.715  0.8738 -0.5484  0.2408
  116MOL   H30044230   6.077   1.779   1.546 -1.7329 -1.8916 -1.0149
  116MOL   H30144231   5.961   1.767   1.668  0.1648 -2.5904 -2.3678
  116MOL   H30244232   6.103   1.575   1.466  1.3365  0.3548  0.0273
  116MOL   H30344233   6.199   1.348   1.501 -0.1415 -1.5401 -1.0399
  116MOL   H30444234   6.419   1.225   1.594  0.0808 -3.0656 -0.7467
  116MOL   H30544235   6.456   1.109   1.715 -0.5609 -0.0424  3.1345
  116MOL   C30644236   6.507   1.300   1.774  0.3910 -0.2141  0.1077
  116MOL   C30744237   6.624   1.326   1.687  0.5685  0.4740 -0.1478
  116MOL   C30844238   6.655   1.458   1.656 -0.0647  0.3091 -0.2339
  116MOL   C30944239   6.776   1.484   1.580  0.2947 -0.7358  0.3755
  116MOL   C31044240   6.857   1.380   1.525  0.4561  0.1673 -0.0689
  116MOL   C31144241   6.963   1.395   1.419  0.1582  0.6357  0.0943
  116MOL   C31244242   6.830   1.251   1.573 -0.4064 -0.1616 -0.3203
  116MOL   C31344243   6.711   1.219   1.646  0.4055 -0.0851 -0.7869
  116MOL   C31444244   6.545   1.245   1.916  0.2531  0.2899 -0.4528
  116MOL   H31544245   6.446   1.390   1.789 -0.7643 -0.8531 -0.7111
  116MOL   H31644246   6.589   1.538   1.685  0.5767  0.1374  1.7248
  116MOL   H31744247   6.785   1.588   1.554 -0.7388 -0.8296 -0.4066
  116MOL   H31844248   6.988   1.293   1.388 -0.6484  0.4687 -0.0061
  116MOL   H31944249   6.919   1.461   1.345 -1.3915  0.9037  1.2298
  116MOL   H32044250   7.054   1.437   1.461  0.6078 -0.8434  0.6360
  116MOL   H32144251   6.896   1.167   1.555 -0.2897 -0.6448  2.1110
  116MOL   H32244252   6.697   1.119   1.685  0.6349  0.0110 -0.4543
  116MOL   H32344253   6.579   1.142   1.913 -0.9484 -0.1828  1.5682
  116MOL   H32444254   6.455   1.242   1.977  1.3257 -3.4924  1.0539
  116MOL   C32544255   6.636   1.337   1.995 -0.1087  0.0704 -0.2477
  116MOL   C32644256   6.710   1.250   2.100  0.0438 -0.1031  0.0067
  116MOL   C32744257   6.654   1.215   2.225  0.5343  0.0374 -0.4482
  116MOL   C32844258   6.727   1.146   2.322 -0.6059 -0.0605  0.2254
  116MOL   C32944259   6.858   1.100   2.300  0.3986  0.0053  0.3875
  116MOL   C33044260   6.937   1.025   2.407  0.2980 -0.1497  0.6540
  116MOL   C33144261   6.919   1.130   2.176  0.0287  0.2732 -0.2671
  116MOL   C33244262   6.839   1.198   2.076  0.1992 -0.0558 -0.5214
  116MOL   C33344263   6.567   1.463   2.057  0.3699  0.3924  0.4648
  116MOL   H33444264   6.723   1.364   1.935 -0.9055  0.7196 -1.1416
  116MOL   H33544265   6.552   1.247   2.241  0.1639 -0.2230 -2.1873
  116MOL   H33644266   6.686   1.126   2.421  1.9707 -1.5707  1.0321
  116MOL   H33744267   6.992   1.095   2.470  2.8120 -1.6814  0.2033
  116MOL   H33844268   6.869   0.963   2.466  0.5198 -0.7087  0.3210
  116MOL   H33944269   7.012   0.962   2.359 -0.8442 -2.2460  1.5336
  116MOL   H34044270   7.022   1.098   2.170  0.1005  0.8580 -2.4751
  116MOL   H34144271   6.876   1.213   1.975 -0.0543  0.5149 -0.5357
  116MOL   H34244272   6.501   1.419   2.132 -1.0321  2.1445  0.3028
  116MOL   H34344273   6.505   1.517   1.985  0.5113 -0.1870 -0.0994
  116MOL   C34444274   6.664   1.564   2.114 -0.8439  0.9373  0.6411
  116MOL   C34544275   6.597   1.635   2.230 -0.9183 -0.0769 -0.0552
  116MOL   C34644276   6.646   1.605   2.362  0.2972 -0.1501  0.5796
  116MOL   C34744277   6.610   1.691   2.472 -0.6050 -0.3793  1.0238
  116MOL   C34844278   6.522   1.790   2.454  0.3485  0.1228 -0.2135
  116MOL   C34944279   6.485   1.878   2.569 -0.4456 -0.1687 -0.4516
  116MOL   C35044280   6.461   1.810   2.329 -0.0737  0.6436 -0.2193
  116MOL   C35144281   6.499   1.738   2.216 -0.4416  0.4626 -0.1429
  116MOL   C35244282   6.701   1.661   1.999 -0.4451 -0.2687  0.0213
  116MOL   H35344283   6.755   1.510   2.140 -1.8733 -0.1861  1.9378
  116MOL   H35444284   6.725   1.532   2.373 -0.2170 -0.6109  1.1900
  116MOL   H35544285   6.652   1.663   2.568  0.2969  0.7713  0.9800
  116MOL   H35644286   6.412   1.949   2.530  1.3357  0.8883 -1.9378
  116MOL   H35744287   6.440   1.823   2.652 -1.5823 -1.1198 -1.6636
  116MOL   H35844288   6.577   1.931   2.595  0.3351 -1.3486 -0.7759
  116MOL   H35944289   6.391   1.892   2.318  0.4484  1.1192 -0.0475
  116MOL   H36044290   6.460   1.760   2.118  0.3740  0.4312 -0.4779
  116MOL   H36144291   6.604   1.699   1.966 -0.2864  0.2855  0.1939
  116MOL   H36244292   6.732   1.606   1.910 -0.8740  0.0081 -0.2985
  116MOL   C36344293   6.799   1.784   2.021  0.4384  0.6768 -0.2118
  116MOL   C36444294   6.782   1.876   1.901 -0.6486 -1.2255  0.3263
  116MOL   C36544295   6.750   2.011   1.928  0.7371 -0.1642  0.6309
  116MOL   C36644296   6.720   2.103   1.827 -0.2884 -0.1772  0.3181
  116MOL   C36744297   6.732   2.068   1.688 -0.3495 -0.1051 -0.3826
  116MOL   C36844298   6.702   2.166   1.577 -0.3291 -0.3075 -0.7543
  116MOL   C36944299   6.773   1.941   1.656 -0.3095 -0.4544  0.2227
  116MOL   C37044300   6.788   1.842   1.760 -0.7308  0.2815 -0.2480
  116MOL   C37144301   6.941   1.728   2.024 -1.1604 -0.5104  0.1187
  116MOL   H37244302   6.771   1.824   2.118  1.4914 -0.3245  0.5190
  116MOL   H37344303   6.748   2.036   2.033 -2.1217 -1.0304  0.8277
  116MOL   H37444304   6.694   2.202   1.862  0.6840  0.3377 -0.3959
  116MOL   H37544305   6.603   2.202   1.606 -0.7780 -1.4337 -0.8792
  116MOL   H37644306   6.773   2.249   1.580 -0.6457 -0.0756  1.2075
  116MOL   H37744307   6.694   2.120   1.479  1.7003 -0.0527 -1.0675
  116MOL   H37844308   6.784   1.915   1.552  2.8416  3.5183 -0.5312
  116MOL   H37944309   6.802   1.737   1.742  1.7911  0.9611 -2.4148
  116MOL   H38044310   7.018   1.804   2.040 -0.6628 -0.8546 -0.6132
  116MOL   H38144311   6.967   1.674   1.933 -0.1261  0.2612 -0.0595
  116MOL   H38244312   6.937   1.654   2.103 -0.1914 -0.5952  0.0846
  117MOL     C144313   0.063   4.267   0.840  0.6305 -0.1819  0.1439
  117MOL     C244314   0.037   4.129   0.770 -0.4491  0.0689 -0.3003
  117MOL     C344315   8.068   4.126   0.642 -0.5387  0.3880  0.0407
  117MOL     C444316   8.047   4.000   0.578 -0.8370  0.8415  0.6712
  117MOL     C544317   8.063   3.879   0.653  0.8540 -0.5158  0.3389
  117MOL     C644318   8.028   3.749   0.584 -0.0248  0.9347  0.7696
  117MOL     C744319   0.022   3.879   0.784  0.2469 -0.7471  1.1295
  117MOL     C844320   0.052   4.008   0.841 -0.0168  0.1065 -0.7510
  117MOL     C944321   0.096   4.262   0.993 -0.4229 -0.3532 -0.1478
  117MOL    H1044322   0.140   4.326   0.791  0.9572 -0.3842  0.4116
  117MOL    H1144323   8.058   4.212   0.578 -0.2374 -0.3298 -0.9849
  117MOL    H1244324   8.032   4.001   0.471  0.7972  0.7596  0.4396
  117MOL    H1344325   0.023   3.712   0.514  0.1055  0.1100  1.3407
  117MOL    H1444326   8.020   3.659   0.645  1.8325  0.3385  0.1835
  117MOL    H1544327   7.927   3.754   0.545 -0.0611 -2.3888  0.2948
  117MOL    H1644328   0.039   3.791   0.844 -0.4944 -0.9985  0.9742
  117MOL    H1744329   0.088   4.007   0.943  0.3015  1.3140 -0.8459
  117MOL    H1844330   0.195   4.220   1.011 -0.2826 -1.5534 -3.4042
  117MOL    H1944331   0.018   4.201   1.037 -1.4162  2.2051  1.7557
  117MOL    H2044332   8.044   4.313   0.839  0.8218  0.2218 -0.6256
  117MOL    C2144333   0.084   4.409   1.047  0.0636 -0.6511  0.4265
  117MOL    C2244334   0.187   4.505   0.985 -0.3760  0.0568 -0.4470
  117MOL    C2344335   0.323   4.468   0.988 -0.1975 -0.9304  0.1093
  117MOL    C2444336   0.417   4.547   0.915 -0.7507  0.0084  0.4512
  117MOL    C2544337   0.374   4.652   0.831 -0.6487 -0.0414 -0.0032
  117MOL    C2644338   0.476   4.716   0.743 -0.4026 -0.1178 -0.2590
  117MOL    C2744339   0.236   4.687   0.838 -0.0529 -0.3839  0.7138
  117MOL    C2844340   0.141   4.618   0.911 -0.5446 -1.1364 -0.2675
  117MOL    C2944341   0.086   4.419   1.200 -0.1879 -0.1001  0.5537
  117MOL    H3044342   8.073   4.453   1.007 -0.1492 -2.2102 -0.8276
  117MOL    H3144343   0.359   4.395   1.058  1.0208  0.2714  0.7841
  117MOL    H3244344   0.515   4.503   0.909 -0.2738  1.1475 -0.2270
  117MOL    H3344345   0.490   4.815   0.786 -2.3207  0.6456 -1.3182
  117MOL    H3444346   0.571   4.662   0.741 -0.0191  0.2465  3.7984
  117MOL    H3544347   0.442   4.731   0.640 -3.1292 -2.7129  0.1978
  117MOL    H3644348   0.206   4.768   0.773  2.5884 -0.3337 -0.4761
  117MOL    H3744349   0.036   4.639   0.897 -0.0000  1.8650 -0.1681
  117MOL    H3844350   0.165   4.489   1.228  2.4730 -2.4542 -0.7660
  117MOL    H3944351   0.104   4.318   1.237 -0.1558 -0.3732 -0.2000
  117MOL    C4044352   8.031   4.463   1.257  0.5709  0.2246  0.6691
  117MOL    C4144353   7.996   4.611   1.216  0.1256  0.6893 -0.3246
  117MOL    C4244354   7.885   4.626   1.131  0.2009 -0.7386  0.5996
  117MOL    C4344355   7.861   4.752   1.075 -0.0305 -0.3643  0.0128
  117MOL    C4444356   7.948   4.861   1.103  0.1243  1.0677  0.2901
  117MOL    C4544357   7.916   4.996   1.044 -0.3178 -0.8047  0.1013
  117MOL    C4644358   8.066   4.838   1.183 -0.2028 -0.1618  0.8582
  117MOL    C4744359   0.006   4.713   1.242  0.5333 -0.0260 -0.2583
  117MOL    C4844360   8.024   4.456   1.411  0.0002 -0.1361  0.2326
  117MOL    H4944361   7.963   4.389   1.215  0.0211 -1.1065  3.8067
  117MOL    H5044362   7.824   4.543   1.099 -1.9387  0.8867  0.2961
  117MOL    H5144363   7.773   4.752   1.012 -0.0564 -3.1418 -0.0232
  117MOL    H5244364   7.903   5.065   1.127  2.1501 -1.4321  1.0488
  117MOL    H5344365   8.000   5.028   0.982 -1.0808  0.6341 -0.2112
  117MOL    H5444366   7.830   4.994   0.977 -0.9707 -0.8979  0.9349
  117MOL    H5544367   0.048   4.925   1.199  1.4633 -1.3721  1.0655
  117MOL    H5644368   0.099   4.701   1.295 -1.8843  2.3797  4.8649
  117MOL    H5744369   7.918   4.469   1.436  0.1387 -1.3632  1.5255
  117MOL    H5844370   8.073   4.549   1.438  0.6687 -0.6555  0.8173
  117MOL    C5944371   8.074   4.333   1.494  0.4350 -0.1273  0.1835
  117MOL    C6044372   8.022   4.195   1.439 -0.6248  0.1903  0.5404
  117MOL    C6144373   7.889   4.173   1.410  0.1756  0.5075  0.6311
  117MOL    C6244374   7.844   4.060   1.340  0.1815  0.0843 -0.3648
  117MOL    C6344375   7.945   3.975   1.285 -0.6221  0.7234 -0.1954
  117MOL    C6444376   7.898   3.863   1.191 -0.9468  0.8866 -0.1271
  117MOL    C6544377   0.000   3.992   1.323 -0.7144 -0.1350 -0.4226
  117MOL    C6644378   0.040   4.093   1.408 -0.6919 -0.0210  0.1070
  117MOL    C6744379   8.048   4.333   1.649 -0.3477 -0.3817  0.1309
  117MOL    H6844380   0.102   4.328   1.479  0.1779  0.1025 -1.9930
  117MOL    H6944381   7.809   4.237   1.444 -0.4105 -0.2092  0.6277
  117MOL    H7044382   7.740   4.032   1.331  0.7815 -1.6415 -2.4468
  117MOL    H7144383   7.971   3.835   1.115 -0.9663  1.4740 -0.3684
  117MOL    H7244384   7.881   3.765   1.234 -2.7832  0.6057 -1.4158
  117MOL    H7344385   7.807   3.872   1.131  0.5674  2.1535 -2.3078
  117MOL    H7444386   0.070   3.915   1.293  1.2839  1.1596  0.8258
  117MOL    H7544387   0.146   4.095   1.423 -0.7115  0.7529  0.1514
  117MOL    H7644388   7.947   4.297   1.668 -1.5299  0.0540 -4.7443
  117MOL    H7744389   8.039   4.434   1.689  0.8744  0.1080 -0.7973
  117MOL    C7844390   0.079   4.262   1.737 -0.1627 -0.1557  0.2958
  117MOL    C7944391   0.018   4.197   1.858 -0.6503  0.4415 -0.3545
  117MOL    C8044392   8.032   4.275   1.955  1.0542 -0.0005  0.6303
  117MOL    C8144393   7.978   4.214   2.065  0.3459 -0.5605  0.0296
  117MOL    C8244394   7.956   4.076   2.069  0.4215  0.5135  0.1608
  117MOL    C8344395   7.887   4.013   2.190 -0.3254  0.1513  0.5898
  117MOL    C8444396   8.007   3.994   1.969 -0.1322  0.4128 -0.4342
  117MOL    C8544397   0.013   4.054   1.871 -0.2794 -0.1307 -0.3443
  117MOL    C8644398   0.183   4.371   1.781 -0.6943 -0.0844 -0.1656
  117MOL    H8744399   0.113   4.186   1.668  1.9529 -0.2439  1.4050
  117MOL    H8844400   8.039   4.382   1.943 -2.5577  0.1142 -0.9550
  117MOL    H8944401   7.935   4.271   2.146 -1.5250  1.0983 -2.0649
  117MOL    H9044402   7.964   3.991   2.264  2.6182  0.5249 -2.2341
  117MOL    H9144403   7.810   4.069   2.243  0.2276  1.8423 -0.3751
  117MOL    H9244404   7.841   3.917   2.165 -3.1344  1.4194  0.7313
  117MOL    H9344405   7.999   3.886   1.964 -0.9101  0.5352 -2.3755
  117MOL    H9444406   0.063   3.988   1.803 -0.2066  2.6247 -3.0742
  117MOL    H9544407   0.238   4.329   1.866  2.6642  4.7387  0.2581
  117MOL    H9644408   0.135   4.460   1.820 -0.2403  0.5964 -1.1582
  117MOL    C9744409   0.292   4.404   1.673  0.4614 -0.5585 -0.1088
  117MOL    C9844410   0.376   4.285   1.616 -0.2304 -0.3598 -0.0332
  117MOL    C9944411   0.406   4.270   1.482  0.0073  0.2202 -0.5476
  117MOL   C10044412   0.512   4.176   1.448  0.8469  0.2125  0.6829
  117MOL   C10144413   0.571   4.091   1.550  0.2240 -0.3946 -0.5565
  117MOL   C10244414   0.680   3.983   1.524 -0.2497  0.2415 -0.1290
  117MOL   C10344415   0.538   4.116   1.684 -0.2577  1.1102 -0.1408
  117MOL   C10444416   0.444   4.214   1.715 -0.0913 -0.5322  0.7786
  117MOL   C10544417   0.373   4.523   1.725 -0.9564  0.7304  0.1187
  117MOL   H10644418   0.229   4.450   1.596  1.9429  0.8889 -0.4948
  117MOL   H10744419   0.361   4.334   1.408  0.6288  0.0776 -1.0497
  117MOL   H10844420   0.533   4.173   1.342 -0.6046  0.6924  0.3587
  117MOL   H10944421   0.706   3.932   1.617  0.5443 -1.0106 -1.0186
  117MOL   H11044422   0.635   3.911   1.456 -0.1112 -0.3342  0.3832
  117MOL   H11144423   0.775   4.021   1.485 -0.7142 -0.7296 -2.2195
  117MOL   H11244424   0.588   4.056   1.759 -0.8072 -1.8045 -1.9929
  117MOL   H11344425   0.424   4.238   1.818 -0.7654  0.2887  0.4659
  117MOL   H11444426   0.415   4.503   1.823  1.5286  0.5249 -0.9516
  117MOL   H11544427   0.313   4.614   1.725  0.8171  1.9327 -0.8978
  117MOL   C11644428   0.490   4.557   1.640  0.0450 -0.3320  0.3145
  117MOL   C11744429   0.586   4.646   1.714 -0.8081 -0.7115  0.8860
  117MOL   C11844430   0.533   4.773   1.768  0.2003  0.0627  0.2074
  117MOL   C11944431   0.617   4.864   1.833 -0.8365  0.2980 -0.0929
  117MOL   C12044432   0.755   4.827   1.857  0.4986  0.4660  0.0735
  117MOL   C12144433   0.847   4.912   1.942  0.4697 -0.7918  0.9033
  117MOL   C12244434   0.807   4.708   1.794 -0.0016 -0.2143 -0.0319
  117MOL   C12344435   0.718   4.622   1.733 -1.2225  0.4008 -0.0605
  117MOL   C12444436   0.451   4.626   1.504  0.4793  0.4399  0.4883
  117MOL   H12544437   0.549   4.469   1.613  1.6251  0.5127  0.9859
  117MOL   H12644438   0.434   4.809   1.744  0.3236  0.0977 -0.2613
  117MOL   H12744439   0.568   4.948   1.879 -2.1322 -0.2733 -0.4145
  117MOL   H12844440   0.946   4.872   1.924  0.4823 -0.1935 -0.4041
  117MOL   H12944441   0.844   5.017   1.913  0.3768 -0.6865  1.2881
  117MOL   H13044442   0.816   4.908   2.047 -2.3763 -1.4615  0.0912
  117MOL   H13144443   0.909   4.678   1.811  1.6620  3.8966 -2.0239
  117MOL   H13244444   0.756   4.532   1.687  0.9364  1.5331 -0.5438
  117MOL   H13344445   0.395   4.714   1.535 -0.4603  0.4361 -1.1838
  117MOL   H13444446   0.394   4.557   1.443  2.6446 -0.6092 -0.4254
  117MOL   C13544447   0.566   4.660   1.410  0.2027 -0.5103 -0.3934
  117MOL   C13644448   0.519   4.759   1.304  0.6364 -0.3722 -0.4302
  117MOL   C13744449   0.394   4.737   1.236  0.0992  0.2616 -0.1789
  117MOL   C13844450   0.357   4.833   1.141 -0.6662  0.3207  0.4396
  117MOL   C13944451   0.428   4.951   1.125 -0.2269 -0.3593 -0.2497
  117MOL   C14044452   0.368   5.060   1.029  0.2450  0.4266  0.2100
  117MOL   C14144453   0.546   4.974   1.202 -0.0661 -0.2374 -0.4257
  117MOL   C14244454   0.594   4.878   1.291  0.0549  0.5810 -1.2370
  117MOL   C14344455   0.619   4.531   1.346 -0.4883  0.1885  0.9825
  117MOL   H14444456   0.646   4.713   1.461 -0.8473 -0.6946  1.4806
  117MOL   H14544457   0.340   4.643   1.241  2.1516 -0.9467 -0.1638
  117MOL   H14644458   0.277   4.805   1.074 -0.3206 -3.0701  1.3148
  117MOL   H14744459   0.260   5.049   1.023  0.2802  1.0901 -2.0742
  117MOL   H14844460   0.384   5.163   1.059  0.6324  0.2549  0.6013
  117MOL   H14944461   0.412   5.044   0.930  0.2475  2.0074 -0.0615
  117MOL   H15044462   0.597   5.069   1.195 -1.2907  0.5467  1.0082
  117MOL   H15144463   0.688   4.888   1.342  0.8659  1.3636 -2.8556
  117MOL   H15244464   0.543   4.472   1.295  0.8809 -0.1787 -0.6668
  117MOL   H15344465   0.653   4.470   1.431 -0.0466 -0.1774  0.5478
  117MOL   C15444466   0.746   4.545   1.254 -0.2368  0.9369  0.0375
  117MOL   C15544467   0.755   4.411   1.175 -0.3767 -0.3979 -0.7032
  117MOL   C15644468   0.756   4.404   1.039  0.4465  0.6259  0.6995
  117MOL   C15744469   0.770   4.284   0.970 -0.7812 -0.2263 -0.0976
  117MOL   C15844470   0.794   4.164   1.042 -0.3961 -0.1473 -1.2970
  117MOL   C15944471   0.825   4.038   0.967  0.6626 -0.1728 -0.8533
  117MOL   C16044472   0.801   4.166   1.185  0.1744 -0.1284 -0.2279
  117MOL   C16144473   0.781   4.293   1.246  0.6268 -0.0500  0.7389
  117MOL   C16244474   0.870   4.580   1.342 -0.4300  0.3543  0.7527
  117MOL   H16344475   0.732   4.616   1.172  0.6945  2.0515  0.8264
  117MOL   H16444476   0.735   4.491   0.978 -1.1788 -0.8935 -0.9712
  117MOL   H16544477   0.766   4.290   0.862  1.9619 -0.2663 -0.2393
  117MOL   H16644478   0.746   4.022   0.893 -1.0307  1.7294  0.4888
  117MOL   H16744479   0.919   4.052   0.915  0.5307 -0.7726 -1.2498
  117MOL   H16844480   0.833   3.955   1.037  0.5757 -0.6175 -1.3723
  117MOL   H16944481   0.820   4.074   1.239  1.1483 -0.6746 -1.4775
  117MOL   H17044482   0.781   4.274   1.353 -0.4387 -0.7688  0.6176
  117MOL   H17144483   0.901   4.492   1.398  0.4686  0.3064  0.1917
  117MOL   H17244484   0.856   4.660   1.414 -0.4056  0.1185  1.0188
  117MOL   C17344485   0.983   4.615   1.244 -0.1170  0.2448  0.2018
  117MOL   C17444486   1.129   4.619   1.305  0.3597  0.1702  0.6821
  117MOL   C17544487   1.169   4.717   1.400 -0.4267 -0.2205 -0.1413
  117MOL   C17644488   1.305   4.729   1.447  0.5101  0.0310 -0.3246
  117MOL   C17744489   1.401   4.640   1.393  0.5401 -0.2745 -0.1233
  117MOL   C17844490   1.549   4.664   1.426 -0.6013 -0.3134  0.4263
  117MOL   C17944491   1.362   4.549   1.291  0.4468  0.1736  0.3914
  117MOL   C18044492   1.227   4.533   1.252  0.2995 -0.0472 -0.3219
  117MOL   C18144493   0.966   4.752   1.171 -0.5074 -0.3488 -0.6697
  117MOL   H18244494   0.990   4.539   1.166  1.3801  0.5226  0.0425
  117MOL   H18344495   1.095   4.783   1.443  1.7345  1.8561  0.5285
  117MOL   H18444496   1.326   4.806   1.519  2.4452  1.2197 -2.1271
  117MOL   H18544497   1.605   4.572   1.444 -1.9419 -0.6865  2.8780
  117MOL   H18644498   1.595   4.704   1.336 -1.0328 -1.2409 -0.2148
  117MOL   H18744499   1.557   4.723   1.517  0.9650  0.9861 -0.5284
  117MOL   H18844500   1.448   4.493   1.258 -1.5438 -1.2634 -2.5259
  117MOL   H18944501   1.196   4.465   1.174 -3.2829  0.1087  0.9013
  117MOL   H19044502   0.962   4.837   1.240  1.0700  2.0682 -3.4187
  117MOL   H19144503   0.864   4.764   1.136 -0.3715 -0.9186 -1.2653
  117MOL   C19244504   1.048   4.780   1.043 -0.4976  0.0169  0.6960
  117MOL   C19344505   1.067   4.931   1.010  0.1281 -0.5236 -0.5536
  117MOL   C19444506   0.960   5.020   1.038  1.1322 -0.5988  0.2380
  117MOL   C19544507   0.974   5.161   1.019 -0.0664  0.5085  0.9358
  117MOL   C19644508   1.096   5.209   0.968 -0.6236 -0.1472 -1.3000
  117MOL   C19744509   1.110   5.355   0.937 -0.6704 -0.1573  0.1613
  117MOL   C19844510   1.193   5.122   0.926  0.3607  0.5320 -1.2909
  117MOL   C19944511   1.186   4.985   0.953 -0.3990 -0.0663 -0.9805
  117MOL   C20044512   0.966   4.714   0.927 -0.0217 -0.4792 -0.4065
  117MOL   H20144513   1.145   4.730   1.038 -0.2132  0.6846 -0.8071
  117MOL   H20244514   0.878   4.980   1.096  0.1269 -0.1131 -0.8315
  117MOL   H20344515   0.892   5.219   1.058  0.4571  1.1944  1.0301
  117MOL   H20444516   1.067   5.371   0.838 -2.2871 -0.0113  0.8769
  117MOL   H20544517   1.056   5.425   1.001 -0.7797  1.3215 -1.4941
  117MOL   H20644518   1.214   5.388   0.933 -0.5929 -0.3223  0.7316
  117MOL   H20744519   1.283   5.153   0.876  1.9423 -0.5608  0.8279
  117MOL   H20844520   1.264   4.920   0.918  2.1726  2.2345  0.2375
  117MOL   H20944521   0.873   4.770   0.917  0.3727 -0.0418 -1.7239
  117MOL   H21044522   0.926   4.620   0.965 -1.4884 -0.2066 -1.2405
  117MOL   C21144523   1.041   4.693   0.792 -0.3230  0.0058  0.0675
  117MOL   C21244524   0.941   4.654   0.686  0.4428 -0.2709  0.7076
  117MOL   C21344525   0.907   4.746   0.583  0.8519  0.1906  0.1757
  117MOL   C21444526   0.824   4.705   0.479  0.5869 -0.4672 -0.1899
  117MOL   C21544527   0.755   4.585   0.489  0.6400 -0.5367 -0.6833
  117MOL   C21644528   0.658   4.550   0.378 -0.2674  0.5616  0.3061
  117MOL   C21744529   0.774   4.499   0.599  0.3877  0.2033  0.2771
  117MOL   C21844530   0.874   4.528   0.698 -0.3116 -0.2169  0.4803
  117MOL   C21944531   1.157   4.590   0.817 -0.5787 -0.3664  0.1951
  117MOL   H22044532   1.084   4.791   0.773  0.3567 -0.2067  0.4988
  117MOL   H22144533   0.963   4.839   0.587  0.3067  0.5999 -1.4764
  117MOL   H22244534   0.818   4.768   0.392  1.1450  0.2226  0.2608
  117MOL   H22344535   0.660   4.620   0.294 -1.6061  0.3189  0.0687
  117MOL   H22444536   0.677   4.450   0.340 -0.0997 -0.8963  3.9869
  117MOL   H22544537   0.560   4.557   0.425  0.1303  0.8639  1.0937
  117MOL   H22644538   0.722   4.405   0.586  1.0242 -0.0576 -0.4177
  117MOL   H22744539   0.901   4.458   0.776  0.6869 -0.5539 -0.1563
  117MOL   H22844540   1.132   4.518   0.894  0.1750 -1.9565 -1.0008
  117MOL   H22944541   1.226   4.656   0.869 -0.7436 -1.4843  1.8787
  117MOL   C23044542   1.218   4.506   0.703  0.3142  0.5665 -0.0994
  117MOL   C23144543   1.342   4.429   0.753  0.4448  0.6723 -0.6682
  117MOL   C23244544   1.413   4.466   0.870  0.5872  0.4866  0.0346
  117MOL   C23344545   1.521   4.386   0.912  0.9512  0.5081 -0.9153
  117MOL   C23444546   1.563   4.275   0.838 -0.2893 -0.0340 -0.0115
  117MOL   C23544547   1.686   4.202   0.890  0.6762 -0.3210  0.1626
  117MOL   C23644548   1.501   4.241   0.717 -0.1949  0.8880 -0.7920
  117MOL   C23744549   1.394   4.320   0.673  0.0043  0.6985 -0.5286
  117MOL   C23844550   1.262   4.588   0.577 -0.4585 -0.4580 -0.6399
  117MOL   H23944551   1.154   4.423   0.674  2.8185 -0.6206 -2.5527
  117MOL   H24044552   1.384   4.555   0.924 -1.2376  0.5995 -1.0763
  117MOL   H24144553   1.583   4.415   0.996  0.6820 -0.2950 -0.4381
  117MOL   H24244554   1.762   4.181   0.815  1.3791 -3.6155  1.6862
  117MOL   H24344555   1.743   4.261   0.962 -1.6803  0.5394  1.3825
  117MOL   H24444556   1.666   4.105   0.937  3.9449 -0.5617  1.2271
  117MOL   H24544557   1.532   4.158   0.655 -0.3033  1.4180 -1.5653
  117MOL   H24644558   1.344   4.298   0.580 -1.3559  0.0182  0.3379
  117MOL   H24744559   1.167   4.624   0.539 -0.2726  0.9271  0.1627
  117MOL   H24844560   1.307   4.526   0.500  2.0289  3.1525 -2.2415
  117MOL   C24944561   1.346   4.711   0.591  0.0761  0.6206  0.3216
  117MOL   C25044562   1.305   4.813   0.493 -0.1481 -0.4750 -0.1332
  117MOL   C25144563   1.305   4.788   0.351 -0.4924 -0.4042  0.2246
  117MOL   C25244564   1.280   4.894   0.270  0.0738  1.3614 -0.0749
  117MOL   C25344565   1.222   5.010   0.320  0.2153  0.4560  0.1489
  117MOL   C25444566   1.188   5.124   0.223  0.1697 -0.2547  0.3024
  117MOL   C25544567   1.212   5.042   0.454 -0.0178 -0.3719  0.8220
  117MOL   C25644568   1.261   4.942   0.540 -0.6769 -0.2895  0.0649
  117MOL   C25744569   1.496   4.672   0.572  0.5082 -0.5993 -0.3437
  117MOL   H25844570   1.342   4.744   0.695  0.1396  1.6804 -0.0049
  117MOL   H25944571   1.348   4.699   0.306  0.0527  0.0131 -0.0862
  117MOL   H26044572   1.313   4.873   0.169  1.8583  0.2976  0.6927
  117MOL   H26144573   1.198   5.218   0.278  1.2783  0.4884 -1.1296
  117MOL   H26244574   1.269   5.123   0.150 -0.3191 -1.8722 -0.2360
  117MOL   H26344575   1.092   5.119   0.171  0.3379  3.3323 -0.4921
  117MOL   H26444576   1.180   5.137   0.495  1.3097 -0.8678  3.1463
  117MOL   H26544577   1.243   4.957   0.645 -0.1259 -0.8108  0.2355
  117MOL   H26644578   1.509   4.656   0.465 -1.1624  0.3534 -0.7052
  117MOL   H26744579   1.497   4.575   0.622 -0.2097 -0.8801 -0.8677
  117MOL   C26844580   1.609   4.759   0.619  0.0100  0.5082  0.0817
  117MOL   C26944581   1.587   4.809   0.764 -0.2817  0.4956  0.0241
  117MOL   C27044582   1.549   4.942   0.784 -0.0605 -0.7720 -0.9445
  117MOL   C27144583   1.516   4.984   0.915 -0.4598  0.0621 -0.2844
  117MOL   C27244584   1.530   4.898   1.022  0.4145 -0.4950 -0.6453
  117MOL   C27344585   1.504   4.937   1.162  0.7791 -0.7054  0.3945
  117MOL   C27444586   1.577   4.766   1.007 -0.2518  0.7625  0.8572
  117MOL   C27544587   1.607   4.723   0.873  0.2713  0.0664 -0.1659
  117MOL   C27644588   1.652   4.869   0.514  0.9753  0.3944  0.3473
  117MOL   H27744589   1.689   4.685   0.620 -1.2541 -0.8717  1.6778
  117MOL   H27844590   1.542   5.022   0.712  0.7684 -0.3341 -0.5478
  117MOL   H27944591   1.482   5.086   0.929 -1.0219 -0.1463 -0.1325
  117MOL   H28044592   1.455   5.034   1.158  4.7011  1.4574  2.2029
  117MOL   H28144593   1.451   4.858   1.215 -0.4707 -0.8649 -1.0364
  117MOL   H28244594   1.603   4.947   1.205  0.2764  0.3065  1.3547
  117MOL   H28344595   1.586   4.692   1.086  0.3305  1.4097  1.4042
  117MOL   H28444596   1.646   4.624   0.857 -1.0481 -0.4093 -0.5117
  117MOL   H28544597   1.733   4.914   0.571  1.3367 -1.3509  1.2288
  117MOL   H28644598   1.572   4.943   0.511  0.9725  0.4881  2.0481
  117MOL   C28744599   1.710   4.843   0.377  0.5282 -0.4179  0.1600
  117MOL   C28844600   1.776   4.704   0.377  0.0872 -0.0569  0.1269
  117MOL   C28944601   1.702   4.590   0.326 -0.5971 -0.1627  0.5680
  117MOL   C29044602   1.755   4.459   0.346  0.0399 -0.1064  0.4025
  117MOL   C29144603   1.881   4.447   0.401  0.0170  0.0009  0.0356
  117MOL   C29244604   1.949   4.307   0.411  0.7295 -0.2297  0.7377
  117MOL   C29344605   1.955   4.557   0.443 -0.0080 -0.4329 -0.5442
  117MOL   C29444606   1.902   4.683   0.441  0.4991 -0.1344  0.2899
  117MOL   C29544607   1.806   4.946   0.321  0.1125 -0.0331 -0.5749
  117MOL   H29644608   1.623   4.836   0.312  1.5252  0.5430 -1.3147
  117MOL   H29744609   1.604   4.606   0.284 -0.8674 -0.4843  1.0750
  117MOL   H29844610   1.696   4.375   0.312  1.8896 -0.8085 -1.1276
  117MOL   H29944611   2.052   4.306   0.376  0.9890 -0.7525  1.5063
  117MOL   H30044612   1.932   4.256   0.506 -1.1680 -0.2762  0.4119
  117MOL   H30144613   1.895   4.251   0.335 -0.3118 -0.8237  1.8865
  117MOL   H30244614   2.055   4.542   0.481  0.3693 -0.6707 -1.6001
  117MOL   H30344615   1.951   4.773   0.476 -0.2092  0.5531 -0.4511
  117MOL   H30444616   1.853   4.912   0.229 -1.0787 -0.5830 -0.9958
  117MOL   H30544617   1.885   4.956   0.395  0.1496  2.3449 -0.9065
  117MOL   C30644618   1.771   5.095   0.301  0.2382 -0.2682 -0.5171
  117MOL   C30744619   1.683   5.153   0.411 -0.2352  0.4445 -0.1012
  117MOL   C30844620   1.752   5.196   0.527  0.3749  0.0820  0.2498
  117MOL   C30944621   1.686   5.261   0.635  0.6995  0.0440 -0.2101
  117MOL   C31044622   1.544   5.279   0.627 -0.1349 -0.0720 -0.6579
  117MOL   C31144623   1.463   5.342   0.738 -0.6412  0.0089  0.3606
  117MOL   C31244624   1.478   5.235   0.512  0.1922  0.3515  0.1396
  117MOL   C31344625   1.543   5.179   0.403 -0.1710 -0.3014 -0.0244
  117MOL   C31444626   1.729   5.131   0.157  0.2449  0.1312 -0.3802
  117MOL   H31544627   1.866   5.148   0.304  0.3799 -0.5563  0.3727
  117MOL   H31644628   1.859   5.185   0.533  0.2550 -0.8946  0.6268
  117MOL   H31744629   1.740   5.296   0.722  1.6102 -2.9174  0.4956
  117MOL   H31844630   1.450   5.447   0.713 -0.2975  0.2199  1.0441
  117MOL   H31944631   1.360   5.307   0.743 -0.6696 -0.4833 -2.8362
  117MOL   H32044632   1.528   5.342   0.826 -2.3872 -1.0059  1.6930
  117MOL   H32144633   1.371   5.244   0.503  0.0784 -1.0697 -0.1105
  117MOL   H32244634   1.477   5.144   0.325 -1.6171 -1.9185  1.8702
  117MOL   H32344635   1.626   5.094   0.158 -0.3169  1.6813  1.0861
  117MOL   H32444636   1.775   5.071   0.079  2.7737 -1.5623  2.2793
  117MOL   C32544637   1.724   5.281   0.118 -0.6247  0.0362  0.6038
  117MOL   C32644638   1.638   5.298   8.077 -0.5135 -0.1306  0.1399
  117MOL   C32744639   1.665   5.234   7.954 -0.0675  0.9596  0.0671
  117MOL   C32844640   1.586   5.255   7.841 -0.0576 -0.5332 -0.1162
  117MOL   C32944641   1.492   5.356   7.833  0.5501 -0.5269  0.5154
  117MOL   C33044642   1.433   5.401   7.702 -0.0759 -0.6645  0.0035
  117MOL   C33144643   1.463   5.423   7.956  0.3551 -0.0487  1.0631
  117MOL   C33244644   1.531   5.390   8.076 -0.0909 -0.3980 -0.4993
  117MOL   C33344645   1.861   5.352   0.086 -0.0257  0.4613  0.1087
  117MOL   H33444646   1.667   5.326   0.200 -1.1647  0.3123  0.0804
  117MOL   H33544647   1.751   5.169   7.947 -0.5359  0.0692  2.1536
  117MOL   H33644648   1.602   5.196   7.751  0.6883  1.6284 -1.4307
  117MOL   H33744649   1.472   5.501   7.679 -0.8826 -0.1812  0.6879
  117MOL   H33844650   1.471   5.342   7.619 -0.2850 -2.1947  0.9846
  117MOL   H33944651   1.325   5.399   7.711  0.1309 -1.4035  2.8578
  117MOL   H34044652   1.384   5.496   7.948  0.3710  0.4392  4.5918
  117MOL   H34144653   1.517   5.445   0.088  3.2004 -0.7657  0.3043
  117MOL   H34244654   1.871   5.377   8.061 -1.1514  3.5074  0.6879
  117MOL   H34344655   1.943   5.286   0.116 -0.3937  0.2336  0.6340
  117MOL   C34444656   1.881   5.500   0.138 -0.4796 -0.1723  0.2510
  117MOL   C34544657   1.976   5.574   0.043  0.4381 -0.4686 -0.6118
  117MOL   C34644658   1.930   5.666   8.025  0.3979  0.2487  0.5590
  117MOL   C34744659   2.018   5.740   7.951  0.0355 -0.3324 -0.0990
  117MOL   C34844660   2.157   5.732   7.963 -0.4708 -0.3002  0.0339
  117MOL   C34944661   2.252   5.818   7.880  0.0305  0.4482 -0.1624
  117MOL   C35044662   2.193   5.646   8.068 -0.6940 -0.1618  0.2005
  117MOL   C35144663   2.110   5.559   0.054  0.6318  0.3544 -0.3272
  117MOL   C35244664   1.917   5.497   0.294 -0.2993  0.1879 -0.0574
  117MOL   H35344665   1.784   5.547   0.120  1.0688  2.5944 -1.2246
  117MOL   H35444666   1.826   5.681   8.000  0.8717 -1.3910 -2.6389
  117MOL   H35544667   1.983   5.804   7.871 -0.9747 -1.2735 -0.4208
  117MOL   H35644668   2.344   5.826   7.937  1.1229  0.4589 -1.8849
  117MOL   H35744669   2.277   5.761   7.790 -1.9878 -0.8406  0.0658
  117MOL   H35844670   2.199   5.913   7.870 -3.8107 -1.0828  4.0194
  117MOL   H35944671   2.297   5.627   0.012 -1.1274 -1.4173  1.1684
  117MOL   H36044672   2.155   5.488   0.122  1.8910 -1.2273 -2.7085
  117MOL   H36144673   2.006   5.435   0.305 -0.0677  0.6953  0.9805
  117MOL   H36244674   1.832   5.452   0.345 -0.9266  0.1846 -1.0967
  117MOL   C36344675   1.970   5.632   0.355  0.0418 -0.3014 -0.3439
  117MOL   C36444676   2.023   5.608   0.493 -0.0741 -0.1194 -0.5199
  117MOL   C36544677   1.957   5.520   0.578 -0.2098  0.7296 -0.1175
  117MOL   C36644678   2.003   5.500   0.711  0.0060 -0.4528  0.1176
  117MOL   C36744679   2.124   5.561   0.748 -0.5010 -0.8142 -0.8035
  117MOL   C36844680   2.178   5.538   0.890 -1.2720 -0.0249  0.3217
  117MOL   C36944681   2.180   5.661   0.667 -0.3703 -0.4206  0.4493
  117MOL   C37044682   2.128   5.686   0.536  0.4331 -0.3907  0.4112
  117MOL   C37144683   1.868   5.751   0.349 -0.3738 -0.3192 -0.5332
  117MOL   H37244684   2.058   5.671   0.304 -1.5123 -0.1505 -2.9613
  117MOL   H37344685   1.869   5.467   0.543  0.1796  0.2357 -0.3424
  117MOL   H37444686   1.951   5.429   0.774  0.7921 -1.7469 -0.6590
  117MOL   H37544687   2.241   5.450   0.903 -1.8711 -0.3506  1.0211
  117MOL   H37644688   2.235   5.630   0.904  2.0610 -2.0596  0.6614
  117MOL   H37744689   2.093   5.519   0.955 -0.4564 -1.6380  0.9427
  117MOL   H37844690   2.269   5.711   0.700  0.3751 -0.3997 -1.5117
  117MOL   H37944691   2.165   5.762   0.470 -0.9661  0.4325  0.5579
  117MOL   H38044692   1.838   5.787   0.250 -0.7304 -1.2726 -0.7803
  117MOL   H38144693   1.921   5.826   0.407 -1.6891  0.0470  0.2139
  117MOL   H38244694   1.776   5.735   0.405 -0.4943  0.3801 -0.5286
  118MOL     C144695   7.164   1.495   0.968 -0.5479  0.0511  0.3781
  118MOL     C244696   7.122   1.609   1.056  0.6226 -0.5581 -0.1318
  118MOL     C344697   6.996   1.603   1.121 -0.1322 -0.3522 -0.7310
  118MOL     C444698   6.950   1.719   1.189  0.3262  0.4151 -0.1561
  118MOL     C544699   7.018   1.837   1.185 -0.5165  0.2392  0.1140
  118MOL     C644700   6.953   1.964   1.246  0.4062 -0.4912 -0.0053
  118MOL     C744701   7.144   1.838   1.114  0.6177 -0.3542  0.4818
  118MOL     C844702   7.200   1.723   1.064 -0.7839 -0.1355  0.6260
  118MOL     C944703   7.173   1.511   0.811 -0.0342 -0.1153 -0.1334
  118MOL    H1044704   7.267   1.472   0.995  0.0547  1.7052 -0.3683
  118MOL    H1144705   6.930   1.517   1.120 -0.2476 -0.2675 -0.1972
  118MOL    H1244706   6.859   1.710   1.246 -0.0170 -0.7976 -0.8629
  118MOL    H1344707   7.017   2.053   1.238 -0.1104  0.1043  2.0461
  118MOL    H1444708   6.856   1.988   1.201  1.1218 -0.0148 -1.3288
  118MOL    H1544709   6.925   1.942   1.349  0.7333  1.2529  0.4876
  118MOL    H1644710   7.192   1.935   1.112 -0.0893 -0.0118  0.1246
  118MOL    H1744711   7.297   1.732   1.018 -0.5810  0.5905  1.1776
  118MOL    H1844712   7.214   1.424   0.761  1.0856  0.6623 -0.5758
  118MOL    H1944713   7.239   1.597   0.802  1.0057 -0.6169  2.2690
  118MOL    H2044714   7.120   1.400   0.998  0.9113 -1.0916 -0.9901
  118MOL    C2144715   7.026   1.543   0.752  0.2791  0.3696 -0.3927
  118MOL    C2244716   6.970   1.406   0.696 -0.5099 -0.1733  0.4740
  118MOL    C2344717   6.985   1.377   0.556  0.3882 -0.1793 -0.9153
  118MOL    C2444718   6.954   1.248   0.500  0.3395  0.3149  0.1375
  118MOL    C2544719   6.892   1.155   0.583  0.0153 -0.4698 -0.0804
  118MOL    C2644720   6.826   1.031   0.523  0.0289  0.1993  0.1546
  118MOL    C2744721   6.878   1.188   0.720  0.1720 -0.3650  0.4526
  118MOL    C2844722   6.911   1.312   0.781 -0.8637 -0.0145  0.1275
  118MOL    C2944723   7.032   1.653   0.646 -0.2614 -0.0842  0.4472
  118MOL    H3044724   6.954   1.578   0.826  1.4164  1.3659  0.2696
  118MOL    H3144725   7.026   1.453   0.491  1.0796 -0.4623 -0.8135
  118MOL    H3244726   6.972   1.225   0.396  3.4386  0.1802  0.6421
  118MOL    H3344727   6.718   1.018   0.524  0.1147 -0.8826 -1.7274
  118MOL    H3444728   6.849   1.030   0.416  2.7848  0.4180  0.7119
  118MOL    H3544729   6.865   0.937   0.560 -0.1628  0.8254  1.9926
  118MOL    H3644730   6.823   1.112   0.774  0.2558 -0.4738  0.3856
  118MOL    H3744731   6.887   1.333   0.884 -0.6775  0.5490  0.0577
  118MOL    H3844732   6.937   1.646   0.594 -0.2270  0.2373  0.3396
  118MOL    H3944733   7.110   1.628   0.574 -1.5010 -0.4203 -0.8093
  118MOL    C4044734   7.065   1.800   0.687 -0.5082 -0.3080  0.5363
  118MOL    C4144735   6.938   1.878   0.723 -0.5545  0.3179 -0.0123
  118MOL    C4244736   6.870   1.849   0.839 -0.2131  0.6465 -0.0719
  118MOL    C4344737   6.751   1.911   0.876 -0.0445  0.7293  0.1063
  118MOL    C4444738   6.699   2.016   0.797  0.0385  0.0601  0.1665
  118MOL    C4544739   6.562   2.078   0.829 -0.0645 -0.2114  0.1352
  118MOL    C4644740   6.764   2.052   0.679 -0.3930 -0.0301 -0.8826
  118MOL    C4744741   6.892   1.990   0.647  0.1488 -0.1227  0.2758
  118MOL    C4844742   7.162   1.875   0.592  0.3947  0.1254  0.6855
  118MOL    H4944743   7.119   1.789   0.781  0.6409 -1.2395 -0.2112
  118MOL    H5044744   6.914   1.777   0.907 -1.1004 -1.9685 -2.1685
  118MOL    H5144745   6.714   1.888   0.975  0.4663 -0.6450 -0.0065
  118MOL    H5244746   6.530   2.157   0.761 -1.7841  0.4143  1.6505
  118MOL    H5344747   6.488   1.998   0.820  1.5549 -1.5335 -2.1193
  118MOL    H5444748   6.566   2.118   0.930  0.7851  3.4064 -1.2494
  118MOL    H5544749   6.721   2.124   0.610 -0.3819  0.4403 -0.4005
  118MOL    H5644750   6.944   2.016   0.555  0.0762  0.5428  0.4148
  118MOL    H5744751   7.117   1.887   0.493  1.9066  0.2006 -0.0085
  118MOL    H5844752   7.250   1.816   0.565 -0.2346 -0.0152 -1.1696
  118MOL    C5944753   7.230   1.999   0.657  0.0379  0.2841  0.1004
  118MOL    C6044754   7.251   2.100   0.542 -0.3283 -0.4925  0.1588
  118MOL    C6144755   7.187   2.229   0.553  0.2087  0.1082 -0.1478
  118MOL    C6244756   7.202   2.327   0.453  0.1641  0.2066  0.4883
  118MOL    C6344757   7.276   2.291   0.343  1.6113  0.4064 -0.4028
  118MOL    C6444758   7.292   2.399   0.241 -0.2802 -0.1562  0.1510
  118MOL    C6544759   7.342   2.167   0.324  0.6608 -0.1332  1.3610
  118MOL    C6644760   7.329   2.072   0.427 -0.0288  0.6823  0.3378
  118MOL    C6744761   7.363   1.974   0.728 -0.2102  0.0324  0.1285
  118MOL    H6844762   7.159   2.049   0.722 -1.0333 -0.3642 -0.5608
  118MOL    H6944763   7.117   2.242   0.634 -0.7928 -1.1761 -0.7950
  118MOL    H7044764   7.149   2.420   0.470  0.7972  0.4413  1.1906
  118MOL    H7144765   7.348   2.478   0.290  0.9896 -1.1027  0.2436
  118MOL    H7244766   7.342   2.371   0.148 -0.6033  1.2674 -0.4619
  118MOL    H7344767   7.199   2.450   0.213  0.9214  2.2594  0.4279
  118MOL    H7444768   7.412   2.158   0.242 -0.0231  0.1068  0.7490
  118MOL    H7544769   7.392   1.984   0.424 -2.2752 -0.9400 -1.0549
  118MOL    H7644770   7.431   1.941   0.650 -0.2810  0.5581 -0.1566
  118MOL    H7744771   7.345   1.900   0.806  1.0591 -1.1253 -0.6499
  118MOL    C7844772   7.424   2.100   0.795  0.5931  0.9909  0.1843
  118MOL    C7944773   7.570   2.086   0.829  0.5793 -0.2709  0.4043
  118MOL    C8044774   7.617   2.028   0.949 -0.0209 -0.0489  0.2545
  118MOL    C8144775   7.748   2.038   1.004  0.5629 -0.2453 -0.0871
  118MOL    C8244776   7.845   2.088   0.915 -0.4047 -0.4437  0.3659
  118MOL    C8344777   7.994   2.075   0.956  0.1791  0.2300  0.1582
  118MOL    C8444778   7.806   2.142   0.787  0.0879 -0.8746 -0.1102
  118MOL    C8544779   7.671   2.149   0.746 -0.2735 -0.0008 -1.0080
  118MOL    C8644780   7.337   2.133   0.916  0.1186  0.5627  0.6646
  118MOL    H8744781   7.424   2.182   0.724 -0.9059 -0.8048 -1.9746
  118MOL    H8844782   7.547   1.968   1.006 -0.5954  0.4432  0.0700
  118MOL    H8944783   7.767   1.998   1.103 -0.6307 -0.7031 -0.0324
  118MOL    H9044784   8.043   2.172   0.952 -0.1392  0.3368 -1.9370
  118MOL    H9144785   8.006   2.033   1.056 -3.4649 -2.2875 -0.3708
  118MOL    H9244786   8.047   2.011   0.884  0.8478  0.7422  0.1899
  118MOL    H9344787   7.875   2.200   0.727  1.9681  0.7816  3.5106
  118MOL    H9444788   7.644   2.203   0.656 -4.8403  0.0660  0.2592
  118MOL    H9544789   7.341   2.056   0.993 -1.7269  1.0663  1.2678
  118MOL    H9644790   7.231   2.131   0.892  0.0367  1.4945  0.9423
  118MOL    C9744791   7.381   2.273   0.980 -0.0603  0.6466 -0.0449
  118MOL    C9844792   7.356   2.266   1.134 -0.6744 -0.0620  0.3478
  118MOL    C9944793   7.230   2.244   1.192  0.7610  0.5045  0.2837
  118MOL   C10044794   7.214   2.238   1.329  0.1039  0.9617  0.1397
  118MOL   C10144795   7.323   2.245   1.414 -0.0441 -0.7761  0.2054
  118MOL   C10244796   7.307   2.241   1.563 -0.1242  0.0171  0.0761
  118MOL   C10344797   7.451   2.266   1.364  0.2759  0.6527  0.0403
  118MOL   C10444798   7.464   2.276   1.222 -0.1935  0.0717  0.1379
  118MOL   C10544799   7.309   2.392   0.917 -0.3870  0.4867  0.0686
  118MOL   H10644800   7.489   2.286   0.975  0.4000 -2.7928 -0.8453
  118MOL   H10744801   7.160   2.232   1.111  0.5029  1.5251  0.3419
  118MOL   H10844802   7.118   2.218   1.375  1.0161 -1.5662  1.0209
  118MOL   H10944803   7.392   2.183   1.600 -1.2829 -1.5916  0.3078
  118MOL   H11044804   7.315   2.340   1.607  1.3389 -0.2062  0.3489
  118MOL   H11144805   7.213   2.194   1.594  1.0061 -2.6243 -0.3688
  118MOL   H11244806   7.533   2.270   1.435 -1.1813  1.0523  1.7447
  118MOL   H11344807   7.564   2.293   1.186  0.0631 -0.5248  0.5579
  118MOL   H11444808   7.204   2.398   0.945 -0.3992 -0.5427  0.2698
  118MOL   H11544809   7.295   2.384   0.809 -1.9064  1.8572  0.1508
  118MOL   C11644810   7.359   2.528   0.977  0.5101 -0.9003 -0.3416
  118MOL   C11744811   7.263   2.604   1.067 -0.2098 -0.3622  0.1643
  118MOL   C11844812   7.170   2.689   0.998  0.6940  0.1512  0.9392
  118MOL   C11944813   7.082   2.762   1.077 -0.2859 -0.3507  0.3979
  118MOL   C12044814   7.075   2.736   1.217  0.3838 -0.1243  0.6637
  118MOL   C12144815   6.958   2.803   1.293  0.3593 -0.0777 -0.0391
  118MOL   C12244816   7.163   2.649   1.283 -0.2247  1.4691 -0.2326
  118MOL   C12344817   7.265   2.592   1.206  0.1432 -0.0375 -0.6297
  118MOL   C12444818   7.425   2.617   0.864 -0.7970 -0.2995 -0.3186
  118MOL   H12544819   7.445   2.513   1.043  0.1350 -1.0466  0.1143
  118MOL   H12644820   7.184   2.704   0.892 -1.2103 -1.1046  0.4804
  118MOL   H12744821   7.012   2.824   1.022 -1.7276 -1.0127  1.4347
  118MOL   H12844822   6.979   2.904   1.329 -1.6124  0.6863 -0.9767
  118MOL   H12944823   6.883   2.824   1.217  0.4283  1.5730  0.3370
  118MOL   H13044824   6.911   2.742   1.370 -1.8454 -0.3710 -1.5903
  118MOL   H13144825   7.160   2.629   1.389  0.9121  3.2557  0.1624
  118MOL   H13244826   7.335   2.529   1.259 -0.2497  1.9445  2.3880
  118MOL   H13344827   7.357   2.665   0.793  0.2677  1.7813  0.0191
  118MOL   H13444828   7.490   2.541   0.820 -0.1776 -1.1672  2.0176
  118MOL   C13544829   7.524   2.725   0.915  0.0236  0.6924 -0.0479
  118MOL   C13644830   7.478   2.865   0.872  0.0217  0.4265  0.5056
  118MOL   C13744831   7.503   2.915   0.746 -0.4745  0.1741  0.1116
  118MOL   C13844832   7.459   3.045   0.708  0.0684 -0.6092  0.1153
  118MOL   C13944833   7.399   3.131   0.801  0.7072  0.1258  0.7986
  118MOL   C14044834   7.382   3.274   0.770  0.1190  0.1648  0.2584
  118MOL   C14144835   7.372   3.073   0.930 -0.3320 -0.3728  0.0442
  118MOL   C14244836   7.406   2.941   0.966  0.0411 -0.3664 -0.2251
  118MOL   C14344837   7.668   2.692   0.875  0.4837 -0.1483 -0.2775
  118MOL   H14444838   7.525   2.725   1.024  0.5587  0.3812 -0.0539
  118MOL   H14544839   7.548   2.861   0.664 -1.3753 -1.0720  0.4267
  118MOL   H14644840   7.474   3.072   0.604  1.0215 -1.9420 -0.1113
  118MOL   H14744841   7.308   3.277   0.691  0.8345 -1.3564 -0.4900
  118MOL   H14844842   7.341   3.325   0.857 -1.4628  0.4210 -0.6269
  118MOL   H14944843   7.477   3.324   0.748  0.7362 -1.4139 -0.7626
  118MOL   H15044844   7.326   3.141   1.000 -2.2304 -3.7144  2.1950
  118MOL   H15144845   7.385   2.894   1.061  0.1769  0.3266  0.1490
  118MOL   H15244846   7.664   2.680   0.767  0.7891  1.6396 -0.4873
  118MOL   H15344847   7.687   2.591   0.913  0.9993 -0.4950 -1.4486
  118MOL   C15444848   7.780   2.794   0.901 -0.4366 -0.0731 -0.1540
  118MOL   C15544849   7.910   2.753   0.834  0.8982 -0.1346  0.6021
  118MOL   C15644850   7.967   2.832   0.737 -0.7044 -0.0803 -0.2793
  118MOL   C15744851   0.013   2.793   0.678  0.2264 -1.0245  0.3307
  118MOL   C15844852   0.074   2.678   0.729  0.7013 -0.2815  0.5033
  118MOL   C15944853   0.202   2.633   0.672  0.0161  0.4317  0.1153
  118MOL   C16044854   0.017   2.596   0.829 -0.2138 -0.1785 -0.1944
  118MOL   C16144855   7.975   2.637   0.883  0.2173 -0.0644 -0.3305
  118MOL   C16244856   7.795   2.807   1.048  0.8476 -0.5485  0.6937
  118MOL   H16344857   7.745   2.887   0.856 -3.4967 -1.4881 -0.8626
  118MOL   H16444858   7.926   2.930   0.715  2.7795  2.1184  2.3994
  118MOL   H16544859   0.052   2.853   0.597  0.5770 -0.3746  0.9805
  118MOL   H16644860   0.235   2.707   0.599  0.4864  0.2003  0.0929
  118MOL   H16744861   0.270   2.625   0.757 -1.2609 -0.0581  1.0933
  118MOL   H16844862   0.206   2.532   0.631 -3.4158  0.3796 -0.1832
  118MOL   H16944863   0.068   2.513   0.876 -2.7377 -2.2401 -0.9409
  118MOL   H17044864   7.945   2.577   0.969  0.7969  2.4581  1.6928
  118MOL   H17144865   7.900   2.796   1.077  1.2980  3.3574  0.8015
  118MOL   H17244866   7.745   2.722   1.096  0.5167 -1.5666 -1.4005
  118MOL   C17344867   7.738   2.939   1.108  0.0693  0.7934 -0.4662
  118MOL   C17444868   7.796   3.068   1.044 -0.6593 -0.7783  0.0542
  118MOL   C17544869   7.718   3.191   1.034 -0.1719 -0.7537 -0.3820
  118MOL   C17644870   7.772   3.303   0.976 -0.0319 -0.0041 -0.1472
  118MOL   C17744871   7.908   3.304   0.937 -0.8519  0.5370  0.3989
  118MOL   C17844872   7.960   3.432   0.876  0.8699  0.6751 -0.3214
  118MOL   C17944873   7.995   3.191   0.955  0.0548  0.2584  0.5027
  118MOL   C18044874   7.940   3.074   1.018  0.7759 -0.3680  0.0738
  118MOL   C18144875   7.770   2.945   1.257  0.4008  0.3332 -0.3192
  118MOL   H18244876   7.630   2.938   1.096  0.1812 -1.8554 -1.5896
  118MOL   H18344877   7.613   3.190   1.058 -0.1238  1.5673  0.1068
  118MOL   H18444878   7.708   3.389   0.968 -1.4338 -1.0305 -0.1550
  118MOL   H18544879   8.068   3.443   0.885  0.8551  0.9962 -0.5043
  118MOL   H18644880   7.912   3.448   0.779  2.0915  0.8056 -0.9124
  118MOL   H18744881   7.923   3.521   0.928  1.4311  0.0644  1.1289
  118MOL   H18844882   0.022   3.199   0.940  0.0483 -0.2329  0.1954
  118MOL   H18944883   8.013   2.999   1.042  0.8182 -0.3494  0.0036
  118MOL   H19044884   7.806   3.042   1.290  2.0727 -0.1648 -0.6593
  118MOL   H19144885   7.857   2.885   1.282  1.0832  1.1525 -0.7342
  118MOL   C19244886   7.652   2.896   1.343 -0.0435  0.0740  0.6896
  118MOL   C19344887   7.527   2.979   1.345 -0.8855  0.5652 -0.5236
  118MOL   C19444888   7.533   3.119   1.350  0.5013  0.8283  0.0439
  118MOL   C19544889   7.408   3.194   1.362 -0.3355  0.8477  0.1639
  118MOL   C19644890   7.288   3.124   1.366  0.1773 -0.7878 -0.6185
  118MOL   C19744891   7.160   3.201   1.384 -0.0139 -0.2855  0.5207
  118MOL   C19844892   7.277   2.987   1.355  0.6117  0.3676 -0.1491
  118MOL   C19944893   7.398   2.910   1.361 -0.2221  0.1183 -0.2822
  118MOL   C20044894   7.699   2.874   1.490 -0.3414  0.1303 -0.5251
  118MOL   H20144895   7.630   2.797   1.303 -2.7485  0.2185  1.7519
  118MOL   H20244896   7.627   3.168   1.334  1.7586 -2.1234 -2.1780
  118MOL   H20344897   7.409   3.302   1.363  0.9369  0.8929 -2.1901
  118MOL   H20444898   7.174   3.246   1.483 -2.7366  0.7467  0.4739
  118MOL   H20544899   7.136   3.272   1.305  0.9962  0.0466  0.4918
  118MOL   H20644900   7.074   3.136   1.396 -0.8542  0.6176 -0.5147
  118MOL   H20744901   7.182   2.939   1.376  1.2189 -0.4913  0.6611
  118MOL   H20844902   7.381   2.804   1.370 -0.2751  0.1636  0.1864
  118MOL   H20944903   7.643   2.928   1.567  1.1240  0.9793 -0.0485
  118MOL   H21044904   7.790   2.931   1.509 -0.5406  0.1710  0.3251
  118MOL   C21144905   7.725   2.726   1.529  0.0060 -0.5699  0.0853
  118MOL   C21244906   7.814   2.647   1.431 -0.5224  0.0420 -0.2196
  118MOL   C21344907   7.949   2.672   1.436 -0.2453  0.5664  0.1973
  118MOL   C21444908   8.041   2.595   1.360  0.1719  0.0710  0.6341
  118MOL   C21544909   7.992   2.503   1.271 -0.0315  0.5679  0.6486
  118MOL   C21644910   0.013   2.413   1.194 -0.3217 -0.4368 -0.1972
  118MOL   C21744911   7.854   2.482   1.255  0.9311 -0.4775  1.4634
  118MOL   C21844912   7.768   2.551   1.338  0.6574 -0.8040 -0.5396
  118MOL   C21944913   7.592   2.655   1.568 -0.1820  0.4532  0.0169
  118MOL   H22044914   7.782   2.732   1.622  0.0038  0.3101  0.0337
  118MOL   H22144915   8.006   2.737   1.501  2.6400 -1.5780 -0.0786
  118MOL   H22244916   0.065   2.614   1.380 -0.2526  1.9066  1.2147
  118MOL   H22344917   0.003   2.314   1.238 -0.7411  0.1242  0.9707
  118MOL   H22444918   8.069   2.399   1.088 -1.0539 -0.3983 -0.0347
  118MOL   H22544919   0.120   2.437   1.189  0.0795 -1.9823  0.5894
  118MOL   H22644920   7.813   2.410   1.185  0.2748  0.0987  1.2487
  118MOL   H22744921   7.662   2.552   1.319  0.4824  0.7455  0.4305
  118MOL   H22844922   7.621   2.557   1.605  1.1731  0.5181 -0.8603
  118MOL   H22944923   7.538   2.632   1.477 -1.1935 -0.2686  0.7941
  118MOL   C23044924   7.501   2.723   1.668 -0.7620  0.3350  1.0647
  118MOL   C23144925   7.579   2.771   1.788  0.9990 -0.3201 -0.4174
  118MOL   C23244926   7.592   2.909   1.815 -1.2662  0.3307  0.5350
  118MOL   C23344927   7.669   2.957   1.918  0.3950  0.5336 -0.4894
  118MOL   C23444928   7.740   2.870   1.999 -0.3952  0.1407 -0.2553
  118MOL   C23544929   7.833   2.924   2.102 -0.4564 -0.0653  0.3165
  118MOL   C23644930   7.740   2.731   1.969 -0.0618  0.3245  0.5752
  118MOL   C23744931   7.650   2.683   1.873  0.0426  0.3035  0.4608
  118MOL   C23844932   7.377   2.631   1.701 -0.2757 -0.1519 -0.2176
  118MOL   H23944933   7.457   2.810   1.619  0.3658  1.9597  2.8586
  118MOL   H24044934   7.543   2.984   1.754  0.2266 -0.4023 -1.6411
  118MOL   H24144935   7.698   3.061   1.929  0.9656  0.1392  1.8759
  118MOL   H24244936   7.893   3.010   2.072  0.7194 -0.7313  0.6984
  118MOL   H24344937   7.783   2.954   2.195  0.9737  0.5073  0.9252
  118MOL   H24444938   7.913   2.853   2.119  0.2179  0.2325 -1.5035
  118MOL   H24544939   7.792   2.659   2.032 -1.8461 -0.9330  0.6531
  118MOL   H24644940   7.645   2.577   1.855  1.7219  0.1831  0.6377
  118MOL   H24744941   7.428   2.552   1.757  1.3507  1.4777  0.6638
  118MOL   H24844942   7.341   2.568   1.620 -0.9375 -1.3995  1.0182
  118MOL   C24944943   7.253   2.698   1.770 -0.3979  0.5876  0.4145
  118MOL   C25044944   7.167   2.597   1.838 -0.1597  0.3269  0.1328
  118MOL   C25144945   7.155   2.611   1.980  0.1218 -0.2879  0.0409
  118MOL   C25244946   7.099   2.504   2.051  0.6811 -0.5426 -0.5692
  118MOL   C25344947   7.035   2.400   1.981 -0.0838  0.3298 -0.0499
  118MOL   C25444948   6.979   2.279   2.047 -0.0225  0.0967 -0.8999
  118MOL   C25544949   7.035   2.400   1.837  0.0861  0.1463  0.4501
  118MOL   C25644950   7.107   2.495   1.765  0.6812  0.9172 -0.6578
  118MOL   C25744951   7.175   2.796   1.682 -0.0191 -0.0750  0.2811
  118MOL   H25844952   7.307   2.759   1.842 -1.6128  0.9477  1.0327
  118MOL   H25944953   7.196   2.697   2.031 -3.9522  0.3033  2.5004
  118MOL   H26044954   7.103   2.498   2.159  3.2905 -0.0625 -0.6104
  118MOL   H26144955   6.978   2.200   1.971  0.1815  0.4493 -1.2697
  118MOL   H26244956   7.055   2.243   2.117 -1.1327  4.0781  2.5383
  118MOL   H26344957   6.888   2.301   2.102  0.8673  3.0717 -0.5590
  118MOL   H26444958   6.981   2.322   1.786  0.4477  0.2386 -0.0692
  118MOL   H26544959   7.111   2.501   1.657 -0.3594 -0.9959 -0.8125
  118MOL   H26644960   7.130   2.740   1.600  2.6556 -1.3411 -0.3930
  118MOL   H26744961   7.246   2.866   1.638  0.6281  0.7967  2.6077
  118MOL   C26844962   7.086   2.884   1.764 -0.6913 -0.3172  0.6513
  118MOL   C26944963   6.958   2.917   1.684 -0.2475 -0.2246  0.1356
  118MOL   C27044964   6.859   2.819   1.665 -0.5031  0.4836  0.8530
  118MOL   C27144965   6.756   2.848   1.574  0.9002  0.0898  0.4996
  118MOL   C27244966   6.742   2.976   1.509  0.6328 -0.0920 -0.0492
  118MOL   C27344967   6.629   3.004   1.411 -0.5701  0.0969  0.0420
  118MOL   C27444968   6.834   3.074   1.535 -0.4620 -0.5119  0.0977
  118MOL   C27544969   6.943   3.049   1.627 -0.3426  0.2405 -0.1172
  118MOL   C27644970   7.166   3.005   1.819 -0.0732 -0.7883  0.1381
  118MOL   H27744971   7.054   2.837   1.857 -0.4236 -0.0084  0.9028
  118MOL   H27844972   6.883   2.715   1.684  1.1895  0.5992 -0.4875
  118MOL   H27944973   6.686   2.769   1.552 -0.1238  0.9600  0.5657
  118MOL   H28044974   6.647   3.096   1.355 -0.8607 -0.4641 -0.9702
  118MOL   H28144975   6.624   2.914   1.351  0.6597 -0.4897  0.8062
  118MOL   H28244976   6.535   3.013   1.465 -0.0917 -2.4809  1.3556
  118MOL   H28344977   6.830   3.174   1.495  1.9750 -0.5275 -0.2596
  118MOL   H28444978   7.007   3.134   1.643 -2.0968  1.4431  0.5985
  118MOL   H28544979   7.199   3.060   1.730  2.1968 -1.7374  0.3614
  118MOL   H28644980   7.266   2.975   1.850  0.1110  0.9256  1.2887
  118MOL   C28744981   7.086   3.094   1.924  0.4156 -0.1535  0.1485
  118MOL   C28844982   7.158   3.226   1.929 -0.5484 -0.1262 -0.2324
  118MOL   C28944983   7.294   3.236   1.970  0.6516  0.2952 -0.0588
  118MOL   C29044984   7.358   3.365   1.978  0.4793 -0.1246 -0.0871
  118MOL   C29144985   7.287   3.478   1.935  0.4761 -0.1409 -0.0528
  118MOL   C29244986   7.360   3.608   1.938  0.0972 -0.3386  0.2760
  118MOL   C29344987   7.151   3.473   1.898  0.7591  0.0757  0.0376
  118MOL   C29444988   7.084   3.349   1.896 -0.0535  0.3500  0.3266
  118MOL   C29544989   7.079   3.022   2.058  0.2517 -0.3234  0.0931
  118MOL   H29644990   6.982   3.101   1.893  0.3303 -0.8122  0.2733
  118MOL   H29744991   7.345   3.146   2.002 -0.8461 -0.3017  0.6627
  118MOL   H29844992   7.459   3.367   2.018  0.6045 -2.6853 -0.1968
  118MOL   H29944993   7.469   3.603   1.936  0.1586  1.5462 -2.2710
  118MOL   H30044994   7.344   3.675   1.854  0.1978  0.5248  0.9401
  118MOL   H30144995   7.332   3.658   2.031  0.1852  0.5920 -0.1948
  118MOL   H30244996   7.097   3.566   1.882  1.7132  0.3632 -1.5927
  118MOL   H30344997   6.980   3.346   1.865 -0.4714  1.3228  1.6122
  118MOL   H30444998   7.184   2.997   2.078 -0.1901 -1.4225  1.1106
  118MOL   H30544999   7.030   2.925   2.046  2.4108 -1.5223  0.5299
  118MOL   C30645000   7.015   3.105   2.177  0.0274  0.1917 -0.2784
  118MOL   C30745001   7.069   3.066   2.314  0.0010  0.4095 -0.3091
  118MOL   C30845002   7.065   3.156   2.421 -0.3046  0.3083 -0.6968
  118MOL   C30945003   7.110   3.119   2.553 -0.1355  0.3004  0.0950
  118MOL   C31045004   7.147   2.984   2.577 -0.7058  0.5941 -0.5313
  118MOL   C31145005   7.216   2.947   2.707  0.1690  0.8346 -0.4841
  118MOL   C31245006   7.146   2.891   2.469  0.4397 -0.2096 -0.2411
  118MOL   C31345007   7.116   2.935   2.337  0.5021 -0.2209 -0.1510
  118MOL   C31445008   6.862   3.107   2.162  0.2337  0.5455  0.4922
  118MOL   H31545009   7.056   3.205   2.163  2.8038 -0.6314  1.6194
  118MOL   H31645010   7.030   3.258   2.416 -1.7401 -0.1722 -0.6219
  118MOL   H31745011   7.093   3.194   2.630 -1.3610  0.3710 -0.2364
  118MOL   H31845012   7.225   3.034   2.772  2.6507 -0.6991  1.3338
  118MOL   H31945013   7.160   2.868   2.756 -0.8621  2.4273  0.9504
  118MOL   H32045014   7.315   2.901   2.704  0.1729  0.9255 -1.9462
  118MOL   H32145015   7.172   2.788   2.485  1.4787  0.1355  0.3483
  118MOL   H32245016   7.113   2.860   2.260 -0.1700 -0.2656 -0.0857
  118MOL   H32345017   6.822   3.117   2.061 -3.5387 -2.1844  1.5744
  118MOL   H32445018   6.838   3.212   2.184 -1.4872  0.5019 -1.0621
  118MOL   C32545019   6.777   3.006   2.241  0.1865  0.5079 -0.5094
  118MOL   C32645020   6.745   2.879   2.162  0.0470  0.9169  0.1301
  118MOL   C32745021   6.664   2.876   2.048 -0.2452  0.8667 -0.1824
  118MOL   C32845022   6.639   2.754   1.976  0.4060  0.0939 -0.5313
  118MOL   C32945023   6.691   2.632   2.029 -0.0278  0.4798  0.0994
  118MOL   C33045024   6.654   2.496   1.964 -0.9381 -0.0838  0.5009
  118MOL   C33145025   6.783   2.633   2.137  0.2316  0.3612 -0.2294
  118MOL   C33245026   6.813   2.756   2.203  0.7616 -0.2220  0.2013
  118MOL   C33345027   6.648   3.080   2.284  0.4628  0.1150  0.0828
  118MOL   H33445028   6.827   2.980   2.334 -0.3528  1.7282  0.1315
  118MOL   H33545029   6.611   2.964   2.017 -2.4829  0.3121  1.9339
  118MOL   H33645030   6.568   2.765   1.896  1.0770  1.9242 -0.9110
  118MOL   H33745031   6.548   2.492   1.937 -0.5040  0.5978 -1.3722
  118MOL   H33845032   6.722   2.480   1.881 -0.5800  2.9484  0.1346
  118MOL   H33945033   6.678   2.406   2.020  1.2296 -0.5112 -1.0473
  118MOL   H34045034   6.818   2.538   2.174 -1.0559 -0.0618 -0.0745
  118MOL   H34145035   6.888   2.761   2.279  0.0069  0.9702  0.8886
  118MOL   H34245036   6.565   3.012   2.265 -0.7128  1.5139  0.2431
  118MOL   H34345037   6.632   3.158   2.210 -2.3506 -0.3522  0.1779
  118MOL   C34445038   6.637   3.128   2.430 -0.8698  0.2160 -0.0136
  118MOL   C34545039   6.620   3.017   2.526  0.1559 -0.0944  0.0384
  118MOL   C34645040   6.698   3.004   2.644 -0.6922 -0.5189  0.2605
  118MOL   C34745041   6.682   2.904   2.739 -0.6001  0.4386 -0.0115
  118MOL   C34845042   6.578   2.809   2.715 -1.0236  0.2782 -0.2046
  118MOL   C34945043   6.561   2.698   2.817 -0.2537  0.1428  0.3060
  118MOL   C35045044   6.494   2.820   2.597 -0.6053  0.4166 -0.2940
  118MOL   C35145045   6.518   2.921   2.504  0.3197  0.0341  0.0969
  118MOL   C35245046   6.522   3.227   2.451  0.4584 -0.3102 -0.5531
  118MOL   H35345047   6.733   3.178   2.445 -0.6352 -0.9123  2.6685
  118MOL   H35445048   6.781   3.071   2.659 -0.2230 -1.3600  1.5320
  118MOL   H35545049   6.745   2.907   2.827  0.0845 -1.1126 -0.4288
  118MOL   H35645050   6.584   2.597   2.783  1.6073  1.7452 -3.6123
  118MOL   H35745051   6.607   2.711   2.915  0.1144  0.9874  0.0262
  118MOL   H35845052   6.454   2.690   2.835  0.0324 -1.5402  1.3559
  118MOL   H35945053   6.415   2.748   2.585 -0.3448 -0.2352  1.7395
  118MOL   H36045054   6.444   2.925   2.425  1.2973 -0.6753 -0.8728
  118MOL   H36145055   6.524   3.250   2.557 -0.7409 -0.2446 -0.5420
  118MOL   H36245056   6.425   3.185   2.425 -0.3292  0.3541  1.2617
  118MOL   C36345057   6.535   3.361   2.372 -0.1376  0.6556 -0.4887
  118MOL   C36445058   6.677   3.426   2.385 -0.2709  1.3606 -0.1320
  118MOL   C36545059   6.754   3.460   2.270  0.7292  0.0612  0.0152
  118MOL   C36645060   6.887   3.507   2.289  0.3780 -0.1044  0.0977
  118MOL   C36745061   6.939   3.520   2.423  0.6043 -0.2077 -0.0111
  118MOL   C36845062   7.086   3.558   2.443 -0.1691  0.0117 -0.3756
  118MOL   C36945063   6.859   3.493   2.538 -0.1175  0.4862  1.2088
  118MOL   C37045064   6.728   3.443   2.520 -0.4141  0.0875  0.5087
  118MOL   C37145065   6.433   3.467   2.415  0.4812 -0.7463 -0.0678
  118MOL   H37245066   6.522   3.329   2.268 -1.7396  1.1362 -0.4478
  118MOL   H37345067   6.710   3.454   2.172  0.4013  1.3069  0.0695
  118MOL   H37445068   6.948   3.531   2.204 -2.4838 -3.8761 -3.1809
  118MOL   H37545069   7.080   3.657   2.489  3.1546  0.1446 -0.1529
  118MOL   H37645070   7.130   3.484   2.510 -0.4475  0.8771  0.7718
  118MOL   H37745071   7.139   3.558   2.348  0.1629  1.4965 -0.2011
  118MOL   H37845072   6.896   3.512   2.638 -0.8009 -0.3917  1.6384
  118MOL   H37945073   6.670   3.413   2.606 -0.9214  2.1435  0.9130
  118MOL   H38045074   6.337   3.429   2.380 -0.7678 -0.9557  3.4207
  118MOL   H38145075   6.459   3.565   2.373 -3.3225 -1.3191 -4.1347
  118MOL   H38245076   6.426   3.494   2.520 -0.4523  1.1034 -0.5880
  119MOL     C145077   0.083   4.395   4.715 -0.3075  0.0370 -0.3200
  119MOL     C245078   0.160   4.526   4.727 -0.0981 -0.5128 -0.4757
  119MOL     C345079   0.082   4.638   4.754  0.1181 -0.9754 -0.6383
  119MOL     C445080   0.140   4.764   4.782  0.0931  0.9527 -0.0071
  119MOL     C545081   0.282   4.769   4.782 -0.7761 -0.8368  0.3394
  119MOL     C645082   0.355   4.888   4.838  0.1394  0.1265  0.1527
  119MOL     C745083   0.363   4.658   4.744 -0.2584  0.4573 -0.7902
  119MOL     C845084   0.298   4.540   4.709 -0.2946 -0.1869  0.7614
  119MOL     C945085   8.060   4.369   4.831 -0.2281  0.5035 -0.3125
  119MOL    H1045086   0.037   4.384   4.617  0.8450 -2.9521 -0.5690
  119MOL    H1145087   8.054   4.630   4.747  0.0941 -0.6928 -0.5937
  119MOL    H1245088   0.078   4.849   4.807  2.6206  2.3159  1.8858
  119MOL    H1345089   0.287   4.974   4.839  1.3605  1.1299 -0.8817
  119MOL    H1445090   0.381   4.854   4.938  2.2352 -0.5641 -0.6102
  119MOL    H1545091   0.446   4.906   4.780  0.0867  0.9757  0.3302
  119MOL    H1645092   0.471   4.659   4.742 -0.0958 -3.3649  1.3397
  119MOL    H1745093   0.347   4.453   4.668 -1.3196 -0.9992  1.2238
  119MOL    H1845094   7.976   4.439   4.837 -0.5568  0.0773  0.0899
  119MOL    H1945095   0.029   4.410   4.919  0.6156  0.2746 -0.6702
  119MOL    H2045096   0.159   4.317   4.714 -2.8781 -2.5515 -1.5534
  119MOL    C2145097   8.012   4.231   4.863  0.2826 -0.0420  0.3113
  119MOL    C2245098   7.945   4.175   4.735  0.6345  0.0916 -0.0605
  119MOL    C2345099   8.020   4.099   4.644 -0.2403  0.0274  0.1890
  119MOL    C2445100   7.968   4.066   4.516  0.8611 -0.0714 -0.0627
  119MOL    C2545101   7.827   4.086   4.492 -0.1757 -0.0109  0.1734
  119MOL    C2645102   7.752   4.024   4.376 -0.8503  0.6626  0.2983
  119MOL    C2745103   7.751   4.154   4.586  0.5999 -0.0989 -0.4121
  119MOL    C2845104   7.810   4.193   4.707  0.4328  0.1103 -0.7186
  119MOL    C2945105   7.930   4.235   4.997 -0.3027  0.0265 -0.8165
  119MOL    H3045106   0.020   4.168   4.872  0.5261  0.0650 -1.3181
  119MOL    H3145107   0.041   4.074   4.675 -0.4608 -0.0766  0.8317
  119MOL    H3245108   8.021   3.996   4.452  2.5688  1.1446 -0.0157
  119MOL    H3345109   7.801   3.934   4.337  0.6963  1.2657  0.7840
  119MOL    H3445110   7.655   4.001   4.418 -0.5516  1.6257  1.5298
  119MOL    H3545111   7.744   4.103   4.302  0.0891 -0.0773 -0.6237
  119MOL    H3645112   7.644   4.158   4.572  0.9518  0.4864 -3.4151
  119MOL    H3745113   7.752   4.239   4.786 -0.4449  1.8930 -2.3827
  119MOL    H3845114   7.840   4.292   4.974 -1.7001 -2.1552 -0.8210
  119MOL    H3945115   7.987   4.295   5.068  0.0927  1.4303 -2.2871
  119MOL    C4045116   7.891   4.103   5.066  0.4215  0.0394 -0.6825
  119MOL    C4145117   7.813   4.139   5.189 -0.1500  0.1485 -0.0042
  119MOL    C4245118   7.673   4.121   5.193 -0.1553 -0.4737  0.4636
  119MOL    C4345119   7.591   4.140   5.305  0.5721 -0.3201 -0.0970
  119MOL    C4445120   7.657   4.181   5.424 -0.0538  0.1033 -0.4600
  119MOL    C4545121   7.572   4.206   5.550  0.4823  0.6213  0.7573
  119MOL    C4645122   7.797   4.210   5.422 -0.3079  0.6346 -0.8376
  119MOL    C4745123   7.871   4.194   5.301  0.0401  0.2186 -0.0505
  119MOL    C4845124   8.012   4.008   5.088 -0.1901 -0.3120 -0.3185
  119MOL    H4945125   7.825   4.053   4.995 -0.0634  1.0886 -0.9750
  119MOL    H5045126   7.621   4.095   5.103  0.7593  2.0938 -0.8473
  119MOL    H5145127   7.486   4.118   5.298  0.6174 -1.2758  2.0188
  119MOL    H5245128   7.633   4.219   5.639 -0.1510 -0.6830  1.4031
  119MOL    H5345129   7.512   4.295   5.533  2.1032  1.4839 -0.7134
  119MOL    H5445130   7.501   4.126   5.571 -1.6289  1.3049 -3.2594
  119MOL    H5545131   7.847   4.251   5.509 -0.1073  1.6350 -1.4188
  119MOL    H5645132   7.977   4.213   5.292  0.3765 -1.8539 -0.7892
  119MOL    H5745133   8.080   4.047   5.163 -2.5641  0.1549  1.6522
  119MOL    H5845134   8.069   4.000   4.995  3.0328 -1.2063  1.6667
  119MOL    C5945135   7.965   3.863   5.129 -0.4991  0.4358  0.9543
  119MOL    C6045136   7.947   3.852   5.275  0.7785 -0.3918  0.2931
  119MOL    C6145137   7.818   3.840   5.330  0.1376 -0.3794 -0.1466
  119MOL    C6245138   7.804   3.811   5.465  0.3300 -0.0859 -0.7144
  119MOL    C6345139   7.919   3.801   5.545 -0.8754  0.8516 -0.0166
  119MOL    C6445140   7.912   3.790   5.692  0.0673 -0.3055 -0.2813
  119MOL    C6545141   8.052   3.818   5.494  0.2760  0.5576  0.0516
  119MOL    C6645142   8.063   3.833   5.355  0.4483  0.6550 -0.1830
  119MOL    C6745143   8.037   3.748   5.055 -0.0069 -0.6888 -0.3341
  119MOL    H6845144   7.861   3.857   5.098 -0.4212 -0.0444  0.7859
  119MOL    H6945145   7.726   3.834   5.274  0.5332 -2.1464 -0.6424
  119MOL    H7045146   7.705   3.803   5.507  0.4997 -1.2692 -0.5256
  119MOL    H7145147   8.006   3.787   5.748 -0.1932 -1.4423  0.0990
  119MOL    H7245148   7.871   3.888   5.719  3.3696  1.7945 -2.5451
  119MOL    H7345149   7.850   3.707   5.726  0.4262 -1.1802 -1.7507
  119MOL    H7445150   0.054   3.814   5.564  1.3471  2.4992 -1.0506
  119MOL    H7545151   0.079   3.849   5.308  0.4296  0.4857 -0.2801
  119MOL    H7645152   8.007   3.651   5.095  1.2208 -0.8529  0.1996
  119MOL    H7745153   0.065   3.746   5.070 -0.2389 -1.9821  1.3269
  119MOL    C7845154   8.000   3.745   4.903 -0.2304 -0.6519  0.0647
  119MOL    C7945155   7.847   3.740   4.864 -0.7179  0.1350 -0.0379
  119MOL    C8045156   7.754   3.673   4.945 -0.1868 -0.7321 -0.3119
  119MOL    C8145157   7.620   3.658   4.901 -0.0586 -0.1610 -0.9810
  119MOL    C8245158   7.579   3.706   4.774 -0.1716  0.2040  0.3077
  119MOL    C8345159   7.453   3.656   4.706  0.1246  0.2735  0.1681
  119MOL    C8445160   7.675   3.784   4.702 -0.1790  0.0334  0.0102
  119MOL    C8545161   7.806   3.797   4.743 -0.5809 -0.1661  0.1791
  119MOL    C8645162   8.077   3.633   4.828  0.0236  0.1217  0.5867
  119MOL    H8745163   8.036   3.840   4.864 -1.2905 -0.2300  0.0954
  119MOL    H8845164   7.797   3.624   5.031 -1.2769 -2.5542 -0.7895
  119MOL    H8945165   7.556   3.585   4.948 -1.3065  1.9992  0.7819
  119MOL    H9045166   7.374   3.732   4.708 -0.9469 -0.8563  1.1093
  119MOL    H9145167   7.472   3.624   4.603 -1.6143  0.0680 -0.0994
  119MOL    H9245168   7.411   3.570   4.759 -1.6931 -0.9897 -3.1749
  119MOL    H9345169   7.642   3.839   4.615 -0.8872  0.3430  0.4671
  119MOL    H9445170   7.880   3.854   4.688 -0.7233  0.2886  0.4675
  119MOL    H9545171   8.036   3.637   4.727  0.2664  2.1762  0.5341
  119MOL    H9645172   8.046   3.534   4.860  2.0153 -0.9042 -0.5341
  119MOL    C9745173   0.147   3.644   4.817  0.5601 -0.5332 -0.1249
  119MOL    C9845174   0.207   3.776   4.794 -0.3865 -0.3310 -0.2096
  119MOL    C9945175   0.188   3.844   4.674  0.2667  0.2241  1.1439
  119MOL   C10045176   0.258   3.966   4.645  0.2491 -0.2997  0.0644
  119MOL   C10145177   0.339   4.030   4.740 -0.0584  0.4043 -0.5698
  119MOL   C10245178   0.402   4.163   4.716 -0.3925  0.4516  0.2367
  119MOL   C10345179   0.366   3.962   4.856 -0.5365  0.3010 -0.0522
  119MOL   C10445180   0.306   3.833   4.882 -0.1274  0.1825  0.0109
  119MOL   C10545181   0.214   3.528   4.733 -0.2172  0.2829 -0.1221
  119MOL   H10645182   0.183   3.618   4.917  1.9489  1.0350 -0.1863
  119MOL   H10745183   0.110   3.808   4.608 -0.3411  2.8145  0.3760
  119MOL   H10845184   0.242   4.023   4.555 -2.6335 -0.9225  0.1313
  119MOL   H10945185   0.407   4.241   4.792 -1.2488  1.1604 -0.4188
  119MOL   H11045186   0.503   4.158   4.675 -0.7960  1.1409 -0.8688
  119MOL   H11145187   0.351   4.212   4.633  0.1760 -1.3789 -1.2063
  119MOL   H11245188   0.425   4.003   4.936  0.0978  0.0716 -0.3996
  119MOL   H11345189   0.336   3.782   4.973  0.4335  0.4352 -0.0321
  119MOL   H11445190   0.185   3.546   4.630  1.9963  0.3181 -0.7455
  119MOL   H11545191   0.182   3.430   4.768 -0.5071  1.2962  2.6102
  119MOL   C11645192   0.367   3.519   4.735  0.7144 -0.4960 -0.0784
  119MOL   C11745193   0.417   3.433   4.616 -0.2812  0.2316 -0.1276
  119MOL   C11845194   0.355   3.305   4.594  0.2406  0.2251 -0.1173
  119MOL   C11945195   0.367   3.249   4.468 -0.2425 -1.2858  0.7338
  119MOL   C12045196   0.456   3.300   4.370  0.3180  0.0586  0.5298
  119MOL   C12145197   0.477   3.221   4.234  1.1065  0.3429  0.7505
  119MOL   C12245198   0.526   3.421   4.393 -0.5838 -0.5158  0.1511
  119MOL   C12345199   0.502   3.494   4.513 -0.1593 -0.2091 -0.1027
  119MOL   C12445200   0.434   3.479   4.867 -0.4630  0.0838  0.1667
  119MOL   H12545201   0.417   3.613   4.712  0.2051 -0.4678 -1.1345
  119MOL   H12645202   0.284   3.256   4.659 -0.4999 -0.4524 -1.4300
  119MOL   H12745203   0.312   3.156   4.465  0.9487 -2.0381  2.0529
  119MOL   H12845204   0.441   3.118   4.230 -1.0989  1.1479 -0.6822
  119MOL   H12945205   0.441   3.273   4.146  0.1609  0.9742  1.4934
  119MOL   H13045206   0.584   3.204   4.220  1.2839  3.2334 -2.0138
  119MOL   H13145207   0.585   3.463   4.313  1.1070  0.6611  1.9331
  119MOL   H13245208   0.548   3.591   4.526  0.6157 -0.3165 -1.9090
  119MOL   H13345209   0.416   3.372   4.877  0.5277 -0.5558 -3.9914
  119MOL   H13445210   0.386   3.526   4.953  0.6551 -0.3070  1.0059
  119MOL   C13545211   0.593   3.477   4.877  0.0666  0.5269  0.6712
  119MOL   C13645212   0.643   3.381   4.987  0.3099  0.5094  0.2253
  119MOL   C13745213   0.690   3.422   5.112  0.1705  0.1212 -0.1749
  119MOL   C13845214   0.722   3.334   5.215 -0.2714  0.2484  0.7281
  119MOL   C13945215   0.703   3.197   5.205  0.3554  0.4708  0.3862
  119MOL   C14045216   0.723   3.100   5.330  0.4208 -0.1746 -0.3435
  119MOL   C14145217   0.657   3.147   5.082  0.1559 -0.1661  0.0423
  119MOL   C14245218   0.633   3.241   4.976  0.3543  0.8750  0.3786
  119MOL   C14345219   0.659   3.612   4.883 -0.5607 -0.1165 -0.6237
  119MOL   H14445220   0.624   3.429   4.784  0.9521 -0.4513  1.4554
  119MOL   H14545221   0.694   3.529   5.126  1.3663  0.1512 -0.7053
  119MOL   H14645222   0.751   3.387   5.305 -0.7751  0.5588  0.7149
  119MOL   H14745223   0.664   3.008   5.322 -0.9527  0.6762 -0.2033
  119MOL   H14845224   0.825   3.064   5.319  0.7412 -0.0263  1.9253
  119MOL   H14945225   0.710   3.138   5.432  2.9666  1.2412 -0.5079
  119MOL   H15045226   0.622   3.047   5.062  1.2665 -0.3462 -1.0545
  119MOL   H15145227   0.598   3.201   4.882 -0.6408 -0.3132  1.2406
  119MOL   H15245228   0.635   3.667   4.974 -1.5145 -2.1795  0.4065
  119MOL   H15345229   0.600   3.673   4.815  0.0110  0.7922 -0.3166
  119MOL   C15445230   0.817   3.619   4.873  0.2078 -0.5054  0.4730
  119MOL   C15545231   0.880   3.757   4.888 -0.5296 -0.8461  0.2859
  119MOL   C15645232   0.822   3.875   4.835 -0.2850  0.9721  0.3060
  119MOL   C15745233   0.870   4.003   4.857 -0.1035  0.1104 -0.1287
  119MOL   C15845234   0.993   4.020   4.930 -0.2042 -0.3453  0.7019
  119MOL   C15945235   1.043   4.161   4.966  0.4929 -0.3191  0.0518
  119MOL   C16045236   1.060   3.903   4.974  0.0258 -0.1003 -0.4872
  119MOL   C16145237   1.005   3.772   4.950  0.5066  0.1804 -0.6949
  119MOL   C16245238   0.865   3.566   4.737 -1.0775  0.6084 -0.6171
  119MOL   H16345239   0.853   3.553   4.952  0.9406 -0.0688  0.5074
  119MOL   H16445240   0.739   3.871   4.766 -0.6854  1.4944  0.7538
  119MOL   H16545241   0.819   4.087   4.813 -0.0922  0.3816  0.3756
  119MOL   H16645242   1.008   4.238   4.897 -1.2978  1.1293  2.5025
  119MOL   H16745243   1.012   4.186   5.067 -1.6030  1.7076 -1.0510
  119MOL   H16845244   1.152   4.173   4.962  0.4464  0.0412 -0.1867
  119MOL   H16945245   1.158   3.911   5.019  0.3005  2.4080 -1.4365
  119MOL   H17045246   1.070   3.687   4.966  0.4929  0.4102  0.6336
  119MOL   H17145247   0.949   3.633   4.717 -0.1009 -0.2144  0.6472
  119MOL   H17245248   0.793   3.594   4.660 -1.3950 -0.7531 -0.8332
  119MOL   C17345249   0.908   3.420   4.721  0.2267  0.3206 -0.8936
  119MOL   C17445250   1.027   3.383   4.810  0.0643 -0.2755 -0.1817
  119MOL   C17545251   1.018   3.277   4.897 -0.0352  0.0952  0.5767
  119MOL   C17645252   1.115   3.255   4.996  0.2024 -0.5676 -0.3491
  119MOL   C17745253   1.230   3.330   4.994 -0.2977  0.2384 -0.0029
  119MOL   C17845254   1.338   3.297   5.089 -0.3425  1.3620 -0.0425
  119MOL   C17945255   1.251   3.431   4.896  0.7306  0.0464  0.9020
  119MOL   C18045256   1.146   3.452   4.804 -0.0480  0.7020 -0.3602
  119MOL   C18145257   0.933   3.387   4.569  0.1377  0.0699  0.6027
  119MOL   H18245258   0.820   3.370   4.762  0.6907  0.5121  0.3581
  119MOL   H18345259   0.933   3.209   4.899 -0.2603  0.3664  0.3178
  119MOL   H18445260   1.101   3.182   5.075  0.1163 -0.9532 -0.7158
  119MOL   H18545261   1.415   3.246   5.031 -1.3550 -2.1110  1.5969
  119MOL   H18645262   1.373   3.382   5.149 -0.8861  0.8516  0.9950
  119MOL   H18745263   1.300   3.220   5.156  2.9603  0.5750  1.0306
  119MOL   H18845264   1.337   3.496   4.889 -1.3182  2.6783 -0.9193
  119MOL   H18945265   1.155   3.535   4.736  1.8831  1.1620  0.4131
  119MOL   H19045266   1.013   3.444   4.522 -0.8589  1.4383  0.5230
  119MOL   H19145267   0.840   3.421   4.522  0.9763  3.7186  1.4286
  119MOL   C19245268   0.958   3.239   4.527  0.4530  0.3984  0.4273
  119MOL   C19345269   1.001   3.235   4.376  0.4366 -0.2300  0.0839
  119MOL   C19445270   1.136   3.209   4.344 -0.5279  0.3588  0.4630
  119MOL   C19545271   1.182   3.204   4.212 -0.1473 -0.3395 -0.6931
  119MOL   C19645272   1.091   3.239   4.111  0.1676  1.1059 -0.2855
  119MOL   C19745273   1.139   3.228   3.965  0.5992  0.0173  0.3148
  119MOL   C19845274   0.958   3.283   4.141 -0.1777 -0.2547 -0.0533
  119MOL   C19945275   0.918   3.275   4.275  0.1158  0.2026  0.5082
  119MOL   C20045276   0.844   3.142   4.559 -0.2935 -0.3321 -0.0193
  119MOL   H20145277   1.046   3.214   4.585  0.1178  3.1280  2.2194
  119MOL   H20245278   1.207   3.171   4.415 -0.8696  0.2993  0.7753
  119MOL   H20345279   1.287   3.184   4.196  0.3315  1.0973  0.5033
  119MOL   H20445280   1.084   3.300   3.904  1.6253  0.3271 -0.2539
  119MOL   H20545281   1.246   3.240   3.950  0.9627 -2.6051  0.7024
  119MOL   H20645282   1.108   3.132   3.923  0.1196  0.4169 -0.2564
  119MOL   H20745283   0.888   3.300   4.060  1.4491 -2.6099 -2.0468
  119MOL   H20845284   0.819   3.308   4.301  0.3156  0.0846  1.4434
  119MOL   H20945285   0.756   3.180   4.508 -0.6985 -0.8233  0.3054
  119MOL   H21045286   0.816   3.157   4.663  1.3040 -1.8543  0.6542
  119MOL   C21145287   0.850   2.991   4.517 -0.5463  0.1533 -0.3321
  119MOL   C21245288   0.716   2.935   4.484  0.2484 -0.2705  0.1657
  119MOL   C21345289   0.687   2.881   4.361 -0.3864  0.4977 -0.4799
  119MOL   C21445290   0.565   2.820   4.335 -0.3345 -0.0363 -0.4454
  119MOL   C21545291   0.462   2.822   4.431  0.1584  0.1213 -0.3147
  119MOL   C21645292   0.324   2.764   4.402  0.1175  0.1217  0.4978
  119MOL   C21745293   0.492   2.888   4.551 -0.3562 -0.2300 -0.5863
  119MOL   C21845294   0.622   2.941   4.583  0.1326  0.2211 -0.0305
  119MOL   C21945295   0.926   2.918   4.625  0.2084  0.5882 -0.0717
  119MOL   H22045296   0.906   2.991   4.424 -0.4784  0.9736 -0.2962
  119MOL   H22145297   0.760   2.882   4.282  3.1998 -0.5002  2.6756
  119MOL   H22245298   0.549   2.771   4.240 -1.3363  3.4841 -2.1701
  119MOL   H22345299   0.338   2.668   4.352  2.4276  0.9419 -0.4559
  119MOL   H22445300   0.269   2.765   4.497 -0.2317 -0.5966  0.3109
  119MOL   H22545301   0.274   2.816   4.320  0.4797 -1.9065 -1.0537
  119MOL   H22645302   0.410   2.896   4.622  1.5764  0.4785  1.6354
  119MOL   H22745303   0.631   3.002   4.671 -1.0450 -2.1808  1.7952
  119MOL   H22845304   0.872   2.913   4.719 -0.3228  2.8085 -0.2421
  119MOL   H22945305   1.021   2.967   4.646  0.2708 -1.2288  4.3896
  119MOL   C23045306   0.961   2.766   4.594  0.1807 -0.0576  1.0930
  119MOL   C23145307   0.980   2.674   4.718  0.0452 -0.1628  0.9561
  119MOL   C23245308   0.954   2.535   4.703 -0.3601  0.1941  0.2569
  119MOL   C23345309   0.967   2.442   4.810  0.8429 -0.4038 -0.4740
  119MOL   C23445310   0.996   2.497   4.937  0.0399 -0.0942  0.0698
  119MOL   C23545311   0.999   2.403   5.057 -0.0999  0.4661  0.5509
  119MOL   C23645312   1.026   2.631   4.953  0.1173 -0.1371 -0.8618
  119MOL   C23745313   1.013   2.723   4.847  0.0731 -0.1892  0.0887
  119MOL   C23845314   1.075   2.748   4.477 -0.2181 -0.4143  0.4235
  119MOL   H23945315   0.866   2.724   4.562  2.2427 -2.1159 -2.7407
  119MOL   H24045316   0.929   2.504   4.603 -0.4103  1.1248 -0.0211
  119MOL   H24145317   0.944   2.340   4.783 -2.4020 -0.1424  1.0900
  119MOL   H24245318   1.026   2.299   5.036  1.2007  0.5165  1.9186
  119MOL   H24345319   1.058   2.440   5.140  1.5811  2.1368 -1.3200
  119MOL   H24445320   0.900   2.396   5.103 -0.0959 -2.1959  0.2434
  119MOL   H24545321   1.050   2.664   5.053 -1.5111  1.4222 -0.9725
  119MOL   H24645322   1.052   2.823   4.861 -0.1000 -0.3109  1.4384
  119MOL   H24745323   1.103   2.844   4.436  0.9214 -0.9646 -0.1076
  119MOL   H24845324   1.027   2.687   4.400  2.1197 -0.9073 -0.6940
  119MOL   C24945325   1.208   2.680   4.516  0.3416  0.2219  0.8597
  119MOL   C25045326   1.284   2.753   4.626  0.6324 -0.7590  0.1374
  119MOL   C25145327   1.354   2.689   4.728  0.0004  0.2789  0.4959
  119MOL   C25245328   1.428   2.754   4.824 -0.1325 -0.9048 -0.4493
  119MOL   C25345329   1.428   2.896   4.827  0.0709  0.0027  0.5558
  119MOL   C25445330   1.490   2.975   4.941 -0.0208  0.2696  0.8749
  119MOL   C25545331   1.359   2.966   4.726  0.3454  0.1651  0.2157
  119MOL   C25645332   1.292   2.897   4.624 -0.1909 -0.9727  0.5941
  119MOL   C25745333   1.312   2.665   4.409 -0.2629 -0.2539 -0.4445
  119MOL   H25845334   1.185   2.578   4.545 -0.5015  0.1155 -0.1535
  119MOL   H25945335   1.354   2.581   4.722  1.4678  0.2730  0.3186
  119MOL   H26045336   1.469   2.685   4.896  0.6920 -0.8694 -0.8769
  119MOL   H26145337   1.535   3.067   4.903 -2.6366  2.0856  1.9613
  119MOL   H26245338   1.407   3.012   5.001 -1.2074 -2.7629  1.1836
  119MOL   H26345339   1.566   2.923   4.998 -0.0468  1.6262  2.1902
  119MOL   H26445340   1.366   3.074   4.728 -0.9089  0.3574 -2.7994
  119MOL   H26545341   1.238   2.950   4.547  1.5389 -0.5670 -0.3582
  119MOL   H26645342   1.404   2.623   4.451  1.0903  1.2052 -1.8768
  119MOL   H26745343   1.344   2.763   4.371  0.4935 -0.9147 -1.5425
  119MOL   C26845344   1.275   2.588   4.285 -0.4577  0.1175  0.2751
  119MOL   C26945345   1.240   2.446   4.306  0.3824  0.6208  0.3432
  119MOL   C27045346   1.342   2.344   4.286  0.4849  0.5912  0.4567
  119MOL   C27145347   1.293   2.209   4.271  0.3094 -0.2051  0.3345
  119MOL   C27245348   1.158   2.171   4.286 -0.1763 -0.4242  0.5697
  119MOL   C27345349   1.124   2.020   4.271  0.6752 -0.2295  0.1394
  119MOL   C27445350   1.060   2.279   4.298  0.0664  0.7503 -0.5337
  119MOL   C27545351   1.101   2.410   4.314 -0.3352 -0.6768 -0.7984
  119MOL   C27645352   1.367   2.607   4.170  0.4667  0.0690 -0.0019
  119MOL   H27745353   1.180   2.621   4.243 -0.2360  2.6027  1.6560
  119MOL   H27845354   1.443   2.382   4.287  1.2220 -1.3241  1.0765
  119MOL   H27945355   1.373   2.137   4.264  0.7233  0.2753  0.0930
  119MOL   H28045356   1.205   1.947   4.273  0.3070 -0.6393  0.4459
  119MOL   H28145357   1.066   2.003   4.362  3.9866  0.7411  2.5262
  119MOL   H28245358   1.060   2.002   4.185  1.0112 -0.3648 -0.0831
  119MOL   H28345359   0.957   2.249   4.312 -0.1533  1.3633 -0.8290
  119MOL   H28445360   1.022   2.482   4.327  0.3828 -0.2406  1.2899
  119MOL   H28545361   1.357   2.527   4.096  1.0460  0.3425 -0.3841
  119MOL   H28645362   1.472   2.594   4.196  0.6578 -0.6825 -1.0992
  119MOL   C28745363   1.350   2.747   4.089 -0.1134  0.1392 -0.0043
  119MOL   C28845364   1.198   2.778   4.046  0.1128 -0.6888 -0.4897
  119MOL   C28945365   1.133   2.887   4.108 -0.1512 -0.3952  0.1639
  119MOL   C29045366   0.999   2.905   4.072 -0.3009  0.6584  0.4797
  119MOL   C29145367   0.924   2.810   4.000  0.5515  0.3761 -0.7408
  119MOL   C29245368   0.781   2.831   3.975  0.8340  0.8743  0.8230
  119MOL   C29345369   0.983   2.700   3.950  0.2293  0.4388 -0.1245
  119MOL   C29445370   1.125   2.687   3.962  0.4448 -0.4570 -0.4642
  119MOL   C29545371   1.442   2.761   3.973  0.1245 -0.4451  0.5319
  119MOL   H29645372   1.379   2.826   4.158 -0.2245  0.9937 -0.9308
  119MOL   H29745373   1.181   2.963   4.167 -1.4444  0.9919 -0.5355
  119MOL   H29845374   0.947   2.991   4.111 -0.6829  0.3297  0.7052
  119MOL   H29945375   0.748   2.934   3.983  0.9403  0.9452  0.3625
  119MOL   H30045376   0.752   2.810   3.872  0.6981 -0.6188  1.1552
  119MOL   H30145377   0.723   2.763   4.038 -0.6207  0.9838 -0.3739
  119MOL   H30245378   0.926   2.625   3.897 -2.4696  1.7728  0.8049
  119MOL   H30345379   1.189   2.615   3.913  1.7193  0.4178 -0.1085
  119MOL   H30445380   1.405   2.822   3.890 -0.7231  1.4019  2.2307
  119MOL   H30545381   1.453   2.663   3.926  0.3042  0.8686 -2.2498
  119MOL   C30645382   1.574   2.812   4.021 -0.4751 -0.2925  0.3311
  119MOL   C30745383   1.591   2.963   4.065 -0.3784  0.5169  0.0101
  119MOL   C30845384   1.659   2.985   4.186  0.4927 -0.3786 -0.1370
  119MOL   C30945385   1.679   3.119   4.227 -0.1242 -0.0458 -0.5171
  119MOL   C31045386   1.638   3.229   4.152 -0.4326 -0.2406  0.0466
  119MOL   C31145387   1.667   3.371   4.193 -0.3924 -0.3003  0.7363
  119MOL   C31245388   1.564   3.210   4.035 -0.1912 -0.2713 -0.7972
  119MOL   C31345389   1.543   3.071   3.991  0.0160  0.2355  0.1053
  119MOL   C31445390   1.691   2.775   3.922  0.0133 -0.1290  0.0390
  119MOL   H31545391   1.607   2.756   4.109  0.7444 -0.5704 -0.2965
  119MOL   H31645392   1.687   2.907   4.256 -0.7177  0.5403  1.4159
  119MOL   H31745393   1.724   3.125   4.325 -0.8279 -1.2837 -0.1118
  119MOL   H31845394   1.775   3.379   4.197 -0.3885  1.3183 -1.7114
  119MOL   H31945395   1.623   3.447   4.128 -1.0089 -0.3871  1.0508
  119MOL   H32045396   1.633   3.382   4.296 -1.1736  0.9006  0.3582
  119MOL   H32145397   1.530   3.283   3.964 -0.8751 -1.8495 -2.1294
  119MOL   H32245398   1.500   3.057   3.893 -0.2357 -0.8737  0.3719
  119MOL   H32345399   1.769   2.849   3.942 -1.8661  1.4057  1.8472
  119MOL   H32445400   1.668   2.796   3.817  0.6733 -2.1339 -0.5355
  119MOL   C32545401   1.759   2.633   3.934  0.3115 -0.0126 -0.4080
  119MOL   C32645402   1.860   2.636   4.053 -0.0639  0.3849  0.0219
  119MOL   C32745403   1.969   2.725   4.052  0.5561  0.7044 -0.4984
  119MOL   C32845404   2.051   2.739   4.167 -0.4566  0.7944 -0.5444
  119MOL   C32945405   2.023   2.664   4.279  0.2870  0.1559 -0.7624
  119MOL   C33045406   2.110   2.686   4.396 -0.1855 -0.0903  0.0719
  119MOL   C33145407   1.918   2.569   4.279 -0.5647 -0.3579 -0.2818
  119MOL   C33245408   1.835   2.556   4.167 -0.5929  1.6484  0.0303
  119MOL   C33345409   1.827   2.588   3.803 -0.2910  0.7158 -0.6408
  119MOL   H33445410   1.675   2.564   3.947  0.5645 -0.2503 -0.0278
  119MOL   H33545411   1.997   2.771   3.959 -0.9408  0.9194 -0.8546
  119MOL   H33645412   2.124   2.814   4.141 -2.6469  2.6384 -1.5599
  119MOL   H33745413   2.043   2.700   4.481  2.1390 -0.4278  2.0331
  119MOL   H33845414   2.185   2.607   4.410  2.8570  2.5810 -0.5687
  119MOL   H33945415   2.168   2.778   4.392 -3.1001  1.8602  0.7395
  119MOL   H34045416   1.904   2.505   4.364 -0.8185 -0.8245 -0.6762
  119MOL   H34145417   1.752   2.488   4.180  1.5677 -0.9641  0.5178
  119MOL   H34245418   1.882   2.502   3.842  0.9598  2.2015  0.9758
  119MOL   H34345419   1.904   2.659   3.772  1.6647 -1.7832 -1.6744
  119MOL   C34445420   1.734   2.541   3.693  0.1706 -0.2127 -0.0736
  119MOL   C34545421   1.631   2.435   3.745 -0.6943  0.5202 -0.0129
  119MOL   C34645422   1.670   2.314   3.800 -0.2602 -0.9098 -0.1131
  119MOL   C34745423   1.568   2.224   3.842 -0.0620  0.4250  0.0762
  119MOL   C34845424   1.429   2.263   3.833 -0.4350  0.4597  0.1432
  119MOL   C34945425   1.336   2.164   3.895 -0.1305 -0.5176 -0.7528
  119MOL   C35045426   1.391   2.388   3.781  0.1252 -0.1859 -0.1119
  119MOL   C35145427   1.496   2.465   3.731  0.0616 -0.0041 -0.1081
  119MOL   C35245428   1.813   2.499   3.571 -0.2208  0.0290 -0.3501
  119MOL   H35345429   1.674   2.627   3.665  0.0678 -0.1086  0.4653
  119MOL   H35445430   1.775   2.292   3.813  0.1242  0.7185 -0.3441
  119MOL   H35545431   1.595   2.135   3.896 -1.1938 -0.8469 -1.3736
  119MOL   H35645432   1.328   2.065   3.851 -0.6506 -0.3980 -0.9272
  119MOL   H35745433   1.354   2.145   4.001 -0.3350 -1.1900 -0.8369
  119MOL   H35845434   1.238   2.210   3.881 -0.0825 -0.5840 -1.3096
  119MOL   H35945435   1.291   2.429   3.780  1.6895  3.8323 -0.1127
  119MOL   H36045436   1.467   2.557   3.682  0.9168 -0.0765 -0.7461
  119MOL   H36145437   1.765   2.409   3.531  0.1821 -0.0898 -0.5736
  119MOL   H36245438   1.905   2.455   3.610 -1.6345 -1.2022  1.6673
  119MOL   C36345439   1.835   2.603   3.469  0.7886 -0.3984  0.4734
  119MOL   C36445440   1.702   2.640   3.406 -0.5135 -1.1016  0.4152
  119MOL   C36545441   1.615   2.540   3.359 -0.0325  0.0130 -0.3991
  119MOL   C36645442   1.495   2.572   3.287  0.6380 -0.2432  0.2709
  119MOL   C36745443   1.466   2.706   3.267  0.3466 -0.2314 -0.6866
  119MOL   C36845444   1.342   2.741   3.197 -0.3499  0.9038 -0.3591
  119MOL   C36945445   1.548   2.805   3.323  1.0330  0.1613 -0.6216
  119MOL   C37045446   1.668   2.773   3.395 -0.3807 -0.6593 -0.6109
  119MOL   C37145447   1.934   2.545   3.365 -0.8629  0.4227  0.6046
  119MOL   H37245448   1.876   2.691   3.519 -2.2713  1.3791 -0.0132
  119MOL   H37345449   1.641   2.436   3.372 -1.2878 -0.0564  1.7554
  119MOL   H37445450   1.434   2.497   3.239  2.2030 -1.2063 -0.2414
  119MOL   H37545451   1.341   2.844   3.162 -0.6880  1.4279  1.1243
  119MOL   H37645452   1.340   2.681   3.106 -0.7447 -1.3619  1.1021
  119MOL   H37745453   1.258   2.722   3.264  0.2620 -0.0843  0.1338
  119MOL   H37845454   1.511   2.906   3.319 -0.0709 -0.1376  1.4123
  119MOL   H37945455   1.733   2.842   3.445 -0.0780 -2.6951  1.8811
  119MOL   H38045456   2.034   2.525   3.403  0.1228 -0.7052 -2.4114
  119MOL   H38145457   1.945   2.620   3.286 -0.9270  1.4843  1.5970
  119MOL   H38245458   1.899   2.459   3.308 -2.9978  2.1995 -0.8338
  120MOL     C145459   0.141   5.393   2.171 -0.1768 -0.1040  0.3332
  120MOL     C245460   0.050   5.374   2.051 -0.0345  0.2077 -0.2679
  120MOL     C345461   0.024   5.247   2.000  0.3155  0.3176  0.5239
  120MOL     C445462   8.019   5.234   1.889  0.6365  0.5766 -0.6491
  120MOL     C545463   7.961   5.351   1.833  0.1377  0.1427  0.2820
  120MOL     C645464   7.851   5.334   1.725  0.4427  0.2962  0.3897
  120MOL     C745465   7.987   5.477   1.884  0.0061  0.4866  0.6642
  120MOL     C845466   0.000   5.491   1.986 -0.3023  0.2672 -1.1401
  120MOL     C945467   0.083   5.317   2.289 -0.3188  0.0994  0.2290
  120MOL    H1045468   0.236   5.356   2.132  0.2743 -0.0502  1.3490
  120MOL    H1145469   0.069   5.155   2.036 -1.6138 -0.9704 -0.2667
  120MOL    H1245470   7.989   5.139   1.848  0.2522  0.0796  0.7633
  120MOL    H1345471   7.778   5.413   1.742 -1.4775 -1.5657  0.9936
  120MOL    H1445472   7.899   5.346   1.628  1.7443 -0.5215  0.9187
  120MOL    H1545473   7.811   5.234   1.745 -0.6355  1.1479  2.7114
  120MOL    H1645474   7.934   5.560   1.839 -1.1433  0.0635  1.2140
  120MOL    H1745475   0.024   5.589   2.024  0.4220  0.2452 -1.5276
  120MOL    H1845476   0.071   5.211   2.265 -0.6879  0.4928 -1.3837
  120MOL    H1945477   8.067   5.356   2.321 -0.3063 -1.5316  2.3530
  120MOL    H2045478   0.156   5.500   2.187  2.3961 -0.2711 -0.7198
  120MOL    C2145479   0.173   5.328   2.419 -0.3867  0.0360  0.2483
  120MOL    C2245480   0.322   5.303   2.387  0.4464 -0.1851 -0.5723
  120MOL    C2345481   0.366   5.181   2.343 -0.7136 -0.3029  0.3414
  120MOL    C2445482   0.499   5.152   2.313  0.6752  0.3341 -0.2105
  120MOL    C2545483   0.601   5.244   2.337  0.3869 -0.0286  0.0579
  120MOL    C2645484   0.746   5.200   2.318  0.0718 -0.2360  0.3227
  120MOL    C2745485   0.557   5.373   2.385  0.2203 -0.0162  0.5251
  120MOL    C2845486   0.421   5.401   2.412 -0.3320 -0.6407 -0.1911
  120MOL    C2945487   0.130   5.226   2.522 -0.0314  0.0315 -0.2689
  120MOL    H3045488   0.161   5.429   2.459 -0.2495  1.0438 -2.1703
  120MOL    H3145489   0.291   5.110   2.308 -0.8202 -1.1846  2.3137
  120MOL    H3245490   0.521   5.059   2.262 -1.9068 -1.4924  1.9134
  120MOL    H3345491   0.806   5.272   2.373 -0.7427  0.8261 -0.1785
  120MOL    H3445492   0.747   5.097   2.354  0.3923  0.1681  1.4894
  120MOL    H3545493   0.765   5.195   2.211 -2.0289 -1.8490 -0.0210
  120MOL    H3645494   0.632   5.448   2.404  0.2182  1.4784 -4.5825
  120MOL    H3745495   0.403   5.500   2.452 -0.1281 -1.5093  2.1464
  120MOL    H3845496   0.202   5.224   2.604  0.4282 -3.8220 -0.6748
  120MOL    H3945497   0.146   5.121   2.494 -1.6267  0.0738 -1.3799
  120MOL    C4045498   8.071   5.258   2.591  0.2080 -0.1881  0.4002
  120MOL    C4145499   8.074   5.382   2.693 -0.2943  0.4459 -0.0006
  120MOL    C4245500   0.084   5.375   2.802 -0.6403 -0.1245 -0.2829
  120MOL    C4345501   0.070   5.462   2.908  0.5446  0.2178  1.0416
  120MOL    C4445502   8.050   5.564   2.911 -0.0710 -0.7994 -0.5036
  120MOL    C4545503   8.036   5.666   3.019 -0.2247 -0.8599  0.4090
  120MOL    C4645504   7.960   5.569   2.796 -0.0124 -0.1998 -0.2286
  120MOL    C4745505   7.972   5.476   2.687  0.1219  0.5702  0.0016
  120MOL    C4845506   8.022   5.133   2.665  0.5949 -0.1576  0.3426
  120MOL    H4945507   7.996   5.287   2.518 -2.0834 -0.9651  2.3876
  120MOL    H5045508   0.166   5.304   2.804  0.3378  1.0060  0.3146
  120MOL    H5145509   0.148   5.452   2.983 -0.9523  0.4763  2.6813
  120MOL    H5245510   0.052   5.713   3.040 -0.7751  0.8279 -0.7258
  120MOL    H5345511   7.973   5.750   2.991 -0.5923 -0.8176  1.3466
  120MOL    H5445512   8.003   5.620   3.112  0.4186  1.1382  1.6725
  120MOL    H5545513   7.879   5.640   2.806 -1.7771 -2.3012  0.7725
  120MOL    H5645514   7.901   5.475   2.606  2.0326 -3.3287 -1.7794
  120MOL    H5745515   7.934   5.173   2.715 -0.4064  0.3924 -1.7705
  120MOL    H5845516   0.014   5.098   2.739  1.1978 -1.0948 -0.6582
  120MOL    C5945517   7.990   5.009   2.581 -0.0416  0.0181 -0.4379
  120MOL    C6045518   7.915   5.045   2.451 -0.9724  0.3321  0.5997
  120MOL    C6145519   7.793   5.114   2.456  0.2573 -0.4767 -0.5987
  120MOL    C6245520   7.739   5.167   2.338  0.4430  0.2026  0.3918
  120MOL    C6345521   7.789   5.133   2.215 -0.2300  0.6354  0.2773
  120MOL    C6445522   7.705   5.178   2.094  0.2743 -0.0883  0.4138
  120MOL    C6545523   7.906   5.058   2.206 -0.3769 -0.4618 -0.0202
  120MOL    C6645524   7.970   5.014   2.322 -0.1288  0.0099 -0.8329
  120MOL    C6745525   7.921   4.889   2.654 -0.1191 -0.3173  1.0457
  120MOL    H6845526   0.002   4.976   2.534  0.1658  0.4222 -0.3145
  120MOL    H6945527   7.750   5.139   2.552 -0.2239 -1.4061 -0.5740
  120MOL    H7045528   7.654   5.234   2.339 -0.5748 -1.0843  2.5694
  120MOL    H7145529   7.605   5.197   2.131 -0.4007  0.5343 -1.6768
  120MOL    H7245530   7.750   5.271   2.060 -1.8381  1.1249  0.8906
  120MOL    H7345531   7.693   5.109   2.011 -2.1017  1.3118 -0.4597
  120MOL    H7445532   7.947   5.029   2.110 -0.3770 -0.3211 -0.0621
  120MOL    H7545533   8.064   4.960   2.318 -0.4162 -0.6192  0.6322
  120MOL    H7645534   7.880   4.827   2.574  0.2556  2.3350 -1.2472
  120MOL    H7745535   7.832   4.925   2.704 -0.1041  0.3123  0.6191
  120MOL    C7845536   8.028   4.822   2.746  0.5303  0.5306  0.7161
  120MOL    C7945537   0.068   4.775   2.671 -0.2721  0.3801  0.2632
  120MOL    C8045538   0.052   4.697   2.552  0.2040 -0.1982  0.1373
  120MOL    C8145539   0.168   4.665   2.483  0.0690 -0.6226  0.2171
  120MOL    C8245540   0.292   4.697   2.528 -0.1781  0.1149 -0.1137
  120MOL    C8345541   0.414   4.651   2.449  0.3284  0.2709  0.3111
  120MOL    C8445542   0.312   4.774   2.644  0.1096 -1.0308  1.0490
  120MOL    C8545543   0.196   4.801   2.718  0.0819 -0.6958  0.5063
  120MOL    C8645544   7.986   4.707   2.837  0.3634 -0.1007 -0.2699
  120MOL    H8745545   8.049   4.915   2.799 -1.6331  1.2585  0.3576
  120MOL    H8845546   8.037   4.659   2.516  0.7086 -0.6674 -0.7273
  120MOL    H8945547   0.159   4.611   2.390 -0.2359  2.9201 -1.9480
  120MOL    H9045548   0.388   4.667   2.345  0.4332  0.1066  0.2596
  120MOL    H9145549   0.499   4.717   2.465  2.3192 -1.8203 -1.3561
  120MOL    H9245550   0.442   4.548   2.474  0.1169 -0.0200 -0.6359
  120MOL    H9345551   0.410   4.801   2.680  0.6420 -2.0079  0.3793
  120MOL    H9445552   0.214   4.845   2.814 -0.4880  0.7018 -0.0115
  120MOL    H9545553   8.079   4.682   2.887 -0.0311  0.3533  0.7000
  120MOL    H9645554   7.963   4.616   2.781  2.2858 -1.6733  1.4239
  120MOL    C9745555   7.878   4.725   2.942  0.8662 -0.7366 -0.7525
  120MOL    C9845556   7.903   4.844   3.033 -0.0893 -0.4061 -0.3541
  120MOL    C9945557   7.863   4.978   3.004  0.7216 -0.2137 -0.6145
  120MOL   C10045558   7.909   5.090   3.075  0.0096  0.6053  0.2562
  120MOL   C10145559   8.000   5.072   3.180 -0.0786  0.1271 -0.0788
  120MOL   C10245560   8.063   5.193   3.252 -0.2393  0.4620 -0.2058
  120MOL   C10345561   8.043   4.943   3.206  0.5217  0.3792 -0.1659
  120MOL   C10445562   7.987   4.829   3.143 -0.2932 -0.6022 -0.1723
  120MOL   C10545563   7.832   4.585   3.006  0.4446 -0.6082  0.3803
  120MOL   H10645564   7.794   4.758   2.881 -1.4300  0.9959  3.1621
  120MOL   H10745565   7.802   4.994   2.916 -0.9243  2.3087  0.9080
  120MOL   H10845566   7.861   5.184   3.055  1.3099  1.5665  1.5774
  120MOL   H10945567   8.033   5.178   3.356 -0.9713  1.5194 -0.2543
  120MOL   H11045568   0.090   5.208   3.239 -0.5012  2.0206 -0.7475
  120MOL   H11145569   8.014   5.284   3.217 -0.4255  0.3251 -0.2982
  120MOL   H11245570   0.036   4.933   3.285 -0.0392 -0.1316  0.2974
  120MOL   H11345571   8.027   4.734   3.176 -0.5121 -0.4714  0.4851
  120MOL   H11445572   7.929   4.548   3.041  1.5978  0.9861 -1.0517
  120MOL   H11545573   7.797   4.532   2.918  0.0659 -4.0720  2.5134
  120MOL   C11645574   7.724   4.582   3.115 -0.4445  0.4635  0.7203
  120MOL   C11745575   7.762   4.506   3.241  0.1524 -0.2944 -0.6051
  120MOL   C11845576   7.769   4.580   3.360  0.1377  0.4210 -0.4358
  120MOL   C11945577   7.779   4.508   3.488  0.6315 -0.5091  1.2635
  120MOL   C12045578   7.794   4.364   3.485  0.1897 -0.1820 -0.0280
  120MOL   C12145579   7.793   4.278   3.607 -0.2446 -1.1278  0.3723
  120MOL   C12245580   7.794   4.299   3.358  0.6508 -0.8764  0.0984
  120MOL   C12345581   7.776   4.367   3.237  0.1244 -0.2390  0.0609
  120MOL   C12445582   7.585   4.545   3.068  0.9728 -0.1187  0.5169
  120MOL   H12545583   7.714   4.689   3.134 -3.0898  0.3410  0.1709
  120MOL   H12645584   7.758   4.687   3.354 -0.4134  0.3449 -0.8261
  120MOL   H12745585   7.791   4.568   3.578  0.5109 -1.0978  1.6746
  120MOL   H12845586   7.728   4.192   3.594 -0.7525 -0.9259  1.4602
  120MOL   H12945587   7.891   4.232   3.619 -0.9252 -2.4731  0.9734
  120MOL   H13045588   7.763   4.328   3.700 -0.3371 -0.9644  0.2547
  120MOL   H13145589   7.799   4.191   3.349 -2.6270 -1.1464  1.1701
  120MOL   H13245590   7.762   4.319   3.142 -0.9110  0.6861 -0.2695
  120MOL   H13345591   7.514   4.538   3.151 -1.2856  3.1992 -1.0129
  120MOL   H13445592   7.586   4.442   3.032 -0.1498 -0.1328  0.4905
  120MOL   C13545593   7.518   4.625   2.953  0.3977 -0.1531  0.9228
  120MOL   C13645594   7.519   4.774   2.971  0.4293 -1.0682 -0.2412
  120MOL   C13745595   7.541   4.859   2.858  0.9554  0.3034  0.4904
  120MOL   C13845596   7.526   4.997   2.873 -0.2784 -0.4878  0.0401
  120MOL   C13945597   7.500   5.054   2.994 -0.4763 -0.8730 -0.7798
  120MOL   C14045598   7.497   5.203   3.026  0.0192  0.2457  0.0246
  120MOL   C14145599   7.487   4.974   3.108 -0.5341 -0.0261  0.4506
  120MOL   C14245600   7.484   4.832   3.093 -0.1495  0.4374  0.3025
  120MOL   C14345601   7.374   4.563   2.945 -0.3947 -0.3933 -0.5112
  120MOL   H14445602   7.564   4.599   2.858  1.1183 -1.3627  1.5967
  120MOL   H14545603   7.572   4.829   2.759  0.0149  0.0356  0.2672
  120MOL   H14645604   7.537   5.072   2.796 -1.4232 -1.4062 -1.0313
  120MOL   H14745605   7.598   5.243   3.031 -1.0643  3.2632 -1.4372
  120MOL   H14845606   7.446   5.261   2.949  0.2291 -0.7983 -0.9202
  120MOL   H14945607   7.442   5.227   3.117 -0.8059 -1.9934  0.1642
  120MOL   H15045608   7.489   5.018   3.206  1.1359 -1.7282  1.1908
  120MOL   H15145609   7.468   4.769   3.180 -0.5630 -2.4335 -1.7888
  120MOL   H15245610   7.327   4.580   3.042 -0.2837 -1.3775 -0.2816
  120MOL   H15345611   7.369   4.456   2.923 -2.3490 -0.1661 -1.2578
  120MOL   C15445612   7.285   4.630   2.839 -0.5176  0.1288  0.2699
  120MOL   C15545613   7.137   4.612   2.870 -0.1466 -0.0141  0.1487
  120MOL   C15645614   7.082   4.483   2.883  0.2891  0.8757 -0.0415
  120MOL   C15745615   6.947   4.463   2.911  0.5158  0.2587  0.3270
  120MOL   C15845616   6.860   4.574   2.916 -0.5493  0.0920  0.1072
  120MOL   C15945617   6.709   4.556   2.930 -0.6468 -0.2394 -0.4513
  120MOL   C16045618   6.916   4.704   2.900 -0.2608  0.6451  0.2644
  120MOL   C16145619   7.053   4.722   2.873 -0.2705  0.1326 -0.4038
  120MOL   C16245620   7.315   4.577   2.693  0.9037  0.0105  0.3335
  120MOL   H16345621   7.295   4.739   2.843  0.9819 -0.0654  2.5040
  120MOL   H16445622   7.154   4.402   2.884 -1.0840 -0.3738 -0.9190
  120MOL   H16545623   6.911   4.364   2.933  0.2759 -0.0814 -1.5821
  120MOL   H16645624   6.686   4.628   3.008  1.3813 -0.1564  0.1239
  120MOL   H16745625   6.661   4.589   2.838 -1.3816  0.1338  0.0614
  120MOL   H16845626   6.701   4.450   2.955  0.7065 -0.4144 -0.7109
  120MOL   H16945627   6.849   4.788   2.902 -1.0034  0.0851 -0.6796
  120MOL   H17045628   7.095   4.820   2.860  2.9407 -0.9453  1.3458
  120MOL   H17145629   7.268   4.480   2.683  0.8417  0.0492  0.2508
  120MOL   H17245630   7.421   4.573   2.668  1.0503 -0.5770  1.0271
  120MOL   C17345631   7.258   4.668   2.580 -0.3528 -0.0798 -0.1188
  120MOL   C17445632   7.256   4.587   2.449 -0.5572  0.0620 -0.4664
  120MOL   C17545633   7.372   4.522   2.394  0.3411 -0.7297 -0.9982
  120MOL   C17645634   7.368   4.446   2.275 -0.4776  0.5057  0.3897
  120MOL   C17745635   7.255   4.445   2.197 -0.7116 -0.0701  0.4107
  120MOL   C17845636   7.255   4.379   2.061 -0.6268  0.1475  0.1583
  120MOL   C17945637   7.136   4.504   2.250  0.1004  0.4347 -0.6147
  120MOL   C18045638   7.139   4.576   2.374  0.0961  0.1501 -0.1747
  120MOL   C18145639   7.344   4.800   2.570 -0.0993  0.3561  0.5535
  120MOL   H18245640   7.159   4.707   2.601 -0.2085  0.7118 -0.8991
  120MOL   H18345641   7.467   4.514   2.445  0.0438 -4.8254 -0.9213
  120MOL   H18445642   7.456   4.387   2.257 -0.7101 -0.2070  1.5006
  120MOL   H18545643   7.332   4.303   2.053  0.4085  1.3273 -1.1177
  120MOL   H18645644   7.165   4.320   2.040  0.4428 -0.9051 -1.5334
  120MOL   H18745645   7.270   4.439   1.972  2.1236 -1.3427 -0.4419
  120MOL   H18845646   7.046   4.502   2.191  0.0199 -1.5795 -0.4788
  120MOL   H18945647   7.043   4.609   2.412  0.1521 -1.7874  1.7366
  120MOL   H19045648   7.443   4.774   2.532  0.7051  2.6597  1.0140
  120MOL   H19145649   7.362   4.836   2.672  1.0221 -0.2717  0.5900
  120MOL   C19245650   7.294   4.926   2.501 -0.1605 -0.1437 -0.0468
  120MOL   C19345651   7.160   4.975   2.561  0.7423 -0.2949  0.2570
  120MOL   C19445652   7.160   5.064   2.668 -0.7131  0.1803 -0.1243
  120MOL   C19545653   7.032   5.093   2.728 -0.7586 -0.8256 -0.2018
  120MOL   C19645654   6.912   5.041   2.677 -0.0113 -0.4206 -0.2332
  120MOL   C19745655   6.777   5.068   2.743 -0.5185 -0.5720 -0.7687
  120MOL   C19845656   6.917   4.957   2.565  0.0256 -0.0218 -0.0759
  120MOL   C19945657   7.038   4.928   2.507 -0.5029 -0.1951  0.3766
  120MOL   C20045658   7.298   4.917   2.345  0.3253 -0.1949  1.0777
  120MOL   H20145659   7.363   5.007   2.525 -1.2252  0.6403  0.4243
  120MOL   H20245660   7.257   5.094   2.702 -0.8848  0.5338  0.0550
  120MOL   H20345661   7.035   5.150   2.820  1.6516 -0.2815 -0.5801
  120MOL   H20445662   6.716   5.147   2.697  0.7228 -0.8417 -2.9693
  120MOL   H20545663   6.712   4.981   2.743 -0.1574 -0.9194 -3.7332
  120MOL   H20645664   6.796   5.088   2.848 -1.6655 -0.5859 -0.5545
  120MOL   H20745665   6.831   4.909   2.522  1.6886 -1.5496 -1.7906
  120MOL   H20845666   7.036   4.847   2.436 -1.6287 -0.2037  0.4148
  120MOL   H20945667   7.240   4.826   2.326  0.5081 -0.6176  2.4135
  120MOL   H21045668   7.397   4.893   2.307 -0.1113  1.0475 -0.9122
  120MOL   C21145669   7.226   5.025   2.259 -0.5171 -0.1506  0.0480
  120MOL   C21245670   7.205   4.976   2.115 -0.3389 -0.0698 -0.4122
  120MOL   C21345671   7.308   4.912   2.039  0.2439  0.5067 -0.2198
  120MOL   C21445672   7.291   4.870   1.903 -0.1824  0.4840  0.3914
  120MOL   C21545673   7.169   4.888   1.842 -0.4348 -0.1047 -0.7031
  120MOL   C21645674   7.151   4.846   1.697  0.8796 -0.3412 -0.9837
  120MOL   C21745675   7.063   4.936   1.922 -0.1166  0.0307  0.1613
  120MOL   C21845676   7.081   4.981   2.054 -0.2710 -0.4660 -0.5255
  120MOL   C21945677   7.311   5.149   2.261  0.3531 -0.7619 -0.1319
  120MOL   H22045678   7.132   5.044   2.312  1.2684  0.7516  3.0009
  120MOL   H22145679   7.409   4.897   2.075 -0.3723 -0.5693  1.1241
  120MOL   H22245680   7.370   4.826   1.844 -0.3648  2.4288 -1.3487
  120MOL   H22345681   7.239   4.883   1.645  2.8325 -0.1977  2.2528
  120MOL   H22445682   7.139   4.738   1.690  1.6544 -0.6878  2.1781
  120MOL   H22545683   7.067   4.901   1.654  1.4046 -0.7478 -2.5619
  120MOL   H22645684   6.969   4.962   1.876  0.3688  0.3693 -0.6584
  120MOL   H22745685   6.992   5.030   2.091  1.9293  3.1697  0.1744
  120MOL   H22845686   7.310   5.202   2.166 -0.6051 -1.6909 -0.6502
  120MOL   H22945687   7.418   5.130   2.271  0.1079 -1.2436  1.6979
  120MOL   C23045688   7.262   5.257   2.366 -0.1513  0.1179 -0.7620
  120MOL   C23145689   7.129   5.318   2.330  0.8567 -0.5367  0.2525
  120MOL   C23245690   7.008   5.284   2.391  0.1666  0.6943 -0.0524
  120MOL   C23345691   6.885   5.339   2.354  0.3937 -0.1717 -0.3510
  120MOL   C23445692   6.883   5.441   2.256  0.4453 -0.5069  0.6772
  120MOL   C23545693   6.756   5.504   2.218  0.0404  0.6399  0.6736
  120MOL   C23645694   7.005   5.485   2.192 -0.2724 -0.4935  0.5208
  120MOL   C23745695   7.127   5.415   2.223 -0.6588  0.0702  0.2011
  120MOL   C23845696   7.365   5.362   2.394 -0.2815 -1.1923 -0.2914
  120MOL   H23945697   7.247   5.210   2.463  2.6825 -0.1664 -0.4339
  120MOL   H24045698   7.015   5.209   2.468  1.9603 -2.7521 -3.3762
  120MOL   H24145699   6.797   5.303   2.405 -0.3681  2.8020  0.5562
  120MOL   H24245700   6.723   5.593   2.273 -1.9465 -0.4505  1.2845
  120MOL   H24345701   6.766   5.532   2.113  0.6372 -3.7488 -0.5095
  120MOL   H24445702   6.671   5.437   2.231  0.2772  0.4296  1.1462
  120MOL   H24545703   7.001   5.567   2.122  1.0439  0.3277  1.3947
  120MOL   H24645704   7.215   5.455   2.175 -1.4731  0.8061 -0.7028
  120MOL   H24745705   7.389   5.412   2.300  1.2555 -1.4330 -0.0422
  120MOL   H24845706   7.460   5.316   2.421  0.7664  0.3171 -1.3296
  120MOL   C24945707   7.322   5.476   2.492 -0.8783  0.3861  0.1833
  120MOL   C25045708   7.432   5.578   2.478 -0.0729  0.4431  0.1472
  120MOL   C25145709   7.562   5.555   2.519 -0.4399  0.0178  0.2055
  120MOL   C25245710   7.657   5.661   2.508 -0.0619 -0.2943  0.4923
  120MOL   C25345711   7.625   5.784   2.444 -0.2371 -0.1554  0.1882
  120MOL   C25445712   7.719   5.899   2.426  0.1074 -0.3393 -0.0018
  120MOL   C25545713   7.490   5.802   2.399 -0.3741  0.1409 -0.3675
  120MOL   C25645714   7.398   5.701   2.416  0.0037  0.1391 -0.5483
  120MOL   C25745715   7.298   5.432   2.634  0.6520  0.0504 -0.5419
  120MOL   H25845716   7.229   5.521   2.457 -1.6141 -0.0876  1.5131
  120MOL   H25945717   7.581   5.457   2.559  2.4849  0.1089 -0.8148
  120MOL   H26045718   7.760   5.654   2.540 -0.0120  2.6552  1.1362
  120MOL   H26145719   7.662   5.986   2.458  2.2474  1.1512 -0.1318
  120MOL   H26245720   7.808   5.867   2.481 -1.2232 -2.8296  0.7653
  120MOL   H26345721   7.747   5.904   2.320  0.0244 -0.0903 -0.0124
  120MOL   H26445722   7.457   5.894   2.353 -1.1622  0.3295  0.5698
  120MOL   H26545723   7.295   5.714   2.386 -0.7286 -2.1345  0.8886
  120MOL   H26645724   7.390   5.398   2.682 -0.0035  0.0313  0.7025
  120MOL   H26745725   7.226   5.350   2.635 -2.3221  2.5858  1.0507
  120MOL   C26845726   7.226   5.540   2.721  0.6202  0.3922  0.5334
  120MOL   C26945727   7.228   5.512   2.874 -0.2781  0.7569 -0.6840
  120MOL   C27045728   7.232   5.620   2.966  0.4221 -0.1508  0.3879
  120MOL   C27145729   7.212   5.596   3.103 -0.0402 -0.3425  0.0331
  120MOL   C27245730   7.168   5.470   3.142 -0.4897  0.4352  0.0075
  120MOL   C27345731   7.114   5.452   3.285 -0.3292  0.8324  0.3064
  120MOL   C27445732   7.158   5.360   3.056 -0.6277 -0.3217  0.0836
  120MOL   C27545733   7.194   5.382   2.918  0.9858  0.1764 -0.3627
  120MOL   C27645734   7.076   5.571   2.670 -0.1793  0.5358  0.0563
  120MOL   H27745735   7.284   5.632   2.721  0.0221  0.7771  0.1173
  120MOL   H27845736   7.261   5.715   2.926  2.2347 -0.8915 -0.0649
  120MOL   H27945737   7.229   5.671   3.178  0.9412 -0.4013 -0.1285
  120MOL   H28045738   7.013   5.410   3.290 -0.7899  1.6658 -1.4686
  120MOL   H28145739   7.184   5.398   3.348 -0.6364  1.3280  1.0695
  120MOL   H28245740   7.094   5.554   3.318  0.1140  0.7745  0.7429
  120MOL   H28345741   7.124   5.265   3.094 -0.5538 -1.0163 -1.5240
  120MOL   H28445742   7.181   5.300   2.849 -0.8572 -1.0065  1.3025
  120MOL   H28545743   7.034   5.470   2.671 -0.0605  0.4822 -0.2854
  120MOL   H28645744   7.069   5.609   2.568 -0.6697  1.2752  0.3624
  120MOL   C28745745   6.980   5.652   2.755 -0.9004 -0.4418  0.4172
  120MOL   C28845746   6.838   5.608   2.719 -0.4005  1.1710  0.0328
  120MOL   C28945747   6.758   5.560   2.820 -0.1850 -0.6630 -0.6915
  120MOL   C29045748   6.625   5.525   2.796  0.1228  0.3395  0.5516
  120MOL   C29145749   6.567   5.536   2.668  0.7985  0.0920  0.0413
  120MOL   C29245750   6.419   5.516   2.646  0.3102  0.2217 -0.6529
  120MOL   C29345751   6.655   5.582   2.568 -0.1254  0.3318 -1.2496
  120MOL   C29445752   6.788   5.623   2.590 -0.5829  0.3439 -0.0005
  120MOL   C29545753   6.997   5.802   2.759  0.5807 -0.1710 -0.0814
  120MOL   H29645754   7.003   5.610   2.852  0.9112  0.7754  0.5494
  120MOL   H29745755   6.791   5.550   2.923  0.7064  1.0430 -0.8021
  120MOL   H29845756   6.560   5.498   2.878 -2.8520 -1.2834 -2.2308
  120MOL   H29945757   6.371   5.599   2.594 -0.3499 -0.6378 -1.4360
  120MOL   H30045758   6.398   5.435   2.576 -1.1529  0.4288 -0.4652
  120MOL   H30145759   6.369   5.488   2.739  2.0820 -1.0855 -0.0619
  120MOL   H30245760   6.614   5.596   2.469  2.4354  1.1385 -2.2342
  120MOL   H30345761   6.842   5.679   2.515 -0.6146  1.2150  0.6148
  120MOL   H30445762   6.985   5.845   2.659 -2.2211  0.1425  0.3542
  120MOL   H30545763   7.105   5.810   2.775  0.8119 -1.0295 -1.2031
  120MOL   C30645764   6.906   5.868   2.860  0.6091  0.0278 -0.2130
  120MOL   C30745765   6.936   6.019   2.843 -0.0611  0.3147  0.0118
  120MOL   C30845766   7.062   6.076   2.879  0.1551 -0.1113 -0.3324
  120MOL   C30945767   7.078   6.217   2.888  0.6553  0.0166 -0.1394
  120MOL   C31045768   6.973   6.304   2.846 -0.0681  0.2235  0.2891
  120MOL   C31145769   7.000   6.455   2.844  0.3516  0.3588  0.2091
  120MOL   C31245770   6.855   6.252   2.803  0.2667 -0.2572  0.0054
  120MOL   C31345771   6.834   6.109   2.798 -0.5371  0.6727 -0.0813
  120MOL   C31445772   6.910   5.825   3.010 -0.3204  1.3212 -0.9842
  120MOL   H31545773   6.810   5.839   2.816 -0.0252 -0.2682  1.3278
  120MOL   H31645774   7.150   6.017   2.899  0.0657  0.1643  0.9373
  120MOL   H31745775   7.175   6.244   2.927  0.4133 -0.1327  0.5759
  120MOL   H31845776   6.929   6.506   2.909  1.1260 -0.7864  1.9804
  120MOL   H31945777   7.106   6.452   2.867  0.7063 -0.7432 -1.4897
  120MOL   H32045778   6.985   6.499   2.745  0.5622  2.2044  0.9847
  120MOL   H32145779   6.768   6.311   2.777 -0.4899 -1.7543 -0.9568
  120MOL   H32245780   6.735   6.070   2.777 -0.2320  0.5263 -1.2896
  120MOL   H32345781   7.008   5.852   3.050  0.0335 -1.6824  0.3790
  120MOL   H32445782   6.900   5.716   3.015 -1.4535  1.4692  0.2549
  120MOL   C32545783   6.794   5.874   3.099 -0.1623 -0.3050  0.7183
  120MOL   C32645784   6.815   5.832   3.240  0.4464  0.5977 -0.1404
  120MOL   C32745785   6.850   5.925   3.338  0.6118  0.5560  0.4857
  120MOL   C32845786   6.861   5.889   3.465 -0.1632 -0.1470  0.8249
  120MOL   C32945787   6.854   5.758   3.507  1.2893 -0.3275 -0.1084
  120MOL   C33045788   6.870   5.723   3.649 -0.2228  0.0379 -0.7676
  120MOL   C33145789   6.819   5.655   3.415 -0.5195  0.2499 -0.5421
  120MOL   C33245790   6.810   5.693   3.281  0.2032  0.4530  0.2753
  120MOL   C33345791   6.657   5.839   3.040  0.4839 -0.8335  0.6791
  120MOL   H33445792   6.809   5.982   3.092 -1.2386 -0.2802 -1.5342
  120MOL   H33545793   6.855   6.030   3.311 -0.9251  0.2448 -1.0932
  120MOL   H33645794   6.890   5.967   3.535  1.5501 -0.7132  0.7858
  120MOL   H33745795   6.776   5.719   3.705  0.1798 -0.0275 -0.0993
  120MOL   H33845796   6.911   5.623   3.657 -1.9701 -0.6667 -0.2508
  120MOL   H33945797   6.947   5.788   3.690 -1.3561 -0.6277  2.5979
  120MOL   H34045798   6.787   5.558   3.451 -1.1258  0.0578 -1.5611
  120MOL   H34145799   6.793   5.619   3.205 -0.3093  2.1622 -1.3040
  120MOL   H34245800   6.657   5.732   3.018  0.4232 -0.8125  0.5771
  120MOL   H34345801   6.650   5.891   2.944  1.5595 -0.3775  0.8432
  120MOL   C34445802   6.537   5.858   3.130 -0.3105  0.7015  0.1113
  120MOL   C34545803   6.472   5.724   3.167  0.7403  0.5054 -0.3121
  120MOL   C34645804   6.447   5.700   3.303 -0.2233  0.9617  0.0481
  120MOL   C34745805   6.347   5.602   3.337  0.2046 -0.6367  0.8669
  120MOL   C34845806   6.300   5.506   3.240  0.0577  0.5895 -0.0497
  120MOL   C34945807   6.227   5.385   3.297 -0.0545  0.0069  0.3808
  120MOL   C35045808   6.332   5.528   3.102 -0.2451  0.3129 -0.2909
  120MOL   C35145809   6.412   5.637   3.070  0.5161  0.7757  0.2294
  120MOL   C35245810   6.435   5.964   3.097 -1.2097  0.0166  0.0883
  120MOL   H35345811   6.577   5.890   3.227 -0.5837 -0.5629  0.6560
  120MOL   H35445812   6.472   5.767   3.384  1.2425 -0.9569  1.2110
  120MOL   H35545813   6.316   5.586   3.439 -1.1147  0.8937  0.7366
  120MOL   H35645814   6.248   5.288   3.252 -0.9630 -0.7507  1.5570
  120MOL   H35745815   6.252   5.364   3.400  0.7000  1.6032  0.5366
  120MOL   H35845816   6.121   5.402   3.277  0.0051  0.5788  0.5426
  120MOL   H35945817   6.305   5.453   3.028  0.4265 -0.8072  0.5741
  120MOL   H36045818   6.432   5.663   2.967 -1.7394 -1.3402 -0.8012
  120MOL   H36145819   6.355   5.972   3.171 -1.0521  0.9313  0.1681
  120MOL   H36245820   6.368   5.931   3.017 -1.3039 -0.2539  0.2766
  120MOL   C36345821   6.477   6.101   3.060 -0.1742 -0.2213 -0.2992
  120MOL   C36445822   6.576   6.165   3.162 -0.3229  0.3404 -0.0830
  120MOL   C36545823   6.563   6.155   3.304  0.1358 -0.1360 -0.0050
  120MOL   C36645824   6.647   6.234   3.383  0.9913  0.2112  0.5925
  120MOL   C36745825   6.735   6.324   3.326 -0.0663  0.0092 -0.1275
  120MOL   C36845826   6.832   6.402   3.411  0.2612  0.6465 -0.1497
  120MOL   C36945827   6.749   6.341   3.183 -0.2751 -0.3379 -0.2099
  120MOL   C37045828   6.673   6.249   3.103 -0.3575  0.1382  0.0832
  120MOL   C37145829   6.360   6.195   3.028  0.0997  0.0918 -0.0152
  120MOL   H37245830   6.534   6.079   2.970 -0.1596  1.9267 -0.8389
  120MOL   H37345831   6.498   6.087   3.357 -1.3966 -0.5728 -2.3848
  120MOL   H37445832   6.649   6.232   3.491 -1.0562  0.1052  0.6440
  120MOL   H37545833   6.900   6.465   3.354  1.1165  0.1943  0.3552
  120MOL   H37645834   6.785   6.459   3.491  1.3277  1.4531 -0.0874
  120MOL   H37745835   6.899   6.323   3.446  1.5715  1.6745 -0.3068
  120MOL   H37845836   6.827   6.406   3.146  2.1652 -1.6997  2.2744
  120MOL   H37945837   6.685   6.252   2.996  0.1884 -1.6123  0.0698
  120MOL   H38045838   6.389   6.288   2.979 -1.2908  0.7056  0.3227
  120MOL   H38145839   6.308   6.235   3.115 -2.1977  0.2943 -1.4473
  120MOL   H38245840   6.280   6.143   2.977 -0.2466  0.3412  0.2741
  121MOL     C145841   2.568   2.772   1.786  0.6336 -0.2321  0.9011
  121MOL     C245842   2.515   2.906   1.736 -0.8528 -0.1176 -0.0199
  121MOL     C345843   2.535   2.951   1.605  1.2844  0.6247 -0.2121
  121MOL     C445844   2.478   3.071   1.561 -0.4872  0.3543  0.2795
  121MOL     C545845   2.423   3.159   1.656 -0.2088 -0.0925 -0.4108
  121MOL     C645846   2.382   3.295   1.612  0.0307  0.4967  0.8627
  121MOL     C745847   2.408   3.121   1.787 -0.4363 -0.1579 -0.2202
  121MOL     C845848   2.461   2.998   1.823 -0.3486  0.0004  0.0279
  121MOL     C945849   2.451   2.667   1.795 -0.6084 -0.2808 -0.2196
  121MOL    H1045850   2.631   2.726   1.710 -0.4926 -0.3517  0.0210
  121MOL    H1145851   2.590   2.883   1.542  0.5077 -1.5452  1.3819
  121MOL    H1245852   2.492   3.102   1.459  0.2446 -2.3825 -0.4960
  121MOL    H1345853   2.278   3.309   1.583  0.6051 -0.4033 -1.7617
  121MOL    H1445854   2.410   3.347   1.704  2.7302 -0.6005  0.7069
  121MOL    H1545855   2.442   3.339   1.532 -1.1763 -0.7031 -0.7372
  121MOL    H1645856   2.362   3.193   1.852  2.6186  2.7022 -1.1088
  121MOL    H1745857   2.449   2.971   1.927 -1.8760 -1.0695 -0.4027
  121MOL    H1845858   2.404   2.680   1.697  0.4103 -1.5809 -0.8855
  121MOL    H1945859   2.378   2.706   1.866  0.3295 -1.9739  1.7237
  121MOL    H2045860   2.605   2.785   1.888 -0.2329  2.1867  0.9424
  121MOL    C2145861   2.489   2.525   1.827 -0.2043  0.3027  0.0117
  121MOL    C2245862   2.403   2.424   1.748  0.3844 -1.1940 -0.8065
  121MOL    C2345863   2.264   2.424   1.758  0.3873 -0.2960  0.0658
  121MOL    C2445864   2.182   2.344   1.678 -0.3436 -0.4024 -0.3203
  121MOL    C2545865   2.237   2.260   1.582  0.1465 -0.2375 -0.5568
  121MOL    C2645866   2.151   2.178   1.489  0.1014  0.0164 -0.4952
  121MOL    C2745867   2.380   2.252   1.579  0.6444 -0.1051 -0.3542
  121MOL    C2845868   2.463   2.339   1.657  0.7608 -0.0540  0.3966
  121MOL    C2945869   2.480   2.489   1.971 -0.2970 -0.0699  0.2059
  121MOL    H3045870   2.590   2.507   1.791 -0.0162  3.4445 -1.2197
  121MOL    H3145871   2.222   2.480   1.841 -0.1417 -1.4443  0.5950
  121MOL    H3245872   2.075   2.347   1.691 -0.3724  0.9211 -0.7171
  121MOL    H3345873   2.123   2.093   1.551  0.3385  0.7492  0.6183
  121MOL    H3445874   2.058   2.232   1.473 -0.8082 -1.4895 -0.4115
  121MOL    H3545875   2.183   2.146   1.390  1.5397  0.8465 -0.3183
  121MOL    H3645876   2.423   2.181   1.510 -1.1007 -0.6094 -0.9550
  121MOL    H3745877   2.570   2.328   1.652  0.8016  0.5144 -0.0736
  121MOL    H3845878   2.478   2.381   1.970  1.8934 -0.1285  0.0491
  121MOL    H3945879   2.388   2.529   2.015  0.1104  2.9989 -1.5242
  121MOL    C4045880   2.591   2.524   2.062  0.1703 -0.1231 -0.5188
  121MOL    C4145881   2.731   2.495   1.997  0.7783 -0.5017 -0.5916
  121MOL    C4245882   2.778   2.359   1.996 -0.3216 -0.6134 -0.2951
  121MOL    C4345883   2.896   2.321   1.926  0.4475  0.1563  0.1796
  121MOL    C4445884   2.970   2.422   1.871 -0.1712 -0.4008 -0.0084
  121MOL    C4545885   3.091   2.388   1.789 -0.5233  0.0606  0.0553
  121MOL    C4645886   2.930   2.557   1.891 -0.0315  0.7563 -0.2988
  121MOL    C4745887   2.808   2.599   1.945 -0.0202  0.1987  0.7501
  121MOL    C4845888   2.567   2.464   2.198  0.5613  0.7652 -0.1085
  121MOL    H4945889   2.592   2.633   2.073  0.0892 -0.3360  1.7259
  121MOL    H5045890   2.710   2.287   2.039  0.3256 -1.9132 -1.4052
  121MOL    H5145891   2.922   2.218   1.906  1.2590  0.6047 -1.1296
  121MOL    H5245892   3.179   2.411   1.849 -0.9975 -2.0754  1.6246
  121MOL    H5345893   3.092   2.282   1.765 -1.9028  0.1839 -0.6333
  121MOL    H5445894   3.108   2.455   1.704  0.1622  1.0409  0.9513
  121MOL    H5545895   3.001   2.624   1.845  0.9155  0.4015  0.6445
  121MOL    H5645896   2.783   2.704   1.946  2.5764  0.8386  0.9837
  121MOL    H5745897   2.651   2.482   2.265  0.6218  0.4761 -0.1079
  121MOL    H5845898   2.562   2.356   2.191  0.5944  0.7561  0.0108
  121MOL    C5945899   2.443   2.531   2.271  0.4774 -0.2284  0.0090
  121MOL    C6045900   2.470   2.673   2.326 -0.0891 -0.6633  0.4958
  121MOL    C6145901   2.414   2.776   2.258  0.6081  0.1793  0.0860
  121MOL    C6245902   2.438   2.913   2.288  0.2732 -0.4486 -0.0410
  121MOL    C6345903   2.522   2.940   2.398 -0.9145  0.3332  0.2162
  121MOL    C6445904   2.528   3.086   2.459  0.4263 -0.1082 -0.0142
  121MOL    C6545905   2.582   2.836   2.471  0.1206  0.2859  0.3614
  121MOL    C6645906   2.560   2.701   2.434 -0.3162  0.1660 -0.1012
  121MOL    C6745907   2.402   2.437   2.395 -0.2358 -0.1214 -0.1842
  121MOL    H6845908   2.350   2.544   2.216 -0.2026  1.1865  1.4585
  121MOL    H6945909   2.342   2.762   2.179 -0.2716  0.8622  0.7546
  121MOL    H7045910   2.385   2.995   2.243  1.2708  0.5508  0.5691
  121MOL    H7145911   2.512   3.163   2.383 -0.2440  1.4775  1.7091
  121MOL    H7245912   2.461   3.092   2.545  0.1884  0.4682 -0.2348
  121MOL    H7345913   2.627   3.102   2.502  0.9794 -1.3107 -0.8032
  121MOL    H7445914   2.637   2.852   2.562  2.4655 -1.4863 -0.6777
  121MOL    H7545915   2.605   2.622   2.493  0.1577 -0.8395 -1.7770
  121MOL    H7645916   2.350   2.497   2.470  1.7925 -1.2578  2.1867
  121MOL    H7745917   2.489   2.395   2.446  1.1285  1.6231 -1.0310
  121MOL    C7845918   2.311   2.320   2.353 -0.1802  0.4398 -0.4712
  121MOL    C7945919   2.181   2.372   2.287  0.4801 -0.5144  0.4191
  121MOL    C8045920   2.094   2.445   2.359  0.1976  0.0223 -0.3935
  121MOL    C8145921   1.979   2.505   2.301 -0.5438  0.6646 -0.0492
  121MOL    C8245922   1.949   2.484   2.164  0.0260 -0.3395 -0.8213
  121MOL    C8345923   1.831   2.547   2.094 -0.4275  0.1165  0.1188
  121MOL    C8445924   2.041   2.414   2.088  0.4254  0.3168  0.1015
  121MOL    C8545925   2.158   2.361   2.142 -0.3211  0.7552 -0.7902
  121MOL    C8645926   2.283   2.227   2.471  0.2986 -0.4063 -0.0031
  121MOL    H8745927   2.358   2.267   2.270 -2.1216 -1.4380 -0.4027
  121MOL    H8845928   2.107   2.475   2.462  0.8428  0.2459 -0.5381
  121MOL    H8945929   1.922   2.571   2.365 -0.1795 -0.1662  1.1525
  121MOL    H9045930   1.821   2.653   2.120  2.2367  0.2652  0.6229
  121MOL    H9145931   1.856   2.541   1.988 -0.3934  2.9452 -0.0785
  121MOL    H9245932   1.735   2.503   2.121 -1.5757  1.1365 -2.1441
  121MOL    H9345933   2.020   2.388   1.985  0.6947  0.0106  0.1248
  121MOL    H9445934   2.227   2.304   2.082  0.0007  0.9897 -0.6419
  121MOL    H9545935   2.247   2.297   2.547  0.3607  0.7316 -1.0158
  121MOL    H9645936   2.379   2.190   2.509  0.4598  0.4804  0.4834
  121MOL    C9745937   2.175   2.114   2.466 -0.3353  0.2175  0.2224
  121MOL    C9845938   2.155   2.060   2.608  0.1103  1.1114 -0.3531
  121MOL    C9945939   2.243   1.969   2.670 -0.4037 -0.6623  0.2784
  121MOL   C10045940   2.204   1.902   2.788  0.6812 -0.4356  0.6394
  121MOL   C10145941   2.087   1.932   2.850 -0.1370 -0.5211  1.0315
  121MOL   C10245942   2.048   1.849   2.970  0.1827  0.0165  0.7843
  121MOL   C10345943   1.997   2.028   2.796 -0.3360  0.4540 -0.3386
  121MOL   C10445944   2.033   2.090   2.677  0.1749 -0.1232  0.0002
  121MOL   C10545945   2.196   2.013   2.353  0.5462  0.5760 -0.7648
  121MOL   H10645946   2.080   2.164   2.446  0.2083  1.1326 -0.1074
  121MOL   H10745947   2.334   1.933   2.624 -0.0344  0.5491  0.0517
  121MOL   H10845948   2.272   1.830   2.832  2.9764  1.5814  0.5053
  121MOL   H10945949   1.946   1.812   2.967  1.0648 -2.4660  0.0135
  121MOL   H11045950   2.118   1.766   2.980  1.2404  0.4611 -2.5165
  121MOL   H11145951   2.061   1.917   3.055 -1.0937  1.6442 -0.2783
  121MOL   H11245952   1.910   2.061   2.850  1.5864  4.0389  0.6832
  121MOL   H11345953   1.955   2.153   2.637  0.1361 -0.5395 -0.5841
  121MOL   H11445954   2.292   1.972   2.385  0.1964  0.3297 -0.0162
  121MOL   H11545955   2.205   2.075   2.264 -0.8442  1.6446 -0.1902
  121MOL   C11645956   2.084   1.910   2.322  0.4321  0.6656  0.6754
  121MOL   C11745957   2.087   1.791   2.413 -0.5025 -1.1172 -0.0480
  121MOL   C11845958   2.196   1.703   2.432 -0.6207 -0.4137 -1.0068
  121MOL   C11945959   2.197   1.605   2.535 -0.2876 -0.2256 -0.0490
  121MOL   C12045960   2.084   1.587   2.611 -0.9146 -0.4396  0.4044
  121MOL   C12145961   2.078   1.496   2.724 -0.1212  0.0952 -0.3275
  121MOL   C12245962   1.965   1.664   2.581 -0.2316  0.2849  0.0584
  121MOL   C12345963   1.968   1.767   2.479  0.2454 -0.7674  0.1579
  121MOL   C12445964   2.091   1.868   2.178 -0.4021 -0.1288  0.2388
  121MOL   H12545965   1.990   1.956   2.353 -0.2647 -1.1227  1.2888
  121MOL   H12645966   2.281   1.727   2.369 -0.2267  0.5407 -0.1303
  121MOL   H12745967   2.286   1.544   2.546 -1.7128 -2.6640 -1.3359
  121MOL   H12845968   1.990   1.506   2.788  1.4778 -1.8888  2.2991
  121MOL   H12945969   2.076   1.397   2.678 -1.1218  0.2750 -0.6674
  121MOL   H13045970   2.169   1.502   2.784 -0.4125 -1.5424  0.3163
  121MOL   H13145971   1.876   1.652   2.640 -0.1343  1.4748  0.4610
  121MOL   H13245972   1.881   1.829   2.470  0.4157 -0.2012  2.2301
  121MOL   H13345973   2.088   1.760   2.166 -2.5534  0.0701 -1.3425
  121MOL   H13445974   2.179   1.901   2.124  0.2628  0.8249  1.8580
  121MOL   C13545975   1.962   1.907   2.101  0.6343  0.7768  0.0475
  121MOL   C13645976   1.834   1.870   2.175  0.3580 -0.0771  0.4207
  121MOL   C13745977   1.748   1.976   2.219 -1.0174  0.0384 -0.3071
  121MOL   C13845978   1.629   1.951   2.279 -0.0265 -0.0326 -0.4221
  121MOL   C13945979   1.597   1.819   2.312 -0.4190  0.1582 -0.0356
  121MOL   C14045980   1.458   1.796   2.356 -0.0453  0.4229 -0.1670
  121MOL   C14145981   1.682   1.712   2.277  0.0668 -0.0904 -0.1612
  121MOL   C14245982   1.798   1.738   2.202  1.4651 -0.6647  0.4685
  121MOL   C14345983   1.968   1.858   1.957 -0.0841  0.2597 -0.1310
  121MOL   H14445984   1.952   2.015   2.090 -0.1062  0.5493 -1.6758
  121MOL   H14545985   1.782   2.077   2.207 -1.1469  0.4128  2.2164
  121MOL   H14645986   1.571   2.035   2.315  1.4694  0.0918  1.8093
  121MOL   H14745987   1.417   1.879   2.414 -0.0501  0.4567 -0.2188
  121MOL   H14845988   1.391   1.791   2.270 -0.4763  1.0884  0.1279
  121MOL   H14945989   1.454   1.712   2.426 -0.6865  0.0485 -0.6437
  121MOL   H15045990   1.658   1.610   2.304 -3.4213 -0.0238 -2.6091
  121MOL   H15145991   1.864   1.663   2.161  0.6236  0.1139 -2.4310
  121MOL   H15245992   1.980   1.750   1.959  1.8727  0.4603 -0.5456
  121MOL   H15345993   2.049   1.903   1.899 -0.4366 -1.0669 -1.6832
  121MOL   C15445994   1.838   1.876   1.871  0.5222  0.1577 -0.8393
  121MOL   C15545995   1.870   1.802   1.742  0.3709 -0.1087  0.0835
  121MOL   C15645996   1.977   1.838   1.660 -0.0501  0.1411 -0.6797
  121MOL   C15745997   2.000   1.772   1.541  0.3985 -0.0676  0.5716
  121MOL   C15845998   1.930   1.654   1.511  0.5078  0.9347  0.2077
  121MOL   C15945999   1.959   1.575   1.385 -0.2596 -0.0506 -0.0709
  121MOL   C16046000   1.827   1.610   1.591 -0.5676 -0.2018  0.2931
  121MOL   C16146001   1.790   1.693   1.704 -0.6815 -0.4637 -0.4182
  121MOL   C16246002   1.805   2.025   1.845 -0.3966 -0.0272  0.0319
  121MOL   H16346003   1.751   1.825   1.914 -0.2211 -0.3770 -2.9216
  121MOL   H16446004   2.033   1.925   1.689 -0.2088  0.0386 -0.0746
  121MOL   H16546005   2.077   1.811   1.476 -0.4313 -1.9001 -1.5795
  121MOL   H16646006   1.923   1.472   1.390  0.7972 -0.5729 -2.4643
  121MOL   H16746007   1.906   1.627   1.305  0.2150  1.2132  0.4177
  121MOL   H16846008   2.067   1.580   1.371 -0.4270 -0.0853 -1.4102
  121MOL   H16946009   1.754   1.532   1.573 -1.6128  0.4049  1.8622
  121MOL   H17046010   1.709   1.665   1.770 -0.1130 -0.3770  0.3268
  121MOL   H17146011   1.898   2.067   1.808  0.9113 -1.6976  1.3620
  121MOL   H17246012   1.784   2.071   1.941  2.8595 -0.7156  1.1136
  121MOL   C17346013   1.708   2.055   1.732  0.2665 -0.2491 -0.2600
  121MOL   C17446014   1.724   2.201   1.692  0.0890 -0.2715 -0.2043
  121MOL   C17546015   1.676   2.310   1.771 -0.0921  0.1674 -0.8305
  121MOL   C17646016   1.677   2.442   1.726  0.0497  0.5071  0.4334
  121MOL   C17746017   1.748   2.473   1.610 -0.1105 -0.2283 -0.6554
  121MOL   C17846018   1.764   2.617   1.569 -0.4362 -0.2110 -0.1499
  121MOL   C17946019   1.818   2.373   1.543  0.5048  0.0061  0.0388
  121MOL   C18046020   1.800   2.236   1.578 -0.0763 -0.6252  0.2794
  121MOL   C18146021   1.563   2.026   1.769  0.8167  0.1678 -0.2017
  121MOL   H18246022   1.739   1.993   1.648 -0.3238 -2.3706  1.0264
  121MOL   H18346023   1.625   2.284   1.863 -0.2042 -2.5330 -1.6201
  121MOL   H18446024   1.633   2.510   1.797 -1.0880 -0.1017  0.3293
  121MOL   H18546025   1.872   2.631   1.578 -0.4027 -1.3123  1.4361
  121MOL   H18646026   1.738   2.633   1.465  2.2409  0.2606 -0.7847
  121MOL   H18746027   1.707   2.678   1.639 -0.0160  1.3487 -1.1396
  121MOL   H18846028   1.865   2.404   1.451  0.9017  0.0625  0.2614
  121MOL   H18946029   1.856   2.162   1.521 -0.0318 -0.2432 -0.1700
  121MOL   H19046030   1.494   2.111   1.769 -1.6250 -1.7523  0.9445
  121MOL   H19146031   1.555   1.999   1.874 -2.1529  0.1803 -0.3756
  121MOL   C19246032   1.508   1.910   1.687  0.0116 -0.2997 -0.5295
  121MOL   C19346033   1.514   1.933   1.540  0.1591  0.2513 -0.0382
  121MOL   C19446034   1.492   2.058   1.476 -0.2820  0.3019  0.3838
  121MOL   C19546035   1.490   2.070   1.338 -0.2548  0.9441  0.4190
  121MOL   C19646036   1.512   1.948   1.264  0.4130 -0.6813  0.5618
  121MOL   C19746037   1.515   1.952   1.112 -0.7889  0.5683  1.1805
  121MOL   C19846038   1.527   1.825   1.323 -0.1378 -0.5689  0.1852
  121MOL   C19946039   1.529   1.815   1.463  0.0115 -0.1482  0.5646
  121MOL   C20046040   1.357   1.877   1.727  0.0457 -0.0756 -0.6527
  121MOL   H20146041   1.583   1.833   1.704  1.7418  1.4861  0.1629
  121MOL   H20246042   1.479   2.148   1.535 -1.5159  0.3019  0.1158
  121MOL   H20346043   1.483   2.167   1.292 -0.0926  0.8953  0.2883
  121MOL   H20446044   1.559   2.048   1.085 -0.0701 -0.1826 -0.3875
  121MOL   H20546045   1.565   1.867   1.064 -0.7203  1.4467 -0.3096
  121MOL   H20646046   1.414   1.944   1.071 -0.3211  0.6074 -0.0124
  121MOL   H20746047   1.537   1.736   1.262  1.6671 -1.2351  1.4155
  121MOL   H20846048   1.546   1.719   1.509 -0.4714  1.0185  3.2985
  121MOL   H20946049   1.303   1.813   1.658  0.4770 -0.1194 -0.9502
  121MOL   H21046050   1.307   1.974   1.730 -1.3412 -0.8145  0.4455
  121MOL   C21146051   1.343   1.809   1.866  0.2374  0.3532 -0.4184
  121MOL   C21246052   1.419   1.674   1.873 -0.3540 -0.2506  0.2908
  121MOL   C21346053   1.504   1.647   1.983  0.2452  0.1201  0.6832
  121MOL   C21446054   1.575   1.530   1.987  0.3298 -0.4051  0.4152
  121MOL   C21546055   1.568   1.433   1.882 -0.2762 -0.1789 -0.4991
  121MOL   C21646056   1.660   1.308   1.886  0.5069  0.6046 -0.1964
  121MOL   C21746057   1.488   1.464   1.774  0.5749 -0.2186 -0.5215
  121MOL   C21846058   1.408   1.579   1.769  0.0118 -0.4569 -0.7685
  121MOL   C21946059   1.188   1.787   1.911 -0.5644 -0.5774  0.0576
  121MOL   H22046060   1.397   1.868   1.941  1.2448  3.4157 -3.4265
  121MOL   H22146061   1.518   1.717   2.064  1.6301 -0.4441  0.9482
  121MOL   H22246062   1.634   1.517   2.076 -1.7801 -1.6471  1.6861
  121MOL   H22346063   1.749   1.334   1.942 -0.3174  3.1444 -0.0005
  121MOL   H22446064   1.608   1.235   1.948  3.4355  0.2243  1.8642
  121MOL   H22546065   1.673   1.269   1.785 -0.6819  0.5983 -0.3566
  121MOL   H22646066   1.486   1.402   1.685 -0.2891  1.2569 -1.5410
  121MOL   H22746067   1.351   1.598   1.679  0.0245  1.3063 -0.4270
  121MOL   H22846068   1.191   1.737   2.008 -1.5813  2.9363  1.9791
  121MOL   H22946069   1.142   1.720   1.839 -0.8474 -1.3474  0.9510
  121MOL   C23046070   1.100   1.916   1.915 -1.0153 -0.4575 -0.3817
  121MOL   C23146071   1.167   2.019   2.004  0.3037 -0.7262 -0.5732
  121MOL   C23246072   1.216   2.147   1.954 -0.5254 -0.0437 -0.3255
  121MOL   C23346073   1.295   2.230   2.035  1.8256  0.1912  0.5502
  121MOL   C23446074   1.322   2.204   2.173  0.4970 -0.3734 -0.3346
  121MOL   C23546075   1.402   2.306   2.242 -0.3553  0.2307  0.7130
  121MOL   C23646076   1.266   2.083   2.227 -0.7939  0.7226 -0.2569
  121MOL   C23746077   1.187   1.996   2.143 -0.5666 -0.4405 -0.2182
  121MOL   C23846078   0.952   1.884   1.963  0.1669 -0.3101 -0.4429
  121MOL   H23946079   1.098   1.955   1.813 -1.8270  0.7493  0.0915
  121MOL   H24046080   1.205   2.161   1.848  0.7035  1.3885 -0.2732
  121MOL   H24146081   1.349   2.315   1.996  1.8205  0.4064  1.0029
  121MOL   H24246082   1.488   2.329   2.179  0.4595 -0.6305  1.4896
  121MOL   H24346083   1.332   2.388   2.251  1.0072  1.5138 -0.2550
  121MOL   H24446084   1.432   2.279   2.343 -0.5338 -1.0679  0.4364
  121MOL   H24546085   1.271   2.057   2.332 -2.9272  1.5627  0.0876
  121MOL   H24646086   1.146   1.901   2.177 -2.4083  0.2749 -0.3830
  121MOL   H24746087   0.962   1.840   2.062  0.4876 -1.0360 -0.7961
  121MOL   H24846088   0.919   1.797   1.906  1.3692  0.1100 -1.8060
  121MOL   C24946089   0.847   1.996   1.980  0.0735  0.1459 -0.0216
  121MOL   C25046090   0.731   1.941   2.067  0.0240  0.0967 -0.0524
  121MOL   C25146091   0.720   1.994   2.199  0.1682 -0.1658  0.2771
  121MOL   C25246092   0.604   1.967   2.274  0.2707 -0.3080 -0.0676
  121MOL   C25346093   0.510   1.872   2.232  0.5157  0.4649 -0.0148
  121MOL   C25446094   0.386   1.841   2.314  0.2636  0.1911  0.5978
  121MOL   C25546095   0.528   1.812   2.104  0.5604 -0.2759  0.1084
  121MOL   C25646096   0.644   1.840   2.026  0.4439 -0.7637 -0.4811
  121MOL   C25746097   0.805   2.050   1.839 -0.2076 -0.1172 -0.2766
  121MOL   H25846098   0.887   2.081   2.036 -3.7075  0.6973  1.9713
  121MOL   H25946099   0.791   2.071   2.223  1.9075 -1.1379 -1.6144
  121MOL   H26046100   0.567   2.019   2.361 -3.7669 -0.5728 -1.4921
  121MOL   H26146101   0.407   1.741   2.353  0.1498  0.7393  2.1065
  121MOL   H26246102   0.383   1.896   2.409  0.5768 -0.2241  0.8515
  121MOL   H26346103   0.293   1.834   2.258  1.1465  0.0648 -0.8625
  121MOL   H26446104   0.460   1.734   2.073  0.2604  0.2300 -0.5160
  121MOL   H26546105   0.657   1.788   1.932 -0.1190  0.3929 -1.2066
  121MOL   H26646106   0.758   1.966   1.788 -0.0046 -2.0753  2.5866
  121MOL   H26746107   0.903   2.059   1.792 -0.3816 -0.1422 -0.6405
  121MOL   C26846108   0.729   2.187   1.828  0.2282  0.2719 -0.8417
  121MOL   C26946109   0.578   2.174   1.869  0.1407  0.4699 -0.6233
  121MOL   C27046110   0.485   2.111   1.784  0.1013  0.0629 -0.0112
  121MOL   C27146111   0.348   2.106   1.830  0.2289 -0.2967 -0.3325
  121MOL   C27246112   0.315   2.140   1.959  0.1150  0.3833 -0.4002
  121MOL   C27346113   0.170   2.119   2.013 -0.5512  0.3418  0.5025
  121MOL   C27446114   0.409   2.202   2.042  0.1197 -0.4535 -0.3668
  121MOL   C27546115   0.539   2.223   1.998 -0.6705 -0.5630 -0.1959
  121MOL   C27646116   0.746   2.275   1.704  0.2259 -0.4171  0.3700
  121MOL   H27746117   0.777   2.241   1.910  1.8090 -1.1663 -0.7865
  121MOL   H27846118   0.515   2.060   1.694  1.4786  0.4354  0.2246
  121MOL   H27946119   0.271   2.057   1.771  0.8882  0.2290 -1.6377
  121MOL   H28046120   0.128   2.043   1.948 -0.6263  1.5110 -0.8440
  121MOL   H28146121   0.161   2.078   2.114  0.9729 -0.9723  0.1138
  121MOL   H28246122   0.102   2.203   1.995 -1.3689 -0.6721 -1.1949
  121MOL   H28346123   0.371   2.232   2.138  0.1980  0.2862 -0.5643
  121MOL   H28446124   0.607   2.276   2.063  1.3841 -2.1086 -1.0504
  121MOL   H28546125   0.848   2.311   1.710  0.8737 -1.7671 -2.0569
  121MOL   H28646126   0.680   2.362   1.706 -0.4944 -0.9660  2.4073
  121MOL   C28746127   0.725   2.211   1.555 -0.1304 -0.8698 -0.7353
  121MOL   C28846128   0.831   2.105   1.533 -0.2832 -0.0046  0.5926
  121MOL   C28946129   0.967   2.137   1.520  0.4956 -0.2688  0.2420
  121MOL   C29046130   1.059   2.036   1.490  1.2252 -0.0076  0.2233
  121MOL   C29146131   1.018   1.905   1.461 -0.0235  0.0156 -0.4717
  121MOL   C29246132   1.106   1.794   1.419  0.1878  0.7038 -0.7108
  121MOL   C29346133   0.881   1.873   1.473 -0.3734 -0.6241 -0.5928
  121MOL   C29446134   0.791   1.975   1.506 -0.5391 -0.0659  0.0675
  121MOL   C29546135   0.733   2.315   1.437 -0.2858  0.5971  0.1020
  121MOL   H29646136   0.631   2.158   1.539 -1.5460  1.2792  0.2367
  121MOL   H29746137   1.005   2.238   1.518  0.2583 -0.1904 -0.4360
  121MOL   H29846138   1.163   2.064   1.499  1.3070 -0.1806 -0.1662
  121MOL   H29946139   1.097   1.699   1.472 -1.0041  1.8757  1.2386
  121MOL   H30046140   1.077   1.762   1.319  0.1572 -0.0539 -0.4662
  121MOL   H30146141   1.212   1.816   1.430  0.0180  1.7897 -1.1727
  121MOL   H30246142   0.841   1.774   1.455 -1.1662 -0.2604 -0.8211
  121MOL   H30346143   0.684   1.956   1.503 -0.4373 -0.4705 -0.9334
  121MOL   H30446144   0.746   2.263   1.342 -1.6268 -0.6066  0.5661
  121MOL   H30546145   0.818   2.380   1.461 -0.3506  1.1183 -1.0640
  121MOL   C30646146   0.603   2.401   1.422 -0.3611  0.2568  0.6470
  121MOL   C30746147   0.480   2.317   1.404 -0.4393  0.0837 -0.0990
  121MOL   C30846148   0.377   2.321   1.500  0.3901  0.6550  0.2800
  121MOL   C30946149   0.270   2.236   1.483 -0.9164  0.0330  0.0014
  121MOL   C31046150   0.258   2.151   1.381  0.0673  0.0558 -0.0720
  121MOL   C31146151   0.146   2.059   1.366  0.0124 -0.7942 -0.8925
  121MOL   C31246152   0.363   2.139   1.285 -0.0800 -0.0671 -0.2118
  121MOL   C31346153   0.472   2.226   1.295 -0.1757 -0.5519  0.4015
  121MOL   C31446154   0.632   2.523   1.326  0.0726 -0.2210  0.8207
  121MOL   H31546155   0.589   2.444   1.521 -1.0923 -0.4767  0.8714
  121MOL   H31646156   0.378   2.392   1.582 -1.0842  0.7966  0.1794
  121MOL   H31746157   0.198   2.228   1.563 -0.8804  0.4736  0.0801
  121MOL   H31846158   0.097   2.049   1.269  1.4301 -1.4453 -1.5633
  121MOL   H31946159   0.188   1.965   1.402 -1.6995 -0.8011  1.1577
  121MOL   H32046160   0.072   2.110   1.427  2.2430  1.9012 -0.3176
  121MOL   H32146161   0.343   2.072   1.203  1.5903  2.2321 -2.5939
  121MOL   H32246162   0.559   2.211   1.234 -0.5123 -1.7350  0.2060
  121MOL   H32346163   0.666   2.489   1.228 -1.4636 -0.0800  0.2187
  121MOL   H32446164   0.710   2.584   1.370 -0.6954  0.4318  1.2905
  121MOL   C32546165   0.504   2.614   1.291 -0.4663 -0.0559  0.1653
  121MOL   C32646166   0.527   2.730   1.195 -0.6676  0.0268  0.5234
  121MOL   C32746167   0.419   2.773   1.116  0.5846 -1.1186 -0.3318
  121MOL   C32846168   0.442   2.864   1.016 -0.2274 -0.0366 -0.3791
  121MOL   C32946169   0.570   2.919   0.994  0.2728  0.4961 -0.9147
  121MOL   C33046170   0.593   3.008   0.868 -0.2371 -0.0119 -0.0152
  121MOL   C33146171   0.676   2.893   1.086  0.8373 -0.2498  0.1929
  121MOL   C33246172   0.653   2.790   1.184  0.5393 -0.5334  0.2772
  121MOL   C33346173   0.429   2.667   1.416 -0.5633 -0.5133  0.6512
  121MOL   H33446174   0.432   2.547   1.244 -0.8639  1.0780 -0.8636
  121MOL   H33546175   0.324   2.725   1.131  0.0871 -0.2216 -0.5948
  121MOL   H33646176   0.355   2.893   0.959 -0.9726 -3.4486 -1.0850
  121MOL   H33746177   0.656   2.950   0.801 -0.1746 -2.7675  2.3294
  121MOL   H33846178   0.510   3.040   0.806 -0.4358 -1.5742 -0.5724
  121MOL   H33946179   0.637   3.100   0.909  3.1132 -1.1148 -0.9414
  121MOL   H34046180   0.770   2.945   1.079  1.3761 -1.0137  1.5202
  121MOL   H34146181   0.729   2.758   1.255  2.7814  1.6850 -1.0471
  121MOL   H34246182   0.394   2.578   1.469 -0.8001 -0.0265  1.3173
  121MOL   H34346183   0.339   2.712   1.374 -0.6754 -0.6154  0.7805
  121MOL   C34446184   0.504   2.744   1.525 -0.1059 -0.4908 -0.6900
  121MOL   C34546185   0.454   2.706   1.661  0.5238 -0.9403  0.9912
  121MOL   C34646186   0.531   2.611   1.738  0.3991 -0.0452 -0.0420
  121MOL   C34746187   0.491   2.564   1.864 -0.4578  0.0698 -0.0042
  121MOL   C34846188   0.368   2.606   1.918  0.2315 -0.1166 -0.2821
  121MOL   C34946189   0.309   2.541   2.039  0.4975  0.2212 -0.0187
  121MOL   C35046190   0.295   2.709   1.851  0.6763 -0.1774 -0.5540
  121MOL   C35146191   0.337   2.759   1.728 -0.7131 -1.0692  0.0404
  121MOL   C35246192   0.506   2.895   1.506  0.6873  0.6159 -0.7399
  121MOL   H35346193   0.605   2.704   1.519  0.6535  1.1475  0.8923
  121MOL   H35446194   0.631   2.589   1.704  0.3376  1.1238 -1.0139
  121MOL   H35546195   0.562   2.510   1.925  2.0664  3.7390  0.4407
  121MOL   H35646196   0.368   2.592   2.115  1.4489  0.1586 -0.6933
  121MOL   H35746197   0.203   2.555   2.058 -0.1827 -1.2269 -2.5572
  121MOL   H35846198   0.326   2.433   2.036 -1.9059 -0.2481  1.8869
  121MOL   H35946199   0.214   2.755   1.906  1.4314 -1.2853  1.5407
  121MOL   H36046200   0.271   2.825   1.673  1.4497  0.3355 -0.9297
  121MOL   H36146201   0.416   2.946   1.539  0.1741  0.0229 -1.1939
  121MOL   H36246202   0.523   2.920   1.401  2.6082 -3.2039 -1.4464
  121MOL   C36346203   0.611   2.981   1.577 -0.7550  0.3858  0.3119
  121MOL   C36446204   0.748   2.960   1.508  0.0660  0.1267  0.4202
  121MOL   C36546205   0.798   3.058   1.419 -0.7554  0.2725  0.0866
  121MOL   C36646206   0.918   3.044   1.347  0.4605  0.6502 -0.5932
  121MOL   C36746207   0.990   2.920   1.365  0.4764  0.3298 -0.7267
  121MOL   C36846208   1.113   2.899   1.290  0.0444 -0.2092 -0.5732
  121MOL   C36946209   0.947   2.825   1.455 -0.6067  0.9829 -0.2360
  121MOL   C37046210   0.826   2.846   1.527 -0.3729  1.0082 -0.5897
  121MOL   C37146211   0.615   2.979   1.734  0.0764 -0.5160 -0.8661
  121MOL   H37246212   0.571   3.079   1.549  1.6559  1.7928  1.5863
  121MOL   H37346213   0.738   3.143   1.389  1.3122  2.0803  0.9428
  121MOL   H37446214   0.932   3.117   1.269  1.0231  0.4805 -0.6537
  121MOL   H37546215   1.188   2.854   1.354 -0.8407 -0.2790  0.4266
  121MOL   H37646216   1.098   2.825   1.211  2.6405 -0.3102 -1.0149
  121MOL   H37746217   1.136   2.994   1.241 -0.9930 -0.6241 -1.8986
  121MOL   H37846218   1.003   2.734   1.472  0.0806  1.4204 -0.1045
  121MOL   H37946219   0.791   2.769   1.594 -2.7431 -0.9090 -3.8674
  121MOL   H38046220   0.672   3.061   1.778 -1.1319 -0.3912  0.4965
  121MOL   H38146221   0.656   2.884   1.767 -1.6387 -1.5149 -1.5327
  121MOL   H38246222   0.515   2.986   1.776  0.1943  0.5303 -0.7398
  122MOL     C146223   0.253   1.331   2.091 -0.3296 -0.4937 -0.2837
  122MOL     C246224   0.370   1.390   2.015 -0.0841 -0.2897 -0.1155
  122MOL     C346225   0.475   1.453   2.079  0.5555 -0.1923 -0.2513
  122MOL     C446226   0.591   1.495   2.019  0.0977  0.3241  0.1941
  122MOL     C546227   0.602   1.472   1.882  0.7492 -0.2827 -0.5716
  122MOL     C646228   0.733   1.510   1.821 -0.3784 -0.3154 -0.4392
  122MOL     C746229   0.493   1.428   1.807 -0.1726  0.1222 -0.2798
  122MOL     C846230   0.378   1.384   1.876  0.4621  0.4252 -0.2268
  122MOL     C946231   0.279   1.213   2.189  0.4342 -0.1317  0.1500
  122MOL    H1046232   0.220   1.422   2.141 -1.2320 -1.3187  0.6305
  122MOL    H1146233   0.462   1.471   2.185 -2.0652 -1.8192 -0.2409
  122MOL    H1246234   0.669   1.544   2.074  0.1837 -0.0419  0.3983
  122MOL    H1346235   0.741   1.613   1.788 -1.2813  0.2848  1.1475
  122MOL    H1446236   0.809   1.477   1.892 -0.6132  0.2373  0.0645
  122MOL    H1546237   0.755   1.437   1.743 -0.9855 -3.0116  1.8299
  122MOL    H1646238   0.498   1.422   1.699  1.7168 -1.5994 -0.1349
  122MOL    H1746239   0.292   1.340   1.828 -1.3698 -0.6157  3.7824
  122MOL    H1846240   0.182   1.184   2.228 -0.2111  1.7624 -0.0033
  122MOL    H1946241   0.338   1.254   2.271  0.3741 -0.8479  0.5544
  122MOL    H2046242   0.171   1.304   2.024 -1.3015 -2.5667  1.6972
  122MOL    C2146243   0.347   1.089   2.116  0.3646 -0.5554 -0.1031
  122MOL    C2246244   0.242   1.020   2.033 -0.6867  0.9053  0.2446
  122MOL    C2346245   0.256   1.016   1.895 -0.4248  0.2208  0.5765
  122MOL    C2446246   0.175   0.938   1.813 -0.1322  0.1941  0.1363
  122MOL    C2546247   0.076   0.860   1.869 -0.2372 -0.1054 -0.0216
  122MOL    C2646248   8.064   0.782   1.781  0.3305 -0.0198 -0.0521
  122MOL    C2746249   0.055   0.864   2.009  0.1307 -0.5471 -0.7306
  122MOL    C2846250   0.140   0.938   2.090 -0.0067  0.1419 -0.2873
  122MOL    C2946251   0.423   1.001   2.218 -0.2949  0.1070  0.2509
  122MOL    H3046252   0.426   1.136   2.057 -0.3253 -0.1972 -0.7498
  122MOL    H3146253   0.330   1.085   1.857 -1.8101  2.2075  1.3912
  122MOL    H3246254   0.184   0.941   1.706 -2.5848  0.7007 -0.0962
  122MOL    H3346255   8.013   0.703   1.836 -0.6288  0.6759  0.0636
  122MOL    H3446256   7.987   0.851   1.746 -0.2446 -0.6012  0.0713
  122MOL    H3546257   0.030   0.744   1.690 -0.4963  0.0705 -0.5099
  122MOL    H3646258   8.058   0.795   2.039 -0.2199 -0.5198 -1.5522
  122MOL    H3746259   0.124   0.927   2.196  0.0615 -2.1140 -0.4937
  122MOL    H3846260   0.349   0.948   2.279  0.3142  0.8599  1.6584
  122MOL    H3946261   0.486   1.059   2.285 -1.2950  1.3644  0.1159
  122MOL    C4046262   0.527   0.915   2.149  0.7862 -0.0288  0.6076
  122MOL    C4146263   0.557   0.789   2.229  0.1301  0.1648  0.7084
  122MOL    C4246264   0.573   0.664   2.171  0.1741 -0.0553 -0.0775
  122MOL    C4346265   0.632   0.555   2.243  0.3945  0.5830 -0.2057
  122MOL    C4446266   0.661   0.568   2.380 -0.3388  0.1919 -0.4759
  122MOL    C4546267   0.736   0.464   2.454  0.1716 -0.0985 -0.2731
  122MOL    C4646268   0.639   0.695   2.443 -0.9623 -0.5629 -0.3395
  122MOL    C4746269   0.597   0.807   2.363 -0.8025  0.2873  0.5883
  122MOL    C4846270   0.657   0.989   2.100 -0.1481  0.3507  0.7754
  122MOL    H4946271   0.460   0.878   2.071 -1.4329  3.0177  0.9445
  122MOL    H5046272   0.551   0.652   2.066  1.6561  1.2633 -0.5602
  122MOL    H5146273   0.648   0.459   2.196 -1.2689  0.3540 -0.3263
  122MOL    H5246274   0.825   0.515   2.490 -1.0477  2.4620 -0.7425
  122MOL    H5346275   0.679   0.440   2.544 -3.0462 -0.0291 -2.2019
  122MOL    H5446276   0.761   0.382   2.388  2.2761  1.9300 -2.0617
  122MOL    H5546277   0.676   0.710   2.544 -1.1561  0.3215 -0.3991
  122MOL    H5646278   0.592   0.904   2.410 -3.2588  1.4926 -2.0676
  122MOL    H5746279   0.729   0.999   2.181  0.3864  0.4442  0.2916
  122MOL    H5846280   0.635   1.090   2.064  3.4003  0.8506 -0.2342
  122MOL    C5946281   0.735   0.913   1.985  0.2735 -0.3726 -0.3116
  122MOL    C6046282   0.858   0.991   1.938  0.5127  0.1966  0.8614
  122MOL    C6146283   0.846   1.121   1.883  0.7219 -0.1891 -0.6219
  122MOL    C6246284   0.962   1.198   1.860  0.3378  0.1410  0.4462
  122MOL    C6346285   1.089   1.144   1.893  0.2235  0.5457 -0.5812
  122MOL    C6446286   1.210   1.231   1.884  0.4290  0.1782 -0.2125
  122MOL    C6546287   1.101   1.010   1.941  0.0341 -0.0087 -0.7172
  122MOL    C6646288   0.984   0.935   1.964 -0.4140  0.4177 -0.1405
  122MOL    C6746289   0.643   0.879   1.864  0.3273  0.6320 -0.6574
  122MOL    H6846290   0.759   0.814   2.023 -1.0164 -0.8682 -0.7449
  122MOL    H6946291   0.749   1.166   1.871  1.1529  1.2622  1.0434
  122MOL    H7046292   0.955   1.297   1.816 -1.5505 -0.2512 -0.1744
  122MOL    H7146293   1.200   1.327   1.833  2.4129  0.9067  0.7314
  122MOL    H7246294   1.239   1.236   1.989 -1.9621 -2.4765  0.6504
  122MOL    H7346295   1.288   1.183   1.825  0.2338 -1.4400  0.8241
  122MOL    H7446296   1.193   0.963   1.974 -0.0327 -0.2981 -0.9425
  122MOL    H7546297   0.989   0.832   1.998  0.2559  0.5793  0.2432
  122MOL    H7646298   0.599   0.976   1.841 -0.6593  0.5859  0.9585
  122MOL    H7746299   0.551   0.826   1.889  1.1602  0.8492  3.0442
  122MOL    C7846300   0.713   0.818   1.738  0.3646  0.7116 -0.5617
  122MOL    C7946301   0.642   0.849   1.609  0.0642 -0.0752 -0.1730
  122MOL    C8046302   0.510   0.821   1.593  0.5245 -0.3680 -0.0964
  122MOL    C8146303   0.438   0.855   1.477 -0.3510  0.1908 -0.1124
  122MOL    C8246304   0.506   0.918   1.377  0.5635 -0.4480 -0.2538
  122MOL    C8346305   0.430   0.948   1.247 -0.4099  0.0098 -0.6079
  122MOL    C8446306   0.640   0.947   1.387 -0.0855 -0.1627  0.0053
  122MOL    C8546307   0.709   0.913   1.503  0.0792 -0.3262  0.1599
  122MOL    C8646308   0.726   0.665   1.748  0.1200 -0.1459  0.1404
  122MOL    H8746309   0.817   0.850   1.727 -0.2709  3.1558  0.1193
  122MOL    H8846310   0.452   0.789   1.679 -1.9289  1.2422 -1.1011
  122MOL    H8946311   0.331   0.840   1.473 -0.4912  0.6088  1.7562
  122MOL    H9046312   0.352   1.015   1.281 -1.2182 -0.6343 -1.1690
  122MOL    H9146313   0.496   1.006   1.183 -2.6496 -0.1679 -3.1958
  122MOL    H9246314   0.399   0.859   1.191 -0.9453  0.3469 -0.8556
  122MOL    H9346315   0.693   1.005   1.313 -2.3248 -1.0970 -2.4110
  122MOL    H9446316   0.813   0.940   1.514  0.1866 -1.7416  2.9205
  122MOL    H9546317   0.628   0.625   1.777  0.4916 -0.2349  1.2812
  122MOL    H9646318   0.785   0.650   1.838 -1.5753  0.4351  1.3683
  122MOL    C9746319   0.787   0.580   1.635 -0.3463  0.5908 -0.1306
  122MOL    C9846320   0.685   0.473   1.593  0.0076  0.2225  0.4729
  122MOL    C9946321   0.626   0.389   1.692 -0.7231  0.4938 -0.3716
  122MOL   C10046322   0.543   0.286   1.660 -0.2945 -0.2865 -0.1314
  122MOL   C10146323   0.512   0.268   1.519 -0.0814  0.3818  0.1366
  122MOL   C10246324   0.417   0.157   1.489  0.2107 -0.3871  0.3649
  122MOL   C10346325   0.548   0.360   1.422 -0.3218  0.0692  0.4521
  122MOL   C10446326   0.647   0.457   1.457  0.1466  0.5394 -0.8390
  122MOL   C10546327   0.922   0.523   1.686 -0.3151 -0.6188 -0.8254
  122MOL   H10646328   0.805   0.639   1.545 -0.7261 -2.7780 -2.5368
  122MOL   H10746329   0.659   0.405   1.794 -0.6618 -1.0902 -0.1205
  122MOL   H10846330   0.503   0.212   1.728  1.1817 -1.3492 -0.4220
  122MOL   H10946331   0.366   0.169   1.393 -0.8023 -0.4007  0.9003
  122MOL   H11046332   0.477   0.066   1.491  2.4646  1.0003 -1.3444
  122MOL   H11146333   0.347   0.151   1.572  1.0037 -2.5035  0.8943
  122MOL   H11246334   0.515   0.354   1.320 -1.6205  0.0856  0.8652
  122MOL   H11346335   0.680   0.528   1.383  0.5427  0.7644 -0.4548
  122MOL   H11446336   0.944   0.454   1.605 -2.1367 -1.8747 -0.2940
  122MOL   H11546337   0.906   0.477   1.784 -0.7588  1.0196 -0.1025
  122MOL   C11646338   1.035   0.628   1.703  0.2779  0.4411 -0.0319
  122MOL   C11746339   1.051   0.717   1.583 -0.7904 -0.4189 -0.3891
  122MOL   C11846340   1.082   0.854   1.612  0.6180 -0.4030 -0.5340
  122MOL   C11946341   1.096   0.945   1.504  0.2448 -0.6716 -0.0611
  122MOL   C12046342   1.104   0.899   1.371 -0.3020  0.1461  0.0854
  122MOL   C12146343   1.113   0.996   1.260 -0.3279  0.1848  0.3781
  122MOL   C12246344   1.091   0.759   1.346  0.4533 -1.0020 -0.2653
  122MOL   C12346345   1.060   0.667   1.449 -0.3102 -0.3443  0.6934
  122MOL   C12446346   1.168   0.559   1.736 -0.4115  0.3594 -0.2830
  122MOL   H12546347   1.018   0.686   1.793 -1.1503 -0.6892  0.4428
  122MOL   H12646348   1.059   0.887   1.713 -1.5022 -0.1961 -1.0668
  122MOL   H12746349   1.101   1.051   1.525 -2.7875 -0.1787 -1.5795
  122MOL   H12846350   1.119   1.096   1.301  0.8802 -0.1222  0.9839
  122MOL   H12946351   1.189   0.983   1.183  0.4653 -0.7996  1.3087
  122MOL   H13046352   1.017   0.995   1.209  0.5651  2.8627 -1.5053
  122MOL   H13146353   1.101   0.735   1.241  2.1951 -0.9321 -0.1413
  122MOL   H13246354   1.050   0.564   1.419  1.1952 -0.5955  1.0166
  122MOL   H13346355   1.246   0.634   1.749  0.4356 -0.7529  1.1260
  122MOL   H13446356   1.205   0.502   1.651  0.9801 -1.9826  1.8315
  122MOL   C13546357   1.173   0.483   1.873 -0.0039  0.2807  0.2115
  122MOL   C13646358   1.132   0.573   1.989 -0.0921 -0.1513  0.1862
  122MOL   C13746359   1.021   0.543   2.069  0.1338  0.2157 -0.6930
  122MOL   C13846360   0.990   0.616   2.189  0.0017 -0.9874 -0.2247
  122MOL   C13946361   1.069   0.727   2.224  0.3004 -0.0221  0.0584
  122MOL   C14046362   1.047   0.800   2.357  0.3920  1.2222 -0.3029
  122MOL   C14146363   1.185   0.758   2.145 -0.3156  0.9360  0.5504
  122MOL   C14246364   1.215   0.680   2.028  0.4692  0.1280 -0.8280
  122MOL   C14346365   1.315   0.424   1.904  0.1406  0.0407 -0.0849
  122MOL   H14446366   1.112   0.393   1.861  2.1232 -0.9666 -1.5522
  122MOL   H14546367   0.960   0.456   2.048  0.8860 -0.4204 -0.2446
  122MOL   H14646368   0.905   0.588   2.249  0.3585  0.6030  1.0671
  122MOL   H14746369   1.075   0.733   2.438  1.8874  1.2645 -0.7796
  122MOL   H14846370   1.101   0.895   2.362 -1.2203  2.2806 -2.5094
  122MOL   H14946371   0.940   0.811   2.372  0.0458 -0.5748 -1.3604
  122MOL   H15046372   1.250   0.843   2.157  0.1981  0.4106  1.5502
  122MOL   H15146373   1.306   0.702   1.975  1.0130 -0.5354 -0.1603
  122MOL   H15246374   1.378   0.512   1.914  0.1760 -0.0445  0.4709
  122MOL   H15346375   1.348   0.362   1.820  1.8593 -0.3461  0.8491
  122MOL   C15446376   1.314   0.342   2.033 -0.1741 -0.7505 -0.1722
  122MOL   C15546377   1.416   0.399   2.134  0.0700 -0.2248 -0.0250
  122MOL   C15646378   1.555   0.384   2.108 -0.2432 -0.2134 -0.0191
  122MOL   C15746379   1.651   0.429   2.199 -0.7915  0.0539  0.6419
  122MOL   C15846380   1.607   0.509   2.300  0.2953  0.0208 -0.3754
  122MOL   C15946381   1.710   0.571   2.398 -0.6449 -0.1350  0.1605
  122MOL   C16046382   1.470   0.530   2.333 -0.5407  0.8131  0.2172
  122MOL   C16146383   1.377   0.464   2.255  0.4091 -0.0847  0.0355
  122MOL   C16246384   1.332   0.188   2.019  0.1004 -0.1511 -0.0788
  122MOL   H16346385   1.217   0.351   2.082  0.0491 -0.1240  0.1661
  122MOL   H16446386   1.578   0.335   2.015  1.0963 -2.1800  1.3180
  122MOL   H16546387   1.753   0.418   2.166 -0.6291 -3.3328  1.9857
  122MOL   H16646388   1.808   0.554   2.354 -2.3829 -4.5511 -2.3506
  122MOL   H16746389   1.697   0.679   2.407  1.5905  0.2223 -0.6729
  122MOL   H16846390   1.699   0.524   2.496 -1.3797  1.4810  0.8712
  122MOL   H16946391   1.446   0.587   2.421  0.6473 -0.2103  1.2339
  122MOL   H17046392   1.274   0.477   2.286  0.0915  1.0284 -1.4140
  122MOL   H17146393   1.333   0.151   2.122  1.0337 -0.6187 -0.2456
  122MOL   H17246394   1.428   0.168   1.970  1.9377  1.5573  2.6496
  122MOL   C17346395   1.224   0.107   1.936 -0.1467  0.8299 -0.2216
  122MOL   C17446396   1.086   0.137   1.977  1.3341 -0.3684 -0.6128
  122MOL   C17546397   1.038   0.146   2.113 -0.1838  1.3304 -0.3445
  122MOL   C17646398   0.900   0.161   2.141 -0.6817 -0.0947  0.4567
  122MOL   C17746399   0.804   0.168   2.037  0.5523 -0.1237 -0.1482
  122MOL   C17846400   0.657   0.185   2.075  0.5327  0.0236  0.4241
  122MOL   C17946401   0.851   0.156   1.900 -0.3376 -0.0439 -0.8762
  122MOL   C18046402   0.989   0.138   1.876 -0.0978 -0.2921  0.0918
  122MOL   C18146403   1.238   8.033   1.933 -0.4288 -0.0806  0.3599
  122MOL   H18246404   1.239   0.146   1.835  0.3504  1.4305  0.0791
  122MOL   H18346405   1.104   0.148   2.199 -1.8310 -1.6566  1.0777
  122MOL   H18446406   0.861   0.171   2.242  3.0280  0.5090  1.8809
  122MOL   H18546407   0.586   0.144   2.003  2.2611 -2.0610 -0.1571
  122MOL   H18646408   0.628   0.147   2.174 -0.7571 -0.2552 -0.0438
  122MOL   H18746409   0.636   0.292   2.078 -2.2552 -0.3403 -2.9645
  122MOL   H18846410   0.782   0.173   1.818  0.3282 -0.8102 -1.6016
  122MOL   H18946411   1.024   0.132   1.774 -0.7474 -1.7026 -0.0602
  122MOL   H19046412   1.149   7.986   1.892 -0.5339  2.3138 -2.2559
  122MOL   H19146413   1.262   8.011   2.038 -0.1805 -1.3157  0.0548
  122MOL   C19246414   1.349   7.972   1.847  0.4894  0.0391 -0.1952
  122MOL   C19346415   1.328   8.006   1.706 -0.1310 -0.7147 -0.3731
  122MOL   C19446416   1.407   0.025   1.655 -0.2804 -0.8727  0.0099
  122MOL   C19546417   1.390   0.070   1.524  0.5306  0.0837 -0.2414
  122MOL   C19646418   1.288   0.013   1.447 -0.1614 -0.2682  0.0857
  122MOL   C19746419   1.260   0.058   1.303  0.6525 -0.2853 -0.2135
  122MOL   C19846420   1.203   7.997   1.502  0.1855  1.0051  0.1095
  122MOL   C19946421   1.219   7.945   1.631  0.5120 -0.3827 -1.2562
  122MOL   C20046422   1.371   7.819   1.868  0.0869 -0.4184  0.3643
  122MOL   H20146423   1.437   8.022   1.887 -1.3092  1.7794  1.7495
  122MOL   H20246424   1.479   0.073   1.720 -2.0946  0.2375  1.2470
  122MOL   H20346425   1.452   0.148   1.484 -2.0150  2.1151 -0.3578
  122MOL   H20446426   1.214   8.059   1.243 -3.3181  0.5561  1.5590
  122MOL   H20546427   1.208   0.154   1.299  0.8583 -0.1643 -0.0196
  122MOL   H20646428   1.360   0.075   1.265  0.9233  0.5311  0.8539
  122MOL   H20746429   1.126   7.953   1.440  0.1673 -1.5472  1.8489
  122MOL   H20846430   1.144   7.877   1.668 -0.2963  0.0182 -2.1414
  122MOL   H20946431   1.440   7.789   1.789 -0.8746 -0.4726 -0.4629
  122MOL   H21046432   1.277   7.767   1.845  0.1769 -1.4625  2.2350
  122MOL   C21146433   1.417   7.791   2.004  0.4317  0.2085  0.3150
  122MOL   C21246434   1.541   7.867   2.045 -0.4515 -0.0651  0.4348
  122MOL   C21346435   1.666   7.862   1.977  0.3928  0.5503  0.7411
  122MOL   C21446436   1.777   7.933   2.017  0.1616  0.7113  0.4388
  122MOL   C21546437   1.763   8.023   2.131  0.2060 -1.3749 -0.0324
  122MOL   C21646438   1.882   0.033   2.159  0.5740  0.7743  0.0605
  122MOL   C21746439   1.641   8.041   2.195 -0.0375  0.8334  0.7495
  122MOL   C21846440   1.526   7.966   2.151  0.4307 -0.8540 -0.2160
  122MOL   C21946441   1.424   7.637   2.027  0.0636  0.5418 -0.3884
  122MOL   H22046442   1.329   7.817   2.064  0.9976 -0.1750  1.3250
  122MOL   H22146443   1.676   7.781   1.906 -2.4644  1.7434 -1.1413
  122MOL   H22246444   1.864   7.913   1.955 -0.2640  1.2562 -0.3366
  122MOL   H22346445   1.905   0.094   2.072  0.1584  0.0980 -0.5242
  122MOL   H22446446   1.863   0.090   2.250 -2.0221 -2.6191  1.7648
  122MOL   H22546447   1.968   8.055   2.191 -1.9338 -1.6596  2.7127
  122MOL   H22646448   1.639   0.028   2.280  0.0405  1.0007  0.6205
  122MOL   H22746449   1.431   7.979   2.200  0.9444  0.1108  0.5299
  122MOL   H22846450   1.527   7.603   2.017 -0.1966 -1.2174  2.2860
  122MOL   H22946451   1.363   7.598   1.946 -1.6472  1.6733  0.3134
  122MOL   C23046452   1.377   7.594   2.169 -0.9295  0.0556  1.0159
  122MOL   C23146453   1.414   7.449   2.197 -0.1908 -0.6191 -0.0506
  122MOL   C23246454   1.471   7.412   2.322  0.4202  0.3131  0.4702
  122MOL   C23346455   1.508   7.281   2.344 -0.1599 -0.2197 -0.1124
  122MOL   C23446456   1.489   7.182   2.242 -0.0971  0.3244 -0.1487
  122MOL   C23546457   1.545   7.042   2.249 -0.6548  0.5143  0.2688
  122MOL   C23646458   1.423   7.220   2.124  0.9399  0.4923  0.5587
  122MOL   C23746459   1.392   7.354   2.104  0.0046  0.7420 -0.2340
  122MOL   C23846460   1.233   7.623   2.215 -0.1667  0.7717 -0.0014
  122MOL   H23946461   1.442   7.656   2.231  0.2267 -1.9776  1.8746
  122MOL   H24046462   1.506   7.491   2.387 -0.3918 -1.4880  3.2153
  122MOL   H24146463   1.551   7.253   2.439 -1.6712  0.2079  0.7110
  122MOL   H24246464   1.647   7.051   2.287 -0.8549  2.5504  0.3549
  122MOL   H24346465   1.489   6.974   2.313  1.0511  0.2967  1.5878
  122MOL   H24446466   1.555   6.988   2.155 -1.4124  1.9597 -0.6400
  122MOL   H24546467   1.402   7.149   2.045 -1.6338  0.6648  1.0502
  122MOL   H24646468   1.338   7.383   2.015  0.7895  0.5791 -0.7583
  122MOL   H24746469   1.216   7.731   2.215  2.1182  1.1601 -0.6132
  122MOL   H24846470   1.219   7.602   2.321  2.4314 -2.5271 -0.2607
  122MOL   C24946471   1.115   7.553   2.136  0.6633 -0.2083  0.4742
  122MOL   C25046472   1.057   7.640   2.029  0.3471 -0.2814 -0.3022
  122MOL   C25146473   1.066   7.595   1.898  0.1748  0.2521 -0.3979
  122MOL   C25246474   1.005   7.679   1.805  0.0131  0.0514  0.1285
  122MOL   C25346475   0.937   7.802   1.839 -0.1150  0.3632  0.4420
  122MOL   C25446476   0.867   7.889   1.732 -0.3919  0.3318 -0.0332
  122MOL   C25546477   0.938   7.837   1.970 -0.5732  0.0632  0.4252
  122MOL   C25646478   1.000   7.765   2.065 -0.2438  0.3937 -0.0465
  122MOL   C25746479   0.992   7.506   2.221  0.0888  0.1839 -0.3523
  122MOL   H25846480   1.147   7.454   2.102 -0.1746 -1.3192  2.7883
  122MOL   H25946481   1.112   7.506   1.857  1.4462 -1.1869  3.8836
  122MOL   H26046482   1.000   7.644   1.703  0.0585  2.1790 -0.6346
  122MOL   H26146483   0.801   7.960   1.781 -1.2914 -1.0427  0.7994
  122MOL   H26246484   0.935   7.934   1.659  0.3262  0.1579  0.5225
  122MOL   H26346485   0.802   7.821   1.677  0.0198 -0.8317  0.8969
  122MOL   H26446486   0.896   7.933   1.993  2.3849  2.3954 -3.3166
  122MOL   H26546487   0.998   7.797   2.168 -0.4367  0.2723 -0.0140
  122MOL   H26646488   0.913   7.471   2.155 -0.2133 -0.0717  0.1353
  122MOL   H26746489   0.947   7.592   2.270 -1.7265  0.3942 -2.3503
  122MOL   C26846490   1.011   7.390   2.327  0.6874  0.3449  0.1967
  122MOL   C26946491   1.040   7.251   2.263  0.4083 -0.0556  0.2400
  122MOL   C27046492   1.151   7.165   2.306  0.4481  0.5052  0.7008
  122MOL   C27146493   1.170   7.044   2.235 -0.6986 -0.1693  0.0293
  122MOL   C27246494   1.082   7.008   2.135 -0.1669  0.9222  0.4085
  122MOL   C27346495   1.108   6.873   2.071 -0.4100 -0.3853  0.5115
  122MOL   C27446496   0.977   7.087   2.094 -0.2652 -0.4103  0.3690
  122MOL   C27546497   0.954   7.207   2.162 -0.9692  0.2435 -0.0085
  122MOL   C27646498   0.891   7.375   2.419  0.2525 -0.1687 -0.5665
  122MOL   H27746499   1.100   7.413   2.386  1.3946  0.1377 -0.7713
  122MOL   H27846500   1.214   7.200   2.387  2.1873  0.8364 -0.7665
  122MOL   H27946501   1.254   6.982   2.264 -1.5519 -0.5427  1.7755
  122MOL   H28046502   1.076   6.786   2.129  1.1352 -1.1012  0.2961
  122MOL   H28146503   1.055   6.855   1.977 -0.0615  0.6891  0.0995
  122MOL   H28246504   1.213   6.856   2.051 -0.2502 -0.3070  1.2779
  122MOL   H28346505   0.912   7.062   2.012  0.2621  0.6628 -0.3884
  122MOL   H28446506   0.866   7.262   2.133  1.0683  3.9799  0.5578
  122MOL   H28546507   0.886   7.271   2.451 -1.7043  0.1607  0.2457
  122MOL   H28646508   0.801   7.394   2.361 -0.3203  0.9211  0.6662
  122MOL   C28746509   0.900   7.466   2.540  0.3822 -0.0686 -0.0019
  122MOL   C28846510   1.008   7.412   2.640 -0.2544 -0.1603  0.7308
  122MOL   C28946511   0.995   7.289   2.702 -0.1506  0.3686  0.3345
  122MOL   C29046512   1.099   7.236   2.785  0.2917  0.7180 -0.3619
  122MOL   C29146513   1.219   7.311   2.802  0.4178  0.0060  0.2608
  122MOL   C29246514   1.338   7.265   2.884 -0.1578  0.2350  0.3731
  122MOL   C29346515   1.231   7.431   2.735 -0.2593  0.0792 -0.0260
  122MOL   C29446516   1.128   7.484   2.655  0.2846  0.2455  0.2221
  122MOL   C29546517   0.762   7.484   2.602 -0.2734  0.3668  0.1005
  122MOL   H29646518   0.930   7.564   2.503 -1.5368  0.8907  0.9458
  122MOL   H29746519   0.905   7.230   2.694 -0.0577  0.3168 -0.4071
  122MOL   H29846520   1.095   7.138   2.830  0.0031  0.2563 -1.3783
  122MOL   H29946521   1.421   7.263   2.814 -1.2655 -1.8336 -0.9204
  122MOL   H30046522   1.355   7.343   2.959 -1.8957  1.4807 -0.4966
  122MOL   H30146523   1.322   7.172   2.938 -1.5033 -0.4166 -1.1230
  122MOL   H30246524   1.322   7.490   2.740 -1.7233  2.4614 -0.5223
  122MOL   H30346525   1.145   7.578   2.604 -0.4096  0.0399 -0.4102
  122MOL   H30446526   0.781   7.511   2.706  0.2610 -1.0287  0.3667
  122MOL   H30546527   0.706   7.391   2.601 -1.0569  0.8334  0.0154
  122MOL   C30646528   0.677   7.583   2.525 -0.3010  0.3630 -0.2734
  122MOL   C30746529   0.735   7.727   2.536  0.3792 -0.3614 -0.4681
  122MOL   C30846530   0.771   7.779   2.660 -0.1344 -0.4057  0.1019
  122MOL   C30946531   0.820   7.908   2.670 -0.0475  0.0631  0.2550
  122MOL   C31046532   0.835   7.988   2.554 -0.9248 -0.3568 -0.1720
  122MOL   C31146533   0.898   0.044   2.562 -0.0745  0.0789  0.2671
  122MOL   C31246534   0.806   7.938   2.429  0.3268  0.1082 -0.3803
  122MOL   C31346535   0.757   7.804   2.417  0.0427 -0.3215 -0.0231
  122MOL   C31446536   0.523   7.568   2.552  0.2773  0.4254 -0.6884
  122MOL   H31546537   0.690   7.561   2.419  1.1000  0.2952 -0.1038
  122MOL   H31646538   0.756   7.717   2.747 -1.0365  1.9496  1.6734
  122MOL   H31746539   0.854   7.953   2.762 -0.2253 -1.5282  1.1291
  122MOL   H31846540   0.833   0.118   2.609 -0.5386 -0.7302  0.9262
  122MOL   H31946541   0.992   0.034   2.616  0.2987 -0.9970 -0.5528
  122MOL   H32046542   0.927   0.089   2.467  1.0387 -1.6547 -0.2393
  122MOL   H32146543   0.815   7.994   2.337 -0.7731  1.1159  0.1233
  122MOL   H32246544   0.727   7.765   2.321 -0.8632 -0.8788  0.4794
  122MOL   H32346545   0.480   7.668   2.542 -0.8301 -0.1156 -1.4061
  122MOL   H32446546   0.495   7.530   2.650  0.2231 -0.0992 -0.9068
  122MOL   C32546547   0.452   7.473   2.459  0.6302  0.7201  0.4740
  122MOL   C32646548   0.459   7.517   2.313 -1.0889  0.8023 -0.2509
  122MOL   C32746549   0.523   7.436   2.213  0.2884 -0.2177 -0.0607
  122MOL   C32846550   0.543   7.491   2.083  0.2420  0.4740 -0.0033
  122MOL   C32946551   0.486   7.614   2.047 -0.3654  0.1732  0.6955
  122MOL   C33046552   0.503   7.669   1.908  0.1440 -0.1798 -0.1170
  122MOL   C33146553   0.413   7.688   2.146 -0.4429 -0.6857 -0.6634
  122MOL   C33246554   0.400   7.639   2.281  0.0969 -0.2972 -0.4209
  122MOL   C33346555   0.313   7.428   2.492  0.1554 -0.2043 -1.0426
  122MOL   H33446556   0.506   7.378   2.461  0.8786  0.8493 -0.2518
  122MOL   H33546557   0.578   7.345   2.236  2.6114  0.7557 -1.5646
  122MOL   H33646558   0.597   7.435   2.008 -2.5328  0.6344 -2.1647
  122MOL   H33746559   0.535   7.585   1.846 -0.0428 -0.7635  0.5636
  122MOL   H33846560   0.411   7.718   1.876 -0.2471 -1.2708 -0.7024
  122MOL   H33946561   0.579   7.746   1.898  0.8165 -0.9471 -0.9863
  122MOL   H34046562   0.367   7.781   2.115  3.0010  1.6152  0.8063
  122MOL   H34146563   0.345   7.687   2.361  1.1897 -1.0839  0.8339
  122MOL   H34246564   0.242   7.448   2.412 -0.2399 -0.7717 -0.8457
  122MOL   H34346565   0.277   7.478   2.582 -0.0731 -0.6863 -0.8576
  122MOL   C34446566   0.301   7.273   2.526 -0.4720  0.4869  0.7545
  122MOL   C34546567   0.151   7.239   2.516 -0.0447 -0.8090 -0.1132
  122MOL   C34646568   0.063   7.236   2.627  0.2808  0.3541  0.1464
  122MOL   C34746569   8.010   7.195   2.614 -0.2871 -0.2285  0.4175
  122MOL   C34846570   7.955   7.180   2.483 -0.4723 -1.0452 -1.3675
  122MOL   C34946571   7.816   7.140   2.465 -0.5628 -0.2014  0.1474
  122MOL   C35046572   8.033   7.195   2.372 -0.4091 -0.6192  0.6149
  122MOL   C35146573   0.095   7.227   2.386 -0.5628 -0.0339  0.2176
  122MOL   C35246574   0.364   7.241   2.666  0.2226  0.0298 -0.4721
  122MOL   H35346575   0.349   7.217   2.446  0.5621  0.4874  1.3689
  122MOL   H35446576   0.090   7.246   2.732  0.3743 -1.8061  0.3440
  122MOL   H35546577   7.952   7.190   2.704  0.4348 -3.4271  0.7813
  122MOL   H35646578   7.798   7.058   2.534 -2.9922  0.8641  0.8360
  122MOL   H35746579   7.740   7.213   2.493 -1.5558 -0.7845 -0.9625
  122MOL   H35846580   7.782   7.104   2.367 -3.2030 -2.7186  1.9168
  122MOL   H35946581   7.989   7.185   2.274  0.2064 -0.1486  0.2813
  122MOL   H36046582   0.153   7.237   2.295  0.1413  1.1995  0.7932
  122MOL   H36146583   0.304   7.288   2.744 -0.1311 -1.5312  0.2283
  122MOL   H36246584   0.463   7.285   2.678  0.2339 -0.5447  2.0009
  122MOL   C36346585   0.380   7.090   2.686 -0.5777 -0.7591  0.8117
  122MOL   C36446586   0.386   7.057   2.835 -0.1303 -0.3575  0.1135
  122MOL   C36546587   0.508   7.069   2.899 -0.6614 -0.2931 -0.3837
  122MOL   C36646588   0.511   7.037   3.039 -1.0408 -0.0121 -0.1120
  122MOL   C36746589   0.399   6.992   3.109  0.3935  0.4419  0.0730
  122MOL   C36846590   0.401   6.939   3.247  0.0599  0.9583  0.4174
  122MOL   C36946591   0.273   6.987   3.041  0.6422  0.5864  0.6413
  122MOL   C37046592   0.268   7.022   2.904 -0.0606  0.3174  0.3816
  122MOL   C37146593   0.497   7.026   2.601 -0.3154 -0.1616  0.7948
  122MOL   H37246594   0.296   7.036   2.642 -0.7358 -0.4683  0.7544
  122MOL   H37346595   0.594   7.109   2.847  0.9592 -0.2845  2.2091
  122MOL   H37446596   0.602   7.049   3.096  0.1944 -0.9457 -1.8689
  122MOL   H37546597   0.487   6.982   3.299  1.9471 -1.1414 -0.8800
  122MOL   H37646598   0.308   6.954   3.301  0.3507 -0.6372  1.4240
  122MOL   H37746599   0.426   6.833   3.252  1.0102  1.0972 -1.2178
  122MOL   H37846600   0.181   6.947   3.081 -1.4921  1.0747 -3.5590
  122MOL   H37946601   0.168   7.001   2.869  0.0841 -1.6016  1.0608
  122MOL   H38046602   0.600   7.052   2.623 -0.0544 -0.5697  0.0911
  122MOL   H38146603   0.479   7.046   2.495 -2.2158  1.9172  1.4501
  122MOL   H38246604   0.504   6.917   2.600  1.3218 -0.0818  2.2307
  123MOL     C146605   2.585   0.037   3.447 -0.1536 -0.9965  0.3266
  123MOL     C246606   2.530   7.982   3.495 -0.2889  0.2186  0.1318
  123MOL     C346607   2.474   7.963   3.623 -1.2281  0.2242 -0.4851
  123MOL     C446608   2.433   7.829   3.661  0.3074  0.1055 -0.2554
  123MOL     C546609   2.440   7.722   3.567  0.0013  0.0510 -0.0165
  123MOL     C646610   2.366   7.599   3.599 -0.3334  0.3378 -0.0440
  123MOL     C746611   2.496   7.739   3.443  0.0919 -0.6280  0.5543
  123MOL     C846612   2.551   7.865   3.405 -0.1188 -0.2340 -0.2253
  123MOL     C946613   2.469   0.135   3.415  0.0358  0.6009  0.7527
  123MOL    H1046614   2.642   0.067   3.535 -1.4847  1.2160  0.4543
  123MOL    H1146615   2.448   8.045   3.689  1.5006  0.4622  0.3613
  123MOL    H1246616   2.373   7.811   3.749 -1.7643  0.2490 -1.6292
  123MOL    H1346617   2.262   7.611   3.568 -0.4645  0.7339  0.5343
  123MOL    H1446618   2.402   7.504   3.560 -0.5796  0.6479 -1.0340
  123MOL    H1546619   2.366   7.591   3.708 -0.8675  3.1021  0.1954
  123MOL    H1646620   2.493   7.658   3.371 -1.0864 -0.3113  0.2351
  123MOL    H1746621   2.599   7.886   3.311  1.1966  0.7791  0.6554
  123MOL    H1846622   2.412   0.162   3.504  0.6702  0.4043  1.2242
  123MOL    H1946623   2.392   0.091   3.351 -0.2958  2.2537 -0.0123
  123MOL    H2046624   2.658   0.028   3.367  0.3247 -1.4488  0.8076
  123MOL    C2146625   2.522   0.266   3.351 -0.5469  0.3825 -0.2661
  123MOL    C2246626   2.634   0.332   3.429 -0.5610 -0.3883 -0.5135
  123MOL    C2346627   2.604   0.391   3.551  0.0966 -0.1554 -0.3362
  123MOL    C2446628   2.705   0.457   3.625 -0.2733 -0.4819 -0.1533
  123MOL    C2546629   2.836   0.453   3.579  0.1826  0.3383  0.4241
  123MOL    C2646630   2.947   0.514   3.652  0.2813 -0.2404  0.0566
  123MOL    C2746631   2.867   0.377   3.463  0.3137 -0.4957 -0.1539
  123MOL    C2846632   2.765   0.327   3.385 -0.5231 -0.4012 -0.1489
  123MOL    C2946633   2.405   0.363   3.327 -0.4485 -0.3717  0.3431
  123MOL    H3046634   2.561   0.237   3.253  0.0574  1.5311 -0.3687
  123MOL    H3146635   2.502   0.411   3.582 -0.6748 -1.1055 -2.1773
  123MOL    H3246636   2.690   0.516   3.715  2.7026  1.3833 -0.8056
  123MOL    H3346637   3.041   0.508   3.597 -0.8993  0.5478 -2.1007
  123MOL    H3446638   2.925   0.619   3.671  3.1476  0.1378  1.4519
  123MOL    H3546639   2.969   0.464   3.746  3.6784 -3.0553 -2.0795
  123MOL    H3646640   2.972   0.366   3.441  0.5002 -1.0585  0.9918
  123MOL    H3746641   2.796   0.266   3.300  0.6716 -2.9259  2.0227
  123MOL    H3846642   2.424   0.462   3.369  0.2323 -0.4748  0.2825
  123MOL    H3946643   2.314   0.334   3.380  0.4282 -1.9684  0.9711
  123MOL    C4046644   2.359   0.381   3.181  0.5408 -0.1712  0.4649
  123MOL    C4146645   2.459   0.463   3.084 -0.6378  0.1999 -0.0025
  123MOL    C4246646   2.432   0.473   2.945  0.5090 -0.1089  0.3468
  123MOL    C4346647   2.524   0.532   2.860  0.0415 -0.2213  0.0594
  123MOL    C4446648   2.646   0.576   2.913  0.2255 -0.0458  0.5697
  123MOL    C4546649   2.759   0.624   2.820  0.3562 -0.5527 -0.3061
  123MOL    C4646650   2.672   0.567   3.051  0.3755 -0.4643 -0.3414
  123MOL    C4746651   2.579   0.515   3.136 -0.7464  0.2927  0.0987
  123MOL    C4846652   2.227   0.465   3.176  0.3125  0.1837  0.6840
  123MOL    H4946653   2.346   0.286   3.130 -1.2768  0.9031 -1.1299
  123MOL    H5046654   2.335   0.441   2.910  0.7059 -0.1752 -0.1426
  123MOL    H5146655   2.505   0.522   2.754 -0.3721 -1.0702  0.2109
  123MOL    H5246656   2.837   0.549   2.805  0.0555 -1.2414  1.4975
  123MOL    H5346657   2.721   0.651   2.722 -2.5390 -0.2615  0.8588
  123MOL    H5446658   2.802   0.717   2.856 -0.0810 -0.6936  0.5818
  123MOL    H5546659   2.760   0.612   3.094  1.5971 -1.1371 -2.0689
  123MOL    H5646660   2.608   0.510   3.239  1.3063  2.4104 -0.3568
  123MOL    H5746661   2.197   0.508   3.080  0.5475  0.3378  0.6766
  123MOL    H5846662   2.246   0.558   3.231 -1.8688  1.8094 -1.2318
  123MOL    C5946663   2.101   0.378   3.216 -0.2172 -0.0692  0.4069
  123MOL    C6046664   2.090   0.245   3.141 -0.8617 -0.3625 -0.1551
  123MOL    C6146665   2.082   0.122   3.208 -0.0849 -0.3291 -0.0703
  123MOL    C6246666   2.084   0.000   3.137  0.1687 -0.1579 -0.7674
  123MOL    C6346667   2.077   0.004   2.999  0.0094  0.3173  0.0419
  123MOL    C6446668   2.055   7.958   2.926 -0.6466 -0.9845 -0.6381
  123MOL    C6546669   2.082   0.130   2.928 -0.5436  0.3645  0.5459
  123MOL    C6646670   2.094   0.249   3.001 -0.1854 -0.5039 -0.5838
  123MOL    C6746671   1.969   0.450   3.196 -0.2467 -0.0124  0.0369
  123MOL    H6846672   2.109   0.345   3.319 -3.6110  1.6964  1.3382
  123MOL    H6946673   2.085   0.119   3.316  1.0303  0.2077 -0.0834
  123MOL    H7046674   2.098   7.982   3.179  2.8781  0.0777 -1.0269
  123MOL    H7146675   1.954   7.916   2.929 -0.7067 -0.7628  1.3652
  123MOL    H7246676   2.070   7.970   2.819 -1.8908  0.9112 -0.6418
  123MOL    H7346677   2.120   7.878   2.959  0.8872  0.9175  1.1149
  123MOL    H7446678   2.095   0.137   2.821  0.8000  1.1982  0.7436
  123MOL    H7546679   2.119   0.340   2.948 -1.7960  0.0497 -0.4269
  123MOL    H7646680   1.895   0.371   3.182  2.2309 -2.3816 -0.0890
  123MOL    H7746681   1.978   0.501   3.099  0.4367 -0.5287 -0.1697
  123MOL    C7846682   1.917   0.559   3.295 -0.7795 -0.3212 -0.7459
  123MOL    C7946683   1.985   0.693   3.273 -0.0174  0.5265  0.5038
  123MOL    C8046684   2.087   0.732   3.363 -1.0636  0.5063  0.1254
  123MOL    C8146685   2.141   0.856   3.348 -0.0469  0.3150  0.4734
  123MOL    C8246686   2.116   0.933   3.235 -0.8628 -0.3410 -0.2373
  123MOL    C8346687   2.205   1.058   3.206  0.1550 -0.2405  0.2519
  123MOL    C8446688   2.025   0.890   3.142  0.0461 -0.9996 -0.3287
  123MOL    C8546689   1.950   0.774   3.164 -0.7979  0.1998  0.3668
  123MOL    C8646690   1.900   0.504   3.429 -0.3642  0.6256 -0.1301
  123MOL    H8746691   1.816   0.583   3.261 -1.0162  1.2725  0.9814
  123MOL    H8846692   2.114   0.669   3.446 -1.1980 -0.7893 -0.8007
  123MOL    H8946693   2.217   0.877   3.422  0.6203  1.0970 -0.4084
  123MOL    H9046694   2.274   1.093   3.283  1.5152 -0.0600 -1.0465
  123MOL    H9146695   2.269   1.028   3.123 -2.6566  1.8896 -2.8196
  123MOL    H9246696   2.146   1.140   3.166  2.9818  1.3655 -0.7024
  123MOL    H9346697   2.000   0.945   3.053  3.4062 -0.7316 -1.2006
  123MOL    H9446698   1.869   0.758   3.095 -1.2474 -0.4150  1.0330
  123MOL    H9546699   1.999   0.478   3.467 -0.0322  0.6124 -0.9963
  123MOL    H9646700   1.854   0.406   3.415  1.7733 -0.3577 -0.5359
  123MOL    C9746701   1.830   0.589   3.529 -0.0499  0.2209 -0.1155
  123MOL    C9846702   1.875   0.559   3.671 -0.6897  0.1202  0.2510
  123MOL    C9946703   1.942   0.659   3.747 -0.0252  0.1749 -0.0975
  123MOL   C10046704   1.998   0.622   3.873  0.2487  0.1673  0.5620
  123MOL   C10146705   1.983   0.494   3.924 -0.4330 -0.3216  0.5738
  123MOL   C10246706   2.029   0.466   4.062 -0.0498  0.4674  0.1124
  123MOL   C10346707   1.915   0.398   3.852  0.2477  0.7038  0.2228
  123MOL   C10446708   1.855   0.432   3.726  0.3020 -0.3020 -0.4965
  123MOL   C10546709   1.676   0.581   3.517  0.8034  1.1169  0.1628
  123MOL   H10646710   1.849   0.694   3.511 -0.5210  0.8976  3.0419
  123MOL   H10746711   1.953   0.759   3.708  0.5269  1.4050  3.0148
  123MOL   H10846712   2.047   0.698   3.931 -2.7540  1.8606  1.0137
  123MOL   H10946713   1.960   0.521   4.127 -0.3277 -0.9384  1.0374
  123MOL   H11046714   2.022   0.364   4.098 -2.5154  0.1315 -1.2257
  123MOL   H11146715   2.132   0.503   4.058 -0.8097  2.5833 -0.7905
  123MOL   H11246716   1.893   0.298   3.886 -0.8922  1.2884  1.2526
  123MOL   H11346717   1.801   0.360   3.667 -0.7760 -0.8852  1.1543
  123MOL   H11446718   1.648   0.521   3.604 -1.3464  0.6399 -0.8400
  123MOL   H11546719   1.635   0.528   3.431 -0.5912  3.5809 -0.7271
  123MOL   C11646720   1.598   0.708   3.524  0.2258 -0.2455  0.4476
  123MOL   C11746721   1.447   0.694   3.556 -0.8444  0.1270  0.3755
  123MOL   C11846722   1.372   0.581   3.510  0.1457  0.3131 -0.1010
  123MOL   C11946723   1.235   0.599   3.526 -0.4827  0.1442  0.2708
  123MOL   C12046724   1.170   0.708   3.584 -0.4143 -0.7617 -0.2082
  123MOL   C12146725   1.016   0.717   3.601 -0.5115 -0.2928 -0.2510
  123MOL   C12246726   1.254   0.810   3.635  0.1308 -0.1660  0.5958
  123MOL   C12346727   1.393   0.803   3.622  0.1027  0.0469 -0.1772
  123MOL   C12446728   1.618   0.790   3.390 -0.5583  0.5760  0.0710
  123MOL   H12546729   1.642   0.776   3.597 -1.1873  0.9242  0.2220
  123MOL   H12646730   1.419   0.490   3.476  0.1296  0.2308  0.0932
  123MOL   H12746731   1.167   0.517   3.508  1.5227 -0.5046 -5.6646
  123MOL   H12846732   0.970   0.746   3.507 -1.1651 -0.4561  0.0122
  123MOL   H12946733   0.972   0.626   3.643  0.3128 -0.5643  0.0338
  123MOL   H13046734   0.980   0.800   3.661  0.4821  0.0443 -0.1065
  123MOL   H13146735   1.210   0.895   3.685 -1.8026 -0.0038 -1.3343
  123MOL   H13246736   1.461   0.881   3.656 -0.1966  0.4959 -0.5934
  123MOL   H13346737   1.532   0.777   3.324  1.6651  3.4176 -3.5636
  123MOL   H13446738   1.698   0.746   3.331 -0.8336 -0.5725  0.5339
  123MOL   C13546739   1.645   0.941   3.415 -0.0339  0.0452 -0.0229
  123MOL   C13646740   1.599   1.021   3.285  0.5604  1.1786 -0.0745
  123MOL   C13746741   1.471   1.085   3.277  0.1158  0.3768  0.0235
  123MOL   C13846742   1.427   1.149   3.157 -0.5861  0.7365 -0.2153
  123MOL   C13946743   1.512   1.145   3.048 -0.9833 -0.0188  0.4916
  123MOL   C14046744   1.467   1.199   2.914 -0.3847  0.3452  0.2449
  123MOL   C14146745   1.641   1.100   3.062 -0.6416 -0.0393 -0.9196
  123MOL   C14246746   1.686   1.039   3.182  0.1926 -0.3333  0.5209
  123MOL   C14346747   1.794   0.966   3.462 -0.1543 -0.6018 -0.2374
  123MOL   H14446748   1.583   0.968   3.500  0.9794 -2.5233  1.5646
  123MOL   H14546749   1.399   1.089   3.358 -0.3068  1.1951 -0.3795
  123MOL   H14646750   1.329   1.193   3.147 -2.1635 -2.5276  0.2827
  123MOL   H14746751   1.548   1.253   2.865 -0.5227  2.1820  1.9997
  123MOL   H14846752   1.429   1.123   2.845  1.3672 -1.0946  0.8309
  123MOL   H14946753   1.390   1.275   2.930 -3.6207 -2.7046 -0.0682
  123MOL   H15046754   1.711   1.116   2.982  0.4453 -1.0868 -0.2025
  123MOL   H15146755   1.785   0.997   3.188  0.1448 -0.5784 -0.3356
  123MOL   H15246756   1.869   0.946   3.386 -0.6648 -0.7751 -0.6996
  123MOL   H15346757   1.812   0.895   3.543  1.8620 -0.9900 -0.9866
  123MOL   C15446758   1.815   1.104   3.515 -0.7730  0.2227  0.6182
  123MOL   C15546759   1.963   1.140   3.516 -0.3926 -0.0320  0.4297
  123MOL   C15646760   2.012   1.240   3.430 -0.2190 -0.5169 -0.0961
  123MOL   C15746761   2.147   1.272   3.442  0.3215 -0.5598  0.1183
  123MOL   C15846762   2.237   1.202   3.523 -0.1174 -0.0374  1.1502
  123MOL   C15946763   2.384   1.240   3.528 -0.5073  0.1502  0.1994
  123MOL   C16046764   2.187   1.098   3.598  0.2401  0.5694  0.1051
  123MOL   C16146765   2.048   1.065   3.591 -0.3492  0.4383  0.2598
  123MOL   C16246766   1.751   1.129   3.652 -0.4727  0.1473 -0.2779
  123MOL   H16346767   1.771   1.175   3.445 -0.2570 -0.3709 -0.3205
  123MOL   H16446768   1.958   1.297   3.356  2.0043 -0.0373 -1.4249
  123MOL   H16546769   2.189   1.348   3.378 -0.1624 -1.9425 -1.8851
  123MOL   H16646770   2.425   1.332   3.487  0.9469  0.2277  1.7574
  123MOL   H16746771   2.409   1.231   3.634  1.9436  1.4129 -0.2281
  123MOL   H16846772   2.438   1.152   3.494 -1.6173  0.0596 -1.3421
  123MOL   H16946773   2.254   1.045   3.663 -0.4424  1.0784  1.2476
  123MOL   H17046774   2.009   0.991   3.659 -1.3973  1.7555  1.1247
  123MOL   H17146775   1.780   1.045   3.716 -0.9051 -0.6603 -1.1214
  123MOL   H17246776   1.644   1.109   3.645 -0.2407 -2.3062  2.1574
  123MOL   C17346777   1.779   1.258   3.730  0.2426  0.3842  1.0320
  123MOL   C17446778   1.738   1.248   3.872  0.3519  0.5043  0.0001
  123MOL   C17546779   1.614   1.205   3.916  0.1165  0.2641 -0.2365
  123MOL   C17646780   1.570   1.208   4.052 -0.1833 -0.5733  0.2889
  123MOL   C17746781   1.659   1.247   4.151 -0.4498 -0.1742  0.3196
  123MOL   C17846782   1.614   1.254   4.295  0.1636 -0.0861  0.1184
  123MOL   C17946783   1.791   1.283   4.110  0.5136  0.0477  0.2444
  123MOL   C18046784   1.827   1.288   3.973 -0.0776  0.5969  0.0798
  123MOL   C18146785   1.701   1.376   3.660 -0.7954 -0.0753 -0.0797
  123MOL   H18246786   1.887   1.273   3.726  0.1225  1.1111  0.4111
  123MOL   H18346787   1.546   1.166   3.842 -0.3331  0.9017 -0.1663
  123MOL   H18446788   1.471   1.182   4.085  0.6548 -3.3849  0.6986
  123MOL   H18546789   1.518   1.201   4.299  0.7089 -1.0489  0.7554
  123MOL   H18646790   1.687   1.210   4.363 -0.8567 -0.3778  1.0548
  123MOL   H18746791   1.601   1.360   4.318  1.6587  0.9031 -3.3308
  123MOL   H18846792   1.858   1.309   4.191  2.1822 -2.9958 -0.1067
  123MOL   H18946793   1.925   1.319   3.941  0.3699  1.0052  1.8001
  123MOL   H19046794   1.596   1.358   3.683 -0.7737  0.1425  0.1930
  123MOL   H19146795   1.705   1.373   3.551  0.9233  1.2301 -0.0813
  123MOL   C19246796   1.751   1.522   3.697  0.8312 -0.0962 -0.2760
  123MOL   C19346797   1.635   1.614   3.654 -0.1448  0.0154 -0.0497
  123MOL   C19446798   1.553   1.679   3.754 -0.1444  0.7832 -0.1904
  123MOL   C19546799   1.450   1.765   3.715  0.1010 -0.3184 -0.4357
  123MOL   C19646800   1.424   1.790   3.578  0.7265 -0.3071  0.3162
  123MOL   C19746801   1.317   1.888   3.537  0.0795  0.1471 -0.0382
  123MOL   C19846802   1.499   1.719   3.482  0.7445 -0.2501 -0.6820
  123MOL   C19946803   1.600   1.629   3.521  0.2845 -0.0971 -0.0463
  123MOL   C20046804   1.887   1.549   3.618  0.5868 -0.1512 -0.5135
  123MOL   H20146805   1.769   1.526   3.805 -1.0223  0.0633  0.0330
  123MOL   H20246806   1.580   1.667   3.858 -2.8667  1.5287  0.6549
  123MOL   H20346807   1.390   1.813   3.791 -0.5966 -0.3410 -0.9653
  123MOL   H20446808   1.222   1.836   3.549  0.4963 -0.7893 -0.6851
  123MOL   H20546809   1.313   1.970   3.608 -0.8229  2.0113 -2.1803
  123MOL   H20646810   1.341   1.916   3.434 -0.2517  2.3027  0.4398
  123MOL   H20746811   1.484   1.718   3.375 -1.7744 -1.3685 -0.3527
  123MOL   H20846812   1.666   1.582   3.449  1.6860  1.2495  0.3235
  123MOL   H20946813   1.864   1.605   3.527  1.1376 -2.6719 -2.2617
  123MOL   H21046814   1.936   1.458   3.582  0.8861  0.1398 -0.8481
  123MOL   C21146815   1.998   1.633   3.687  0.4614  0.1742 -0.5723
  123MOL   C21246816   2.064   1.550   3.799 -0.6018  0.0656 -0.4454
  123MOL   C21346817   2.037   1.577   3.936 -0.3273  1.1457 -0.4575
  123MOL   C21446818   2.099   1.503   4.041 -1.0670  0.2674 -0.0855
  123MOL   C21546819   2.198   1.412   4.008 -0.0835 -0.8383 -0.1776
  123MOL   C21646820   2.265   1.339   4.118 -0.1955 -0.2151  0.5934
  123MOL   C21746821   2.236   1.386   3.868 -0.4630  0.1344 -0.7723
  123MOL   C21846822   2.163   1.452   3.765 -0.4695 -0.2325 -0.5694
  123MOL   C21946823   1.958   1.777   3.724  0.1936  0.2546 -0.8373
  123MOL   H22046824   2.080   1.639   3.616 -0.7838 -1.9415 -2.2332
  123MOL   H22146825   1.988   1.671   3.956 -0.2710  1.2058 -0.5998
  123MOL   H22246826   2.075   1.526   4.144  1.4629 -0.7011  0.7367
  123MOL   H22346827   2.346   1.281   4.073 -0.7633 -1.3226  0.9742
  123MOL   H22446828   2.321   1.411   4.178 -0.8014  0.8250 -0.0805
  123MOL   H22546829   2.197   1.274   4.173  0.8220  0.9517  3.3212
  123MOL   H22646830   2.313   1.317   3.837 -0.6505  0.0783 -1.1108
  123MOL   H22746831   2.194   1.432   3.664  1.6751  2.2545 -0.4513
  123MOL   H22846832   1.873   1.773   3.792 -0.2076  0.1082 -1.3445
  123MOL   H22946833   1.922   1.823   3.631  1.9493 -0.9328 -2.1361
  123MOL   C23046834   2.079   1.854   3.778 -0.5494 -0.6299  0.2819
  123MOL   C23146835   2.053   1.934   3.904  0.1835 -0.4123  0.7386
  123MOL   C23246836   2.138   1.921   4.016 -0.1901  0.0201 -0.0350
  123MOL   C23346837   2.108   1.997   4.130 -0.1783 -0.8809 -0.7081
  123MOL   C23446838   1.992   2.078   4.129 -0.8022 -0.3700  0.1032
  123MOL   C23546839   1.947   2.151   4.254 -0.7319  0.0800  0.0637
  123MOL   C23646840   1.904   2.080   4.017  0.0417  0.7631 -0.1511
  123MOL   C23746841   1.946   2.025   3.901  0.3033  0.1290  0.3155
  123MOL   C23846842   2.145   1.943   3.667 -0.4451  0.5220  0.3691
  123MOL   H23946843   2.152   1.778   3.807  0.4719  0.1868 -0.1082
  123MOL   H24046844   2.228   1.863   4.032 -0.2386  0.0597  0.3906
  123MOL   H24146845   2.159   1.977   4.222 -0.7996  0.5477 -0.0364
  123MOL   H24246846   1.949   2.094   4.347  1.3382  0.9639  0.5837
  123MOL   H24346847   2.028   2.222   4.263 -0.0994 -0.3265 -2.0845
  123MOL   H24446848   1.848   2.197   4.248 -1.2599 -0.9044  0.9452
  123MOL   H24546849   1.814   2.139   4.019 -0.1604  0.4351  1.0951
  123MOL   H24646850   1.886   2.031   3.812 -0.5193  2.2758  0.9794
  123MOL   H24746851   2.187   2.033   3.710  2.4180  0.0042 -1.2488
  123MOL   H24846852   2.072   1.981   3.595 -0.7657 -1.0788 -0.1738
  123MOL   C24946853   2.262   1.877   3.589  0.6938 -0.5010  0.9250
  123MOL   C25046854   2.370   1.831   3.687  0.4963  0.2297 -0.0571
  123MOL   C25146855   2.420   1.698   3.679  0.8385  0.1577  0.0393
  123MOL   C25246856   2.511   1.657   3.767  0.2218  0.1358 -0.6021
  123MOL   C25346857   2.557   1.738   3.871 -0.2784 -0.1346 -0.4577
  123MOL   C25446858   2.665   1.688   3.973 -0.1664 -0.3069 -0.8609
  123MOL   C25546859   2.512   1.872   3.882  0.1365 -0.0446  0.3849
  123MOL   C25646860   2.412   1.916   3.790 -0.1088 -0.4086 -0.4306
  123MOL   C25746861   2.320   1.958   3.475  0.2184 -0.1403  0.1757
  123MOL   H25846862   2.231   1.782   3.546 -1.4632  1.0110 -0.9491
  123MOL   H25946863   2.383   1.632   3.601  0.4784  0.8282 -0.3605
  123MOL   H26046864   2.543   1.554   3.758 -2.0195 -0.4918 -2.0280
  123MOL   H26146865   2.758   1.680   3.917 -0.9508 -1.0979 -2.0916
  123MOL   H26246866   2.665   1.748   4.064 -1.2031  1.8025 -2.2033
  123MOL   H26346867   2.635   1.588   4.004  0.0306  0.1851  0.9958
  123MOL   H26446868   2.542   1.926   3.971 -1.0872  0.5932  0.4251
  123MOL   H26546869   2.367   2.013   3.796 -0.1293 -0.3054 -2.1575
  123MOL   H26646870   2.422   1.930   3.450 -0.6696 -0.7004 -3.1352
  123MOL   H26746871   2.331   2.061   3.508 -1.0353  0.9114 -2.5235
  123MOL   C26846872   2.231   1.945   3.348  0.8765  0.0927  0.3588
  123MOL   C26946873   2.238   1.805   3.287 -1.0462 -1.2572  0.3582
  123MOL   C27046874   2.136   1.712   3.311  0.0523 -0.6956  0.1659
  123MOL   C27146875   2.131   1.586   3.243  0.3940  0.7328  0.1937
  123MOL   C27246876   2.231   1.551   3.150 -0.7319 -0.0519  0.1612
  123MOL   C27346877   2.234   1.417   3.073  0.0365  0.5659 -0.3701
  123MOL   C27446878   2.328   1.649   3.124  0.4731  0.0681  0.3368
  123MOL   C27546879   2.335   1.771   3.190  0.3365  0.2401  0.4296
  123MOL   C27646880   2.252   2.053   3.243 -0.3387  0.2579 -0.3068
  123MOL   H27746881   2.127   1.951   3.381  1.0331 -1.1515  1.1174
  123MOL   H27846882   2.052   1.731   3.376  0.5215 -1.2621  0.9521
  123MOL   H27946883   2.048   1.522   3.265 -1.9872  1.9947 -4.5581
  123MOL   H28046884   2.263   1.337   3.142 -0.6052  1.7755  1.3441
  123MOL   H28146885   2.135   1.378   3.047 -0.0397 -0.8780  1.8979
  123MOL   H28246886   2.284   1.413   2.977  2.1080  1.0465  0.6673
  123MOL   H28346887   2.397   1.633   3.043  2.4157  3.7152  1.1698
  123MOL   H28446888   2.413   1.842   3.166 -0.7090  1.8331  1.6516
  123MOL   H28546889   2.214   2.037   3.142 -0.2819  1.1788 -0.4806
  123MOL   H28646890   2.360   2.060   3.230  0.0670 -0.3353  2.4457
  123MOL   C28746891   2.190   2.191   3.277 -0.6408 -0.1834 -0.4449
  123MOL   C28846892   2.045   2.181   3.326  0.2720  0.3262 -0.4161
  123MOL   C28946893   2.027   2.193   3.465  0.5956  0.0016 -0.5229
  123MOL   C29046894   1.897   2.168   3.514 -0.5392 -0.5297  0.0657
  123MOL   C29146895   1.799   2.116   3.429  0.1337  0.5465 -0.0471
  123MOL   C29246896   1.663   2.071   3.487  0.0146 -0.5419  0.1217
  123MOL   C29346897   1.830   2.092   3.299  0.2123  0.7963 -0.2933
  123MOL   C29446898   1.948   2.129   3.242 -0.1483 -0.2051  0.1988
  123MOL   C29546899   2.189   2.293   3.156  0.3288  0.8451  0.3767
  123MOL   H29646900   2.248   2.238   3.356 -2.5098 -0.0671  0.8885
  123MOL   H29746901   2.105   2.229   3.531  0.8940  1.0421 -1.4133
  123MOL   H29846902   1.869   2.193   3.616 -0.4278  2.1008 -0.5061
  123MOL   H29946903   1.610   2.007   3.417  0.4001 -1.7336  0.8991
  123MOL   H30046904   1.687   1.998   3.564 -1.6227 -2.1701 -0.8980
  123MOL   H30146905   1.593   2.143   3.529  0.2371 -1.2203  1.7091
  123MOL   H30246906   1.752   2.047   3.239  0.6293 -2.8939  1.7806
  123MOL   H30346907   1.969   2.102   3.139  0.6052  0.4378  0.1772
  123MOL   H30446908   2.103   2.360   3.159 -0.9937 -0.7599 -0.4707
  123MOL   H30546909   2.161   2.235   3.068 -3.0973  3.4802 -0.3935
  123MOL   C30646910   2.316   2.375   3.137 -1.0901 -0.0740  0.0401
  123MOL   C30746911   2.362   2.446   3.263  0.3690 -0.9009  0.3909
  123MOL   C30846912   2.293   2.563   3.303  0.1802  0.3374 -0.1227
  123MOL   C30946913   2.327   2.639   3.410  0.3884  0.5423 -0.1039
  123MOL   C31046914   2.439   2.593   3.481 -0.4119  0.3925  0.1554
  123MOL   C31146915   2.475   2.659   3.609  0.1490 -0.0916 -0.1581
  123MOL   C31246916   2.520   2.484   3.437  0.1413  0.3743  0.0922
  123MOL   C31346917   2.477   2.405   3.329  0.3353  0.1629  0.4916
  123MOL   C31446918   2.307   2.482   3.019 -0.2182  0.4700  0.3143
  123MOL   H31546919   2.398   2.308   3.113  0.6380  1.7801  0.5929
  123MOL   H31646920   2.213   2.599   3.240  0.1583 -1.0529 -0.9034
  123MOL   H31746921   2.261   2.722   3.428  0.1819  0.5592 -0.9148
  123MOL   H31846922   2.435   2.760   3.613  1.2136  0.2981  0.9252
  123MOL   H31946923   2.442   2.614   3.702 -3.5246  1.5041 -0.6093
  123MOL   H32046924   2.581   2.677   3.627  0.1333  0.7002 -0.8257
  123MOL   H32146925   2.609   2.458   3.492  0.5548 -1.9176 -1.5934
  123MOL   H32246926   2.536   2.320   3.297  0.1597 -0.6379  2.2105
  123MOL   H32346927   2.399   2.540   3.020  0.5189 -0.6838  1.7546
  123MOL   H32446928   2.217   2.539   3.042 -1.2310 -1.3550  0.9747
  123MOL   C32546929   2.290   2.423   2.877  0.4374 -0.1910  0.5191
  123MOL   C32646930   2.419   2.355   2.841  0.8265 -0.2393 -0.3728
  123MOL   C32746931   2.534   2.434   2.817 -0.3313 -0.0089 -0.5301
  123MOL   C32846932   2.654   2.366   2.797  0.2846  0.2717  0.7588
  123MOL   C32946933   2.658   2.227   2.788  0.1522 -0.0852 -0.1855
  123MOL   C33046934   2.791   2.156   2.784 -0.8090 -0.0093 -0.2768
  123MOL   C33146935   2.543   2.146   2.797 -0.1304  0.9634  0.2273
  123MOL   C33246936   2.425   2.216   2.822 -0.1269  0.1709 -0.7152
  123MOL   C33346937   2.256   2.526   2.765  0.3940  0.8427 -0.0746
  123MOL   H33446938   2.219   2.341   2.882 -1.6593  1.4435 -0.9867
  123MOL   H33546939   2.534   2.541   2.822 -0.4751 -0.0401  0.2011
  123MOL   H33646940   2.746   2.423   2.796 -0.0610  0.8724 -2.6906
  123MOL   H33746941   2.846   2.239   2.740 -1.2919  1.8060  2.4048
  123MOL   H33846942   2.839   2.128   2.878  1.1747  1.1178 -0.9411
  123MOL   H33946943   2.778   2.070   2.718  1.6644  0.4517 -1.4060
  123MOL   H34046944   2.556   2.039   2.792  1.1795  1.1266  0.0925
  123MOL   H34146945   2.336   2.156   2.836 -0.9528  1.5330  0.1154
  123MOL   H34246946   2.253   2.485   2.664 -0.9026 -1.0933  0.7219
  123MOL   H34346947   2.339   2.596   2.755  0.1331  1.2708  0.7304
  123MOL   C34446948   2.127   2.607   2.790 -0.5311  0.0484  0.1009
  123MOL   C34546949   2.013   2.532   2.853 -0.7273 -0.0028  0.0587
  123MOL   C34646950   1.956   2.413   2.802  0.7095  1.1140  0.4727
  123MOL   C34746951   1.839   2.353   2.851  0.9924 -0.0571 -0.1014
  123MOL   C34846952   1.790   2.399   2.979 -1.0471 -1.1050 -0.1637
  123MOL   C34946953   1.695   2.319   3.061  0.0819  0.2856  0.3462
  123MOL   C35046954   1.846   2.513   3.034  0.0795  0.2243 -0.0665
  123MOL   C35146955   1.957   2.579   2.977 -0.9722  0.2841 -0.6388
  123MOL   C35246956   2.073   2.688   2.667  0.1168 -0.4982 -0.3083
  123MOL   H35346957   2.150   2.690   2.856 -0.9900  0.8627 -0.7458
  123MOL   H35446958   1.985   2.368   2.708 -0.5969  0.3650  0.4197
  123MOL   H35546959   1.798   2.259   2.815  0.9947 -0.3072  0.5497
  123MOL   H35646960   1.736   2.322   3.161 -4.2742 -0.2164  2.2677
  123MOL   H35746961   1.601   2.373   3.072 -0.2696  0.0941 -1.5056
  123MOL   H35846962   1.692   2.214   3.032 -0.6973  0.4292 -0.1325
  123MOL   H35946963   1.800   2.559   3.121  0.1368 -2.0037  1.1731
  123MOL   H36046964   2.003   2.664   3.025 -1.7838 -0.0267  0.7302
  123MOL   H36146965   1.998   2.748   2.718 -1.6271 -1.5982 -1.5656
  123MOL   H36246966   2.018   2.626   2.597 -1.8645 -2.0609  2.5269
  123MOL   C36346967   2.172   2.771   2.590  0.4210  0.6138  0.4811
  123MOL   C36446968   2.246   2.872   2.683  0.0638 -0.3764 -0.0072
  123MOL   C36546969   2.385   2.865   2.711 -0.3788  0.3076  0.8883
  123MOL   C36646970   2.460   2.962   2.780 -0.0938  0.3780  0.1827
  123MOL   C36746971   2.387   3.069   2.839 -0.8798 -0.0630 -0.4220
  123MOL   C36846972   2.462   3.180   2.923  0.3905  0.3898  0.2442
  123MOL   C36946973   2.246   3.078   2.817 -0.3555  0.2846  0.1301
  123MOL   C37046974   2.175   2.979   2.742 -0.5885 -0.7026 -0.3706
  123MOL   C37146975   2.111   2.842   2.466 -1.1411 -0.1846 -0.0334
  123MOL   H37246976   2.247   2.698   2.560  0.6586  0.6213  1.0486
  123MOL   H37346977   2.430   2.773   2.678 -2.5730 -0.0950 -1.0577
  123MOL   H37446978   2.567   2.950   2.790  0.1467  2.0993 -0.0903
  123MOL   H37546979   2.470   3.159   3.030  1.7765 -2.4971 -0.3818
  123MOL   H37646980   2.567   3.181   2.894  0.1060  0.6683 -0.7927
  123MOL   H37746981   2.419   3.277   2.897  0.1916  0.4323  0.7267
  123MOL   H37846982   2.193   3.169   2.840  1.2376  0.9475  1.2743
  123MOL   H37946983   2.075   3.005   2.711 -1.1286 -1.4082  0.7384
  123MOL   H38046984   2.183   2.907   2.417 -0.6438  0.5103  1.5848
  123MOL   H38146985   2.014   2.888   2.484 -0.6616  0.4760  0.8851
  123MOL   H38246986   2.096   2.767   2.388 -0.3374  1.4059 -1.7566
  124MOL     C146987   7.271   2.336   3.595 -0.0833  0.3525  0.6487
  124MOL     C246988   7.365   2.379   3.716  0.2827 -0.4104 -0.0361
  124MOL     C346989   7.317   2.444   3.830  0.1919 -0.6841  0.1198
  124MOL     C446990   7.400   2.466   3.941 -0.4136 -0.1054  0.0734
  124MOL     C546991   7.535   2.438   3.929 -0.0543 -0.1154  0.5891
  124MOL     C646992   7.623   2.464   4.049 -0.0717 -0.1112  0.0815
  124MOL     C746993   7.588   2.377   3.813  0.5636  0.1136 -0.6267
  124MOL     C846994   7.505   2.342   3.704  0.8066 -0.5047 -0.0733
  124MOL     C946995   7.283   2.426   3.475  0.3622  0.7901 -0.4236
  124MOL    H1046996   7.295   2.234   3.569 -0.2700  0.1591  1.2216
  124MOL    H1146997   7.214   2.471   3.846 -0.4116 -2.7779  0.0160
  124MOL    H1246998   7.359   2.505   4.033 -1.6412  0.5117 -0.7292
  124MOL    H1346999   7.725   2.488   4.019 -0.2130  0.5278  0.1012
  124MOL    H1447000   7.582   2.549   4.104  0.9994 -0.2720  1.1648
  124MOL    H1547001   7.639   2.380   4.116  0.0068 -1.0313 -1.0754
  124MOL    H1647002   7.692   2.350   3.809  0.8948  1.6304 -4.0060
  124MOL    H1747003   7.544   2.298   3.613 -0.5544  0.9219 -1.3901
  124MOL    H1847004   7.390   2.444   3.466  1.2544 -2.5861  2.1120
  124MOL    H1947005   7.254   2.530   3.493 -1.7988  0.1187  0.1366
  124MOL    H2047006   7.167   2.349   3.627 -0.8669  0.1655 -1.7245
  124MOL    C2147007   7.213   2.364   3.353 -0.0059 -0.0071  0.7249
  124MOL    C2247008   7.260   2.445   3.227  0.5213 -0.2114 -0.9476
  124MOL    C2347009   7.354   2.400   3.131  0.4745  0.2736  0.1796
  124MOL    C2447010   7.392   2.482   3.025  0.2544 -0.0176  0.3509
  124MOL    C2547011   7.347   2.612   3.012 -0.2251 -0.0298  0.6400
  124MOL    C2647012   7.415   2.701   2.912  0.0920  0.2454 -0.1875
  124MOL    C2747013   7.256   2.663   3.102 -0.0715  0.5590  0.1534
  124MOL    C2847014   7.207   2.578   3.203  0.1645  0.0606  0.3724
  124MOL    C2947015   7.063   2.367   3.372  0.0579 -0.0529  0.0123
  124MOL    H3047016   7.239   2.259   3.358 -0.6542 -0.2219 -0.3477
  124MOL    H3147017   7.390   2.301   3.156 -1.9473 -0.5258  0.5698
  124MOL    H3247018   7.467   2.443   2.958 -2.2919 -1.7181 -1.6002
  124MOL    H3347019   7.493   2.654   2.852  0.2367 -2.5834  2.1446
  124MOL    H3447020   7.332   2.719   2.843 -0.2904 -1.5373 -0.2151
  124MOL    H3547021   7.445   2.792   2.965  1.3153  0.3846 -1.1009
  124MOL    H3647022   7.212   2.760   3.093 -1.1418  0.0190 -0.5069
  124MOL    H3747023   7.133   2.610   3.275  0.2236  1.0091  0.0118
  124MOL    H3847024   7.030   2.463   3.414 -0.0827 -0.3019  0.4740
  124MOL    H3947025   7.041   2.300   3.455 -0.9694 -1.0250 -1.0270
  124MOL    C4047026   6.973   2.337   3.247 -0.2171 -0.0718 -0.7671
  124MOL    C4147027   6.827   2.325   3.290  0.5986  0.0716  0.3042
  124MOL    C4247028   6.729   2.407   3.231 -0.0619  0.2554 -0.1332
  124MOL    C4347029   6.595   2.383   3.250 -0.0869 -0.2030  0.1900
  124MOL    C4447030   6.549   2.292   3.347 -0.2510 -1.0182 -0.5294
  124MOL    C4547031   6.397   2.279   3.375 -0.1882 -0.0408  0.9298
  124MOL    C4647032   6.641   2.217   3.419 -0.5055  1.0842 -0.1559
  124MOL    C4747033   6.779   2.226   3.388  0.1681  0.1352  0.0580
  124MOL    C4847034   7.022   2.219   3.158  0.8247  0.4779  0.3385
  124MOL    H4947035   6.974   2.433   3.195 -0.5718 -0.1278 -0.8796
  124MOL    H5047036   6.753   2.488   3.164 -2.4715  1.7038  0.7208
  124MOL    H5147037   6.520   2.450   3.211  0.7204  0.9198  0.5507
  124MOL    H5247038   6.322   2.296   3.298 -0.1635  1.5860  1.2378
  124MOL    H5347039   6.387   2.180   3.419  1.3179 -0.3343  0.6250
  124MOL    H5447040   6.373   2.346   3.458  1.7569 -0.3072  1.7394
  124MOL    H5547041   6.610   2.136   3.485 -0.7908  0.2239 -1.3352
  124MOL    H5647042   6.846   2.161   3.442  1.6002  0.3398 -1.4377
  124MOL    H5747043   7.032   2.131   3.222 -2.1755  0.9619  1.5666
  124MOL    H5847044   7.124   2.234   3.125  0.7880  1.3530  0.6057
  124MOL    C5947045   6.952   2.194   3.022  0.2773  0.0688 -0.1228
  124MOL    C6047046   6.814   2.121   3.022 -1.1150 -0.3108  0.1802
  124MOL    C6147047   6.708   2.174   2.947 -0.0051  0.4639 -0.3830
  124MOL    C6247048   6.586   2.099   2.941  0.6454  0.4126  0.0423
  124MOL    C6347049   6.561   1.986   3.027 -1.2763 -0.1896 -0.0723
  124MOL    C6447050   6.420   1.927   3.027 -0.3667 -0.0629  0.0479
  124MOL    C6547051   6.666   1.937   3.110 -0.4072 -0.5533  0.8746
  124MOL    C6647052   6.788   2.010   3.108 -0.2465 -0.3567  0.5882
  124MOL    C6747053   7.051   2.118   2.919  0.3369 -0.3683 -0.3045
  124MOL    H6847054   6.933   2.295   2.986 -1.9523  0.8088  2.9580
  124MOL    H6947055   6.725   2.261   2.885  0.8873  0.1861 -0.5350
  124MOL    H7047056   6.509   2.144   2.880  0.1413  1.4727  1.4380
  124MOL    H7147057   6.373   1.936   2.929 -0.4816 -3.9148 -0.3301
  124MOL    H7247058   6.422   1.823   3.057  0.8898 -0.6206 -1.8588
  124MOL    H7347059   6.369   1.983   3.106  1.8830 -0.0825  1.5697
  124MOL    H7447060   6.635   1.859   3.177 -1.1499 -1.5624 -0.5996
  124MOL    H7547061   6.876   1.974   3.159  0.5529  1.6594  0.6613
  124MOL    H7647062   7.140   2.181   2.910  1.7818 -1.9903  1.9326
  124MOL    H7747063   6.999   2.118   2.824  1.9735  2.9952 -1.2925
  124MOL    C7847064   7.111   1.978   2.948  0.2182 -0.4558  0.4076
  124MOL    C7947065   7.205   1.972   3.077  0.3039  0.0181  0.5197
  124MOL    C8047066   7.324   2.042   3.084 -0.0692  0.2560 -0.0879
  124MOL    C8147067   7.413   2.030   3.192 -0.2516 -0.1423 -0.1637
  124MOL    C8247068   7.375   1.954   3.304  0.5949  0.0744 -0.2721
  124MOL    C8347069   7.468   1.932   3.414 -0.3509 -0.3803  0.5691
  124MOL    C8447070   7.248   1.882   3.302  0.5454  0.2908  0.7569
  124MOL    C8547071   7.166   1.893   3.183  0.7339  0.2790 -0.6405
  124MOL    C8647072   7.170   1.913   2.820 -0.7317  0.0831 -0.4208
  124MOL    H8747073   7.024   1.917   2.974 -2.0217  1.3607 -2.4609
  124MOL    H8847074   7.355   2.096   2.995 -0.0443  0.0943 -0.1770
  124MOL    H8947075   7.510   2.076   3.178  0.5070 -1.8724 -0.7696
  124MOL    H9047076   7.433   1.999   3.493  1.6902  1.9448 -0.4384
  124MOL    H9147077   7.475   1.831   3.456 -2.0514 -1.5098 -1.7669
  124MOL    H9247078   7.567   1.965   3.383 -0.2570 -1.2334 -0.0626
  124MOL    H9347079   7.223   1.829   3.393 -1.5314 -1.6613 -0.9173
  124MOL    H9447080   7.074   1.837   3.173  0.2241  1.5713 -3.6506
  124MOL    H9547081   7.224   1.823   2.851 -0.1153  0.2862 -0.8975
  124MOL    H9647082   7.246   1.974   2.771 -1.6373  1.0308 -0.6732
  124MOL    C9747083   7.068   1.880   2.705  0.1070 -0.2014 -0.6157
  124MOL    C9847084   7.018   1.731   2.709  0.0956 -0.4313  0.1670
  124MOL    C9947085   6.897   1.699   2.780 -0.2487  0.0735  0.4738
  124MOL   C10047086   6.847   1.569   2.780 -0.9603  0.1781  0.0795
  124MOL   C10147087   6.916   1.465   2.715 -0.2227 -0.1729  0.4298
  124MOL   C10247088   6.856   1.328   2.730 -0.0489  0.0141  0.5280
  124MOL   C10347089   7.035   1.493   2.648  0.0715  0.1197 -0.1443
  124MOL   C10447090   7.091   1.625   2.654  0.0394 -0.2242 -0.1170
  124MOL   C10547091   7.128   1.903   2.568 -0.5054  0.0941  0.9887
  124MOL   H10647092   6.981   1.947   2.709 -0.0768 -0.5685  3.0213
  124MOL   H10747093   6.849   1.778   2.836  1.0913  0.3947  1.1908
  124MOL   H10847094   6.763   1.542   2.842 -0.2613 -3.3729 -0.3854
  124MOL   H10947095   6.878   1.289   2.829  0.7064  3.6186  1.8318
  124MOL   H11047096   6.751   1.349   2.713  0.5496  0.7786 -2.5287
  124MOL   H11147097   6.890   1.252   2.659 -0.3377  0.0743  0.3255
  124MOL   H11247098   7.084   1.413   2.595  0.7413  0.0872  0.5132
  124MOL   H11347099   7.180   1.641   2.595 -1.5453  0.7401 -2.3426
  124MOL   H11447100   7.072   1.834   2.504  0.9558 -0.3678  0.1720
  124MOL   H11547101   7.234   1.882   2.572 -0.2205  1.4629  0.9412
  124MOL   C11647102   7.116   2.053   2.526  0.7493 -0.3618 -0.1025
  124MOL   C11747103   6.969   2.081   2.480 -0.1396 -0.0702 -0.2904
  124MOL   C11847104   6.889   2.185   2.540 -0.4547 -0.1186  0.4062
  124MOL   C11947105   6.761   2.209   2.501  0.1839  0.0532  0.0459
  124MOL   C12047106   6.705   2.135   2.397  0.4537 -0.9965  0.3122
  124MOL   C12147107   6.568   2.166   2.343  0.0125 -0.0727 -1.1185
  124MOL   C12247108   6.777   2.034   2.336  0.3795  0.2094  0.9524
  124MOL   C12347109   6.909   2.009   2.377 -0.2395  0.2736 -0.1505
  124MOL   C12447110   7.218   2.102   2.421  0.1070  0.1080  0.8033
  124MOL   H12547111   7.125   2.107   2.620  0.1447  0.8021 -0.7006
  124MOL   H12647112   6.930   2.239   2.624 -0.3070 -0.2040  0.3883
  124MOL   H12747113   6.707   2.289   2.551  0.6168  0.8635 -0.7764
  124MOL   H12847114   6.487   2.148   2.415  0.7336  1.7022  0.1657
  124MOL   H12947115   6.557   2.260   2.291  0.4835  0.6051 -0.0044
  124MOL   H13047116   6.526   2.094   2.272  0.9393  0.1479 -1.8912
  124MOL   H13147117   6.730   1.974   2.260  2.7043  0.5816 -0.8523
  124MOL   H13247118   6.966   1.931   2.329 -0.4403 -0.0266  0.0969
  124MOL   H13347119   7.170   2.133   2.329  1.2503  0.8398  0.4434
  124MOL   H13447120   7.283   2.019   2.394 -0.0663  0.3851 -0.4658
  124MOL   C13547121   7.302   2.228   2.457 -0.1173  0.0895 -0.1483
  124MOL   C13647122   7.211   2.333   2.519  0.5074 -0.0637 -0.2722
  124MOL   C13747123   7.205   2.369   2.659 -0.3045 -0.5283  0.0643
  124MOL   C13847124   7.115   2.467   2.705 -0.1610  0.4834 -0.2343
  124MOL   C13947125   7.018   2.527   2.624  0.4632  0.5836  0.4706
  124MOL   C14047126   6.937   2.642   2.674  0.1270 -1.2609 -0.2014
  124MOL   C14147127   7.019   2.487   2.482 -0.1543 -0.1487  0.0282
  124MOL   C14247128   7.116   2.396   2.431 -0.2566 -0.0145 -0.7431
  124MOL   C14347129   7.389   2.285   2.353  0.6104  0.1426  0.8611
  124MOL   H14447130   7.368   2.200   2.539  0.4696 -0.7832 -0.9073
  124MOL   H14547131   7.271   2.319   2.729  0.6457  0.0594 -0.3994
  124MOL   H14647132   7.120   2.504   2.806 -0.8717  0.0567 -0.0346
  124MOL   H14747133   6.959   2.660   2.779 -1.8668  1.1209 -0.1309
  124MOL   H14847134   6.968   2.732   2.620  0.3951 -0.6501  0.9482
  124MOL   H14947135   6.833   2.631   2.643 -0.1208  1.4545 -0.5221
  124MOL   H15047136   6.956   2.534   2.408  2.8589  0.4005 -2.3227
  124MOL   H15147137   7.134   2.364   2.330  3.5885 -0.3714  0.0075
  124MOL   H15247138   7.339   2.328   2.267 -2.0016 -0.8853  1.8239
  124MOL   H15347139   7.442   2.212   2.292 -2.2049 -3.1111  2.1491
  124MOL   C15447140   7.490   2.384   2.400 -0.1199 -0.3130 -0.4435
  124MOL   C15547141   7.462   2.526   2.344 -0.1209 -0.1360  0.2463
  124MOL   C15647142   7.460   2.548   2.204 -0.1096 -0.2329 -0.2887
  124MOL   C15747143   7.457   2.674   2.147 -0.4001 -0.3716 -0.4517
  124MOL   C15847144   7.456   2.785   2.237  0.0942  0.2742 -0.1076
  124MOL   C15947145   7.446   2.928   2.175 -0.5758  0.9453  0.2958
  124MOL   C16047146   7.463   2.763   2.377  0.0160 -0.6392  0.9016
  124MOL   C16147147   7.472   2.637   2.432  0.2830 -0.0582  0.3629
  124MOL   C16247148   7.632   2.342   2.371  0.1161  0.4694  0.4405
  124MOL   H16347149   7.480   2.396   2.508 -2.2896 -1.0679 -0.5450
  124MOL   H16447150   7.455   2.463   2.138 -0.6134 -0.6098  0.2247
  124MOL   H16547151   7.439   2.694   2.043 -1.5079  0.9126 -0.0418
  124MOL   H16647152   7.367   2.979   2.230 -0.6516  0.6674  0.4430
  124MOL   H16747153   7.534   2.990   2.192 -0.0599  0.5380 -0.8412
  124MOL   H16847154   7.406   2.917   2.074  0.0474  0.9019  0.0519
  124MOL   H16947155   7.488   2.847   2.440 -1.6564  0.4546  0.1404
  124MOL   H17047156   7.483   2.622   2.538 -1.6212  2.6314  1.0080
  124MOL   H17147157   7.696   2.430   2.377  0.4770  0.3528 -1.2745
  124MOL   H17247158   7.637   2.322   2.264  0.4837 -1.3041  0.7722
  124MOL   C17347159   7.691   2.232   2.458  0.1674  0.4469  0.3130
  124MOL   C17447160   7.695   2.259   2.601 -0.3357  0.1453  0.1906
  124MOL   C17547161   7.761   2.374   2.644 -0.0315 -0.4068  0.8149
  124MOL   C17647162   7.777   2.396   2.782  0.0979  0.0648 -0.4506
  124MOL   C17747163   7.716   2.308   2.874  0.1401  0.2457 -0.5710
  124MOL   C17847164   7.727   2.326   3.026  0.5778  0.0776 -0.3200
  124MOL   C17947165   7.641   2.200   2.828  0.0840  0.4614 -0.2202
  124MOL   C18047166   7.634   2.173   2.689 -0.3769 -0.7469 -0.1727
  124MOL   C18147167   7.837   2.201   2.408  0.2446  0.1286 -0.5739
  124MOL   H18247168   7.629   2.145   2.435 -0.5679  1.1000 -0.1864
  124MOL   H18347169   7.794   2.448   2.572 -1.6711  0.4038  0.8841
  124MOL   H18447170   7.838   2.480   2.813  2.1546  0.0493 -4.1938
  124MOL   H18547171   7.625   2.310   3.060  0.5581 -2.4849 -1.4697
  124MOL   H18647172   7.787   2.248   3.073 -0.9360 -0.8858  0.0293
  124MOL   H18747173   7.762   2.427   3.049  1.1982 -0.3735  0.7734
  124MOL   H18847174   7.600   2.135   2.903  0.4150 -1.0520 -1.3266
  124MOL   H18947175   7.591   2.076   2.670  0.9657 -1.6429  1.3206
  124MOL   H19047176   7.900   2.289   2.410  0.1454  0.1716  1.8945
  124MOL   H19147177   7.846   2.176   2.302 -0.0575 -0.4928 -0.4546
  124MOL   C19247178   7.918   2.088   2.484  0.1239  0.2761  0.0068
  124MOL   C19347179   8.058   2.133   2.496 -1.1087 -0.3716  0.0511
  124MOL   C19447180   0.050   2.172   2.379  0.0125 -0.2949  0.5378
  124MOL   C19547181   0.184   2.211   2.384 -0.3554 -0.3045 -0.0494
  124MOL   C19647182   0.259   2.207   2.506 -0.4816 -0.7001  0.7098
  124MOL   C19747183   0.415   2.236   2.505  0.1377  0.4200 -0.1250
  124MOL   C19847184   0.187   2.173   2.622  0.1299 -0.1001 -0.5005
  124MOL   C19947185   0.051   2.141   2.619  0.2562 -0.1690  0.3662
  124MOL   C20047186   7.913   1.955   2.411  0.5677 -0.7283  0.4666
  124MOL   H20147187   7.893   2.065   2.587 -0.2040  1.7553  0.2669
  124MOL   H20247188   0.013   2.166   2.277  0.3478 -0.4102  0.4201
  124MOL   H20347189   0.249   2.207   2.297 -0.3717  1.4347 -0.1579
  124MOL   H20447190   0.433   2.314   2.579  0.1612 -0.1358  0.4586
  124MOL   H20547191   0.468   2.146   2.536  0.3115  0.4686 -0.2768
  124MOL   H20647192   0.451   2.267   2.406 -0.2752  0.9164 -0.1202
  124MOL   H20747193   0.252   2.164   2.708  2.9927 -0.0596 -2.5746
  124MOL   H20847194   0.005   2.120   2.714 -0.3620  1.0844  0.3532
  124MOL   H20947195   7.989   1.885   2.448  2.0329  0.5754 -0.0274
  124MOL   H21047196   7.931   1.973   2.305  0.7019 -2.0543  0.2587
  124MOL   C21147197   7.770   1.883   2.424  0.0310  0.4919 -0.1506
  124MOL   C21247198   7.719   1.846   2.561  0.0277 -0.0785  0.5445
  124MOL   C21347199   7.813   1.830   2.669 -0.2593 -0.9686 -0.1085
  124MOL   C21447200   7.763   1.799   2.795  0.4327  0.2105 -0.0452
  124MOL   C21547201   7.626   1.792   2.810  0.8422  0.0082  0.1666
  124MOL   C21647202   7.552   1.766   2.947 -0.2044  0.2269 -0.0525
  124MOL   C21747203   7.542   1.807   2.705 -0.5245 -0.3733 -0.0546
  124MOL   C21847204   7.586   1.829   2.574  0.9149 -0.3669 -0.1094
  124MOL   C21947205   7.776   1.750   2.347  0.3062 -0.4858  0.0094
  124MOL   H22047206   7.701   1.944   2.366 -0.0189 -1.3802 -2.1372
  124MOL   H22147207   7.919   1.830   2.647  0.2363 -0.8288  2.1518
  124MOL   H22247208   7.827   1.796   2.882  0.9146 -0.8997 -0.4252
  124MOL   H22347209   7.508   1.667   2.942 -1.5083  0.8446 -1.4525
  124MOL   H22447210   7.614   1.768   3.037  0.6342  2.4603 -0.6226
  124MOL   H22547211   7.470   1.838   2.954 -0.0556  0.3236  0.6519
  124MOL   H22647212   7.438   1.784   2.717 -0.5372  0.2000  0.9900
  124MOL   H22747213   7.520   1.831   2.488 -1.1506  3.1941  1.4614
  124MOL   H22847214   7.688   1.696   2.380 -0.8357  0.8852 -0.7094
  124MOL   H22947215   7.857   1.698   2.397 -2.0860 -0.6724  3.9187
  124MOL   C23047216   7.766   1.754   2.190 -0.2409  0.5319 -0.5213
  124MOL   C23147217   7.634   1.795   2.146 -0.1445 -0.0052  0.3575
  124MOL   C23247218   7.632   1.905   2.058  0.1459  0.5722 -0.2951
  124MOL   C23347219   7.514   1.970   2.019  0.1740  0.1367 -0.2264
  124MOL   C23447220   7.391   1.905   2.061  0.0968  0.6081  0.4643
  124MOL   C23547221   7.257   1.952   2.014  0.3439  0.1959  0.4552
  124MOL   C23647222   7.391   1.786   2.142  0.2072  0.6833 -0.0485
  124MOL   C23747223   7.511   1.729   2.177  0.0577 -0.3382  0.0828
  124MOL   C23847224   7.808   1.618   2.136 -0.1535 -0.2306  0.2511
  124MOL   H23947225   7.844   1.824   2.161 -0.8670  1.2882 -0.4153
  124MOL   H24047226   7.723   1.950   2.023 -1.2868  1.4026 -3.1181
  124MOL   H24147227   7.513   2.053   1.950 -0.2295 -0.8192 -1.3763
  124MOL   H24247228   7.267   2.057   1.984  1.3355  0.3293  1.2008
  124MOL   H24347229   7.227   1.900   1.924 -1.0662  0.8158  0.5619
  124MOL   H24447230   7.184   1.951   2.095  1.5436  0.5654  1.5605
  124MOL   H24547231   7.305   1.724   2.161  3.5265 -3.5392  2.3361
  124MOL   H24647232   7.519   1.638   2.235 -3.0429 -1.1542 -0.6952
  124MOL   H24747233   7.789   1.602   2.030 -2.0178  3.1239  0.0053
  124MOL   H24847234   7.740   1.540   2.171 -0.3514 -1.0072 -1.7832
  124MOL   C24947235   7.955   1.574   2.150 -0.0514  0.5032 -0.0784
  124MOL   C25047236   8.050   1.627   2.039 -0.2844  0.6189  0.7676
  124MOL   C25147237   8.047   1.573   1.911  0.4919  0.3385  0.4511
  124MOL   C25247238   0.065   1.605   1.814  0.2900  0.4856  0.7071
  124MOL   C25347239   0.163   1.700   1.849  0.2898  0.4999 -0.7438
  124MOL   C25447240   0.274   1.746   1.758 -0.1012  1.0667 -0.1575
  124MOL   C25547241   0.161   1.757   1.979  0.3599  0.3855  0.0608
  124MOL   C25647242   0.069   1.718   2.076  0.3931 -0.6558  0.1253
  124MOL   C25747243   7.969   1.424   2.175  0.9602 -0.1386 -0.1609
  124MOL   H25847244   7.983   1.617   2.246  1.0936  0.0206 -0.1774
  124MOL   H25947245   7.968   1.503   1.887  0.9104  0.0681 -0.1491
  124MOL   H26047246   0.059   1.560   1.716 -0.0533 -1.0644  1.4280
  124MOL   H26147247   0.371   1.748   1.807 -0.0720  0.3011 -0.1835
  124MOL   H26247248   0.283   1.678   1.673 -4.8229 -0.7442  0.6777
  124MOL   H26347249   0.259   1.848   1.724 -0.9373  1.2191  0.6631
  124MOL   H26447250   0.245   1.820   2.006  1.9979 -2.7107  2.4010
  124MOL   H26547251   0.078   1.767   2.173  0.1757 -2.7077  1.1999
  124MOL   H26647252   8.068   1.387   2.149  0.0454 -2.2807 -0.7225
  124MOL   H26747253   7.904   1.368   2.107 -1.7514  1.7646  0.7523
  124MOL   C26847254   7.928   1.375   2.318 -0.0517 -0.2630  0.0345
  124MOL   C26947255   8.000   1.443   2.435  0.0828  0.1678  0.0854
  124MOL   C27047256   0.053   1.486   2.412 -0.8319 -0.7813  0.0093
  124MOL   C27147257   0.110   1.572   2.504 -0.0342  0.7657 -0.2228
  124MOL   C27247258   0.034   1.609   2.620 -0.1577 -0.4001  0.1015
  124MOL   C27347259   0.102   1.707   2.711 -0.1583 -0.5972 -0.4627
  124MOL   C27447260   7.989   1.553   2.649  0.4425  0.1134  0.6198
  124MOL   C27547261   7.934   1.465   2.556 -0.9123 -0.2946  0.0603
  124MOL   C27647262   7.916   1.223   2.339 -0.6540 -1.1916 -0.2795
  124MOL   H27747263   7.828   1.411   2.342  0.4331  0.8097  0.5097
  124MOL   H27847264   0.105   1.462   2.321 -1.0873  1.9984 -0.9097
  124MOL   H27947265   0.200   1.616   2.463 -0.3359  2.0964  0.5375
  124MOL   H28047266   0.123   1.807   2.673 -0.9205 -0.8685 -1.6020
  124MOL   H28147267   0.044   1.729   2.801  0.1809 -0.2122 -0.3359
  124MOL   H28247268   0.193   1.661   2.750  0.4462  0.7288 -0.2926
  124MOL   H28347269   7.937   1.589   2.736 -0.7463 -0.0493 -0.0073
  124MOL   H28447270   7.834   1.425   2.568 -0.0738 -2.3883  0.2846
  124MOL   H28547271   7.906   1.200   2.445  1.8689 -0.7682  0.0897
  124MOL   H28647272   8.008   1.175   2.303 -0.7381 -2.1663  0.7568
  124MOL   C28747273   7.799   1.171   2.252 -0.3272  0.6870 -0.8443
  124MOL   C28847274   7.669   1.237   2.269  0.2981  0.1296 -0.3528
  124MOL   C28947275   7.610   1.260   2.397 -1.0102 -0.5492 -0.3404
  124MOL   C29047276   7.489   1.334   2.409  0.5711 -0.8289  0.2730
  124MOL   C29147277   7.409   1.367   2.291  0.1780  0.1613 -0.0065
  124MOL   C29247278   7.276   1.437   2.298  0.3556  0.5600 -0.8193
  124MOL   C29347279   7.460   1.334   2.167  0.3731  0.0164 -0.0300
  124MOL   C29447280   7.590   1.282   2.160  0.1749 -0.1934  0.0086
  124MOL   C29547281   7.784   1.022   2.262 -0.1231 -0.1233  0.4231
  124MOL   H29647282   7.819   1.191   2.146  2.3280  0.3579 -0.4160
  124MOL   H29747283   7.654   1.239   2.494  0.4399 -1.8544 -1.2530
  124MOL   H29847284   7.446   1.354   2.506  0.7504  0.5713  0.0677
  124MOL   H29947285   7.212   1.408   2.215 -2.7243 -1.4709  2.1022
  124MOL   H30047286   7.217   1.405   2.384  2.7131 -1.1037  0.2150
  124MOL   H30147287   7.284   1.546   2.299  0.1104  0.5731  0.1444
  124MOL   H30247288   7.406   1.349   2.074  0.0946  3.5514  0.6411
  124MOL   H30347289   7.630   1.273   2.060 -0.2909  2.2338 -0.4430
  124MOL   H30447290   7.761   0.992   2.365  0.5893 -2.5510 -0.0816
  124MOL   H30547291   7.878   0.973   2.236  0.4599  0.3874  1.5361
  124MOL   C30647292   7.672   0.954   2.173 -0.5894 -0.0894 -0.4791
  124MOL   C30747293   7.654   0.813   2.215  0.7637 -1.0643  0.2475
  124MOL   C30847294   7.766   0.734   2.241 -0.7669  0.6321 -0.0117
  124MOL   C30947295   7.742   0.604   2.289 -0.7257 -0.0617  0.1772
  124MOL   C31047296   7.614   0.556   2.328 -0.0455  0.6800  0.0837
  124MOL   C31147297   7.590   0.420   2.384  0.6626 -0.2297 -0.4901
  124MOL   C31247298   7.505   0.630   2.288 -0.3809 -0.0870  0.6599
  124MOL   C31347299   7.522   0.756   2.236 -0.0851  0.4387  0.0663
  124MOL   C31447300   7.711   0.965   2.027 -0.0734 -0.3470 -0.5968
  124MOL   H31547301   7.580   1.003   2.204 -0.5200  0.6228 -1.3830
  124MOL   H31647302   7.867   0.765   2.218 -0.7159  0.5997  0.1624
  124MOL   H31747303   7.826   0.538   2.309  0.2103  0.3402 -2.3018
  124MOL   H31847304   7.515   0.426   2.463  0.7566 -1.2745 -0.3191
  124MOL   H31947305   7.551   0.353   2.309  0.8740  0.2093 -0.9979
  124MOL   H32047306   7.684   0.378   2.422  1.7819  1.3901 -1.3956
  124MOL   H32147307   7.407   0.587   2.303 -1.2765  1.3272 -0.9147
  124MOL   H32247308   7.431   0.813   2.227 -1.0987 -1.1362  0.3135
  124MOL   H32347309   7.798   0.905   2.001  0.6406  0.7991 -0.8759
  124MOL   H32447310   7.741   1.068   2.008  0.2415 -0.0796  1.2844
  124MOL   C32547311   7.599   0.931   1.923 -0.9860 -0.8352 -0.6991
  124MOL   C32647312   7.667   0.887   1.794 -0.1426  0.5544  0.3771
  124MOL   C32747313   7.694   0.973   1.686  0.1229  0.4545 -0.2323
  124MOL   C32847314   7.752   0.927   1.562 -0.2698 -0.0524 -0.5631
  124MOL   C32947315   7.788   0.789   1.554 -0.6536 -0.2991  0.9242
  124MOL   C33047316   7.871   0.731   1.444  0.2436  0.2322 -0.8028
  124MOL   C33147317   7.760   0.703   1.663 -0.3218 -0.2154  0.5140
  124MOL   C33247318   7.697   0.751   1.780 -0.0605 -0.0309  0.3519
  124MOL   C33347319   7.490   1.046   1.914  0.2832  0.3177 -0.3705
  124MOL   H33447320   7.546   0.847   1.965  0.3927 -0.7383  1.3159
  124MOL   H33547321   7.674   1.077   1.709  0.8597  0.1432  1.9498
  124MOL   H33647322   7.770   0.996   1.481 -3.6915  0.6323 -0.8355
  124MOL   H33747323   7.976   0.761   1.449  0.4972 -0.7145 -0.2811
  124MOL   H33847324   7.865   0.622   1.442 -0.8312  0.2996 -1.4221
  124MOL   H33947325   7.823   0.774   1.356  0.5264  1.9530 -0.1452
  124MOL   H34047326   7.799   0.603   1.646  0.2046 -0.1772  1.4824
  124MOL   H34147327   7.670   0.685   1.861 -1.1834 -2.6946 -2.1150
  124MOL   H34247328   7.545   1.137   1.890  2.3384 -0.3923  1.4255
  124MOL   H34347329   7.446   1.062   2.013 -1.3256 -2.2175 -0.6186
  124MOL   C34447330   7.367   1.030   1.820 -0.3775 -0.1914 -0.0185
  124MOL   C34547331   7.304   1.166   1.797 -0.0759 -1.0281  0.3475
  124MOL   C34647332   7.356   1.249   1.696 -0.4088  0.5960  0.6060
  124MOL   C34747333   7.304   1.372   1.689  0.0211  0.0961  0.1974
  124MOL   C34847334   7.187   1.417   1.760 -0.1262  0.0817 -0.5756
  124MOL   C34947335   7.140   1.557   1.745  0.8210 -0.1887 -0.1146
  124MOL   C35047336   7.127   1.327   1.851  0.5005  0.7296 -0.4665
  124MOL   C35147337   7.189   1.200   1.869 -0.3202 -0.0343 -0.0842
  124MOL   C35247338   7.276   0.922   1.878 -0.5581  0.1319  0.2693
  124MOL   H35347339   7.397   0.980   1.728  0.8537  1.9675 -0.8219
  124MOL   H35447340   7.445   1.228   1.640 -0.8595 -0.9346  0.4383
  124MOL   H35547341   7.369   1.432   1.627  0.2681 -0.0239  0.3386
  124MOL   H35647342   7.055   1.559   1.677  0.0800 -0.6989  0.7947
  124MOL   H35747343   7.120   1.607   1.840 -0.7156  1.0723 -1.0860
  124MOL   H35847344   7.216   1.622   1.701  2.0607 -0.9281  0.8859
  124MOL   H35947345   7.041   1.353   1.910  0.0800 -2.6199  0.5189
  124MOL   H36047346   7.139   1.143   1.945 -2.2681  0.4172 -1.0172
  124MOL   H36147347   7.258   0.943   1.983 -0.9438 -1.1197  0.4661
  124MOL   H36247348   7.336   0.831   1.878  0.8394  0.9812 -2.6893
  124MOL   C36347349   7.144   0.899   1.795  0.1238  0.7272  1.4222
  124MOL   C36447350   7.008   0.880   1.866  0.0625  0.1938 -0.3699
  124MOL   C36547351   6.897   0.940   1.818 -0.2429 -0.4977  0.6522
  124MOL   C36647352   6.772   0.915   1.873  1.0453  0.2468 -0.9235
  124MOL   C36747353   6.761   0.837   1.992 -0.3478 -0.0535  0.6035
  124MOL   C36847354   6.632   0.824   2.067 -0.9095 -0.6238 -0.4697
  124MOL   C36947355   6.881   0.788   2.048  0.4866  0.4104  0.0305
  124MOL   C37047356   7.003   0.800   1.982  0.1474 -0.2318  0.3624
  124MOL   C37147357   7.167   0.791   1.694  0.9547 -0.7470  0.8782
  124MOL   H37247358   7.127   0.980   1.723 -0.2896 -1.3211 -0.8323
  124MOL   H37347359   6.897   0.992   1.723 -1.7714 -0.6830  0.5362
  124MOL   H37447360   6.679   0.959   1.840 -0.5737 -0.8644  1.9805
  124MOL   H37547361   6.586   0.725   2.070 -3.9961  0.7735 -0.5808
  124MOL   H37647362   6.647   0.841   2.174 -0.6698  1.4425 -0.8236
  124MOL   H37747363   6.563   0.900   2.033 -2.5411 -1.4890  0.8229
  124MOL   H37847364   6.862   0.736   2.141  1.3507 -1.8456 -1.0163
  124MOL   H37947365   7.086   0.747   2.028  1.6512  1.9859  0.2809
  124MOL   H38047366   7.103   0.784   1.607  2.4968  1.9226 -0.5450
  124MOL   H38147367   7.169   0.692   1.738  0.2724 -0.9944  0.3450
  124MOL   H38247368   7.265   0.813   1.652  1.2245 -1.1656  1.2854
  125MOL     C147369   0.248   4.967   6.773 -0.0364  0.1472  0.5921
  125MOL     C247370   0.323   5.000   6.641 -0.2011 -0.0301 -0.1667
  125MOL     C347371   0.438   4.925   6.602 -0.6380  0.4421 -0.3833
  125MOL     C447372   0.495   4.943   6.471  0.7388  0.3438 -0.2309
  125MOL     C547373   0.445   5.044   6.383  0.0114  0.0050  0.3009
  125MOL     C647374   0.508   5.068   6.251  0.0928 -0.5231 -0.0324
  125MOL     C747375   0.337   5.121   6.426  0.3936 -0.1121 -0.1964
  125MOL     C847376   0.272   5.092   6.549 -0.1581 -0.2269 -0.0015
  125MOL     C947377   0.181   4.826   6.765  0.1463  0.2100  0.5959
  125MOL    H1047378   0.316   4.976   6.857 -0.8921 -4.0185  1.8684
  125MOL    H1147379   0.460   4.838   6.663 -0.6682  0.0147 -0.9794
  125MOL    H1247380   0.577   4.880   6.440  1.3232  0.5594  0.8422
  125MOL    H1347381   0.448   5.126   6.181 -0.6347 -0.3978  0.6900
  125MOL    H1447382   0.605   5.112   6.274 -0.4114  0.3887  0.3535
  125MOL    H1547383   0.517   4.980   6.187 -2.5423  0.4622 -1.8052
  125MOL    H1647384   0.320   5.210   6.368 -0.7930  0.3042  0.7794
  125MOL    H1747385   0.182   5.148   6.568  1.1948  2.9185 -2.2772
  125MOL    H1847386   0.248   4.744   6.738 -0.4370  0.0638 -0.4168
  125MOL    H1947387   0.113   4.832   6.681  0.3376 -1.8317  0.2825
  125MOL    H2047388   0.174   5.043   6.796  2.1297  2.1850  0.9745
  125MOL    C2147389   0.100   4.791   6.893 -0.1719 -0.2011 -0.1053
  125MOL    C2247390   0.182   4.790   7.018 -0.2855  0.1915  0.0489
  125MOL    C2347391   0.128   4.841   7.140  0.5820  0.1272  0.7928
  125MOL    C2447392   0.200   4.838   7.260  0.0092  0.3012 -0.0454
  125MOL    C2547393   0.330   4.790   7.261 -0.4639  0.5772  0.8181
  125MOL    C2647394   0.405   4.798   7.389 -0.2425  0.2978 -0.7085
  125MOL    C2747395   0.382   4.727   7.143  0.1585 -0.3387 -0.8799
  125MOL    C2847396   0.309   4.728   7.023  0.3213  0.2164 -0.0099
  125MOL    C2947397   0.022   4.658   6.876 -0.2832 -0.4121 -0.2846
  125MOL    H3047398   0.023   4.867   6.904 -1.7302 -1.9004  1.1223
  125MOL    H3147399   0.034   4.893   7.132  0.0697 -0.9988 -0.8306
  125MOL    H3247400   0.156   4.883   7.348 -1.9358 -0.6428 -0.5223
  125MOL    H3347401   0.513   4.811   7.380 -0.1534  0.8395  0.9340
  125MOL    H3447402   0.359   4.873   7.453  2.3628  1.0063  0.3880
  125MOL    H3547403   0.396   4.701   7.439 -1.0163  0.1805 -1.0604
  125MOL    H3647404   0.479   4.679   7.143  0.7556  0.8404  0.4981
  125MOL    H3747405   0.356   4.690   6.933 -1.6258  0.2673 -1.0635
  125MOL    H3847406   8.071   4.617   6.972 -1.2852  1.0472  0.0288
  125MOL    H3947407   0.100   4.586   6.852 -1.0201 -0.9894 -0.9803
  125MOL    C4047408   7.981   4.659   6.776 -0.0354 -0.6893 -0.5508
  125MOL    C4147409   7.858   4.721   6.845 -0.6444 -0.3010  0.1698
  125MOL    C4247410   7.807   4.838   6.784  0.1756  1.0896 -0.2164
  125MOL    C4347411   7.690   4.897   6.826  0.0885  0.5411 -0.3021
  125MOL    C4447412   7.629   4.837   6.939  0.2760 -0.4304  1.0157
  125MOL    C4547413   7.495   4.903   6.972 -0.3278  0.4978  0.2730
  125MOL    C4647414   7.678   4.725   7.009  0.1668  0.2079  0.6747
  125MOL    C4747415   7.805   4.672   6.968 -0.2539  0.8076  0.5572
  125MOL    C4847416   7.941   4.518   6.714 -0.1301 -0.2193 -1.6084
  125MOL    H4947417   8.004   4.722   6.689 -1.8533  0.3257 -0.3166
  125MOL    H5047418   7.841   4.863   6.685  0.1078  1.5571 -0.1234
  125MOL    H5147419   7.649   4.980   6.770 -1.5335 -1.2049 -1.7615
  125MOL    H5247420   7.422   4.890   6.893 -1.1552 -0.5784  1.2069
  125MOL    H5347421   7.463   4.865   7.069  0.4800 -0.6169  0.1126
  125MOL    H5447422   7.496   5.012   6.973 -1.7997  0.5881 -3.0406
  125MOL    H5547423   7.634   4.678   7.095 -0.4793 -0.4518 -0.0111
  125MOL    H5647424   7.844   4.584   7.018 -2.0345 -1.9369 -2.7238
  125MOL    H5747425   7.848   4.522   6.658 -1.3780 -0.5139  0.3950
  125MOL    H5847426   7.913   4.454   6.798 -1.8544 -1.3270 -2.9987
  125MOL    C5947427   8.055   4.463   6.622 -0.0636  0.1974  0.6210
  125MOL    C6047428   0.013   4.553   6.507 -0.2998 -0.3516  0.4959
  125MOL    C6147429   0.137   4.604   6.483  0.3693  0.0230  0.2438
  125MOL    C6247430   0.167   4.683   6.373  0.9383  0.1091 -0.9891
  125MOL    C6347431   0.066   4.712   6.287 -0.2309  0.9595  0.5150
  125MOL    C6447432   0.090   4.819   6.181 -0.0756 -0.2274  0.5807
  125MOL    C6547433   8.014   4.663   6.314 -0.7146  0.0394 -0.5117
  125MOL    C6647434   7.983   4.586   6.426  0.8510 -0.5461 -0.3846
  125MOL    C6747435   8.021   4.311   6.577  0.1773 -0.4057 -0.0454
  125MOL    H6847436   0.069   4.462   6.677 -0.4466  3.7544  1.4616
  125MOL    H6947437   0.209   4.568   6.554  1.0896  0.6433 -0.1706
  125MOL    H7047438   0.258   4.742   6.378  1.4818 -0.8635  1.2469
  125MOL    H7147439   0.109   4.774   6.084 -1.7073 -2.4274  1.2302
  125MOL    H7247440   0.010   4.892   6.171 -0.3577 -0.3904  1.6084
  125MOL    H7347441   0.168   4.887   6.214 -0.5382 -0.1549  1.5526
  125MOL    H7447442   7.938   4.694   6.243  0.2490 -0.3583 -1.7482
  125MOL    H7547443   7.880   4.563   6.450  0.1522  3.9971  1.5627
  125MOL    H7647444   7.959   4.326   6.489  0.1633  0.6564  0.1427
  125MOL    H7747445   7.959   4.253   6.645 -0.1508  2.8275  2.5254
  125MOL    C7847446   0.067   4.225   6.533  0.2602 -0.4919 -0.1686
  125MOL    C7947447   0.029   4.138   6.409 -0.1286  0.1953 -0.1602
  125MOL    C8047448   0.018   3.994   6.422 -0.3746 -0.6203  0.3022
  125MOL    C8147449   8.070   3.911   6.313 -0.3461 -0.7605 -0.4706
  125MOL    C8247450   8.075   3.968   6.184 -0.2520 -0.2175  0.6471
  125MOL    C8347451   8.062   3.877   6.057  0.2314 -0.0081  0.4984
  125MOL    C8447452   0.015   4.105   6.163  0.4860  0.2164 -0.1015
  125MOL    C8547453   0.025   4.187   6.277  0.0747  0.2918 -0.0902
  125MOL    C8647454   0.131   4.141   6.653  0.0926  0.3738 -0.1789
  125MOL    H8747455   0.149   4.286   6.496  1.6156 -0.7437  2.3520
  125MOL    H8847456   0.014   3.949   6.519 -2.1331  0.7430  0.8737
  125MOL    H8947457   8.048   3.807   6.330  0.6957 -1.2721 -2.1359
  125MOL    H9047458   7.956   3.859   6.037  0.2199 -0.1150  0.6518
  125MOL    H9147459   0.007   3.927   5.964 -0.6001  0.9348  0.7771
  125MOL    H9247460   0.044   3.788   6.067  0.9837  0.3755 -0.6787
  125MOL    H9347461   0.028   4.153   6.067  2.8252  3.7674  1.8690
  125MOL    H9447462   0.041   4.293   6.263 -0.2241  0.3566  0.0380
  125MOL    H9547463   0.203   4.070   6.612  1.5732  0.2679  2.4196
  125MOL    H9647464   0.056   4.080   6.705  1.5737 -0.9358  0.4624
  125MOL    C9747465   0.204   4.218   6.776 -0.0958 -0.0021  0.5302
  125MOL    C9847466   0.335   4.286   6.735  0.2227 -0.6866 -0.0218
  125MOL    C9947467   0.425   4.218   6.655  0.2968  0.7720 -0.1505
  125MOL   C10047468   0.547   4.275   6.611  1.0684  0.3847 -0.1038
  125MOL   C10147469   0.581   4.403   6.652  0.6382 -0.5722  0.6930
  125MOL   C10247470   0.717   4.455   6.612  0.1513 -0.2529 -0.5294
  125MOL   C10347471   0.491   4.474   6.741  0.6437 -0.3591  0.7016
  125MOL   C10447472   0.362   4.417   6.777 -0.3822  0.2022  0.0933
  125MOL   C10547473   0.235   4.139   6.907 -0.3880 -0.2165 -0.5145
  125MOL   H10647474   0.135   4.298   6.805 -0.8397 -0.7760  0.9321
  125MOL   H10747475   0.405   4.117   6.623 -4.2170  1.1843  1.0153
  125MOL   H10847476   0.612   4.209   6.556  1.6625  0.8883 -0.0123
  125MOL   H10947477   0.787   4.391   6.665  2.2113  0.8217 -1.8830
  125MOL   H11047478   0.729   4.446   6.504  0.2492  1.3060 -0.6554
  125MOL   H11147479   0.737   4.555   6.650 -0.1089 -0.1823 -0.5740
  125MOL   H11247480   0.531   4.566   6.779 -0.8854  0.4897  0.2918
  125MOL   H11347481   0.298   4.482   6.835 -0.4881 -0.6534  0.9281
  125MOL   H11447482   0.274   4.205   6.985  1.2876 -0.7660 -0.8623
  125MOL   H11547483   0.316   4.068   6.889 -0.9215 -0.4959 -1.8476
  125MOL   C11647484   0.116   4.057   6.968 -0.4143  0.5611  0.1116
  125MOL   C11747485   8.057   4.126   6.976  0.6303 -0.0852 -0.1381
  125MOL   C11847486   7.956   4.073   6.899  0.4480 -0.1433 -0.0025
  125MOL   C11947487   7.827   4.131   6.908 -0.2005  0.2479  0.7793
  125MOL   C12047488   7.794   4.234   6.994  0.4808  0.0779  0.0936
  125MOL   C12147489   7.648   4.290   7.005 -0.3615 -0.0487 -0.7680
  125MOL   C12247490   7.895   4.284   7.069  0.3661  0.0177  0.3975
  125MOL   C12347491   8.029   4.234   7.060  0.0217  0.3943 -0.2011
  125MOL   C12447492   0.149   3.992   7.103 -0.4823  0.1332  0.1194
  125MOL   H12547493   0.105   3.970   6.904 -1.8007 -0.8307  2.1832
  125MOL   H12647494   7.964   3.987   6.833  1.7702 -1.2999  1.6216
  125MOL   H12747495   7.747   4.081   6.854 -0.4274  0.9313  0.4784
  125MOL   H12847496   7.593   4.236   7.082  1.3623  1.7179  1.7750
  125MOL   H12947497   7.652   4.395   7.032  0.6917  0.2082 -1.8469
  125MOL   H13047498   7.594   4.279   6.910  0.0400 -0.0350 -0.9969
  125MOL   H13147499   7.870   4.370   7.130 -3.5676 -2.2397  2.1477
  125MOL   H13247500   0.031   4.283   7.110  0.1313  1.8028 -1.7355
  125MOL   H13347501   0.174   4.065   7.180 -0.3598 -1.5615  1.7420
  125MOL   H13447502   0.249   3.950   7.090 -1.2034 -1.5073 -0.3116
  125MOL   C13547503   0.053   3.877   7.157  0.2857  0.2938 -0.2455
  125MOL   C13647504   8.040   3.932   7.263  0.5207 -0.6429  0.9872
  125MOL   C13747505   7.904   3.964   7.227 -0.0299  0.0031 -0.3120
  125MOL   C13847506   7.816   4.039   7.311 -0.1501  0.6769  0.3329
  125MOL   C13947507   7.870   4.073   7.440  0.6180 -0.4829  0.0474
  125MOL   C14047508   7.779   4.141   7.540 -0.1903  0.2875  0.7175
  125MOL   C14147509   8.001   4.045   7.475 -0.1865 -0.7572 -0.2925
  125MOL   C14247510   0.009   3.975   7.389  0.1388 -0.0114 -0.2310
  125MOL   C14347511   0.131   3.755   7.213  0.5944 -0.5969 -0.6789
  125MOL   H14447512   8.067   3.844   7.078  0.0347  0.5112 -0.1273
  125MOL   H14547513   7.879   3.956   7.122 -1.5169 -0.3770  0.0699
  125MOL   H14647514   7.718   4.074   7.282 -0.7781 -0.3252  1.2562
  125MOL   H14747515   7.793   4.248   7.526  1.4750  0.1153  0.9101
  125MOL   H14847516   7.680   4.104   7.513  0.3738  0.4098 -1.7075
  125MOL   H14947517   7.803   4.117   7.643 -0.2048 -0.5268  0.5352
  125MOL   H15047518   8.038   4.072   7.573  1.7905 -3.3190 -0.2836
  125MOL   H15147519   0.109   3.960   7.427 -0.6076  1.1457  2.3311
  125MOL   H15247520   0.075   3.694   7.283  1.2911  3.1421  3.3105
  125MOL   H15347521   0.201   3.791   7.288 -0.6159 -1.2947  0.7960
  125MOL   C15447522   0.186   3.669   7.105 -0.5014 -0.4534 -0.6146
  125MOL   C15547523   0.084   3.570   7.041 -0.2696 -0.1871  0.1697
  125MOL   C15647524   0.016   3.615   6.930 -0.4215  0.5860  0.2899
  125MOL   C15747525   8.003   3.528   6.870  0.0116 -0.0586  0.3630
  125MOL   C15847526   7.984   3.396   6.917  0.2426 -0.0477 -0.1784
  125MOL   C15947527   7.882   3.308   6.848  0.5969  0.1237  0.2272
  125MOL   C16047528   8.056   3.351   7.025  0.0357  0.0188 -0.4518
  125MOL   C16147529   0.067   3.436   7.087 -0.2202  0.2115 -1.2992
  125MOL   C16247530   0.317   3.595   7.146  1.4809 -0.6810  0.0068
  125MOL   H16347531   0.218   3.747   7.035  0.3843  1.1620  1.5236
  125MOL   H16447532   0.043   3.711   6.889  1.6319 -0.6583 -1.3884
  125MOL   H16547533   7.940   3.561   6.788  1.4838  1.4170 -0.1794
  125MOL   H16647534   7.882   3.312   6.739 -1.3225 -2.9699  0.0682
  125MOL   H16747535   7.912   3.209   6.881 -0.2385 -1.2877 -3.0699
  125MOL   H16847536   7.777   3.323   6.873  0.1688 -1.8838 -0.2910
  125MOL   H16947537   8.049   3.249   7.060 -0.4520  0.9512  2.2786
  125MOL   H17047538   0.123   3.392   7.169  1.6584 -0.2865 -2.8193
  125MOL   H17147539   0.334   3.520   7.068  1.5450  0.4275 -1.0627
  125MOL   H17247540   0.294   3.532   7.232 -2.1751  1.5464  0.7332
  125MOL   C17347541   0.445   3.680   7.171 -0.6113  0.0181 -0.3273
  125MOL   C17447542   0.475   3.760   7.047  1.1519  0.1247 -0.1155
  125MOL   C17547543   0.474   3.704   6.916  0.5147  0.2138  0.0747
  125MOL   C17647544   0.530   3.770   6.808 -0.1216  0.1750  0.3649
  125MOL   C17747545   0.572   3.905   6.821 -0.4350 -0.5095 -0.4672
  125MOL   C17847546   0.651   3.978   6.712 -0.2581 -1.2178 -0.1576
  125MOL   C17947547   0.559   3.964   6.950 -0.1402 -0.3337  0.2928
  125MOL   C18047548   0.511   3.893   7.058 -0.2928  0.6789  0.4404
  125MOL   C18147549   0.573   3.604   7.223 -0.0397  0.4287 -0.1929
  125MOL   H18247550   0.415   3.751   7.248  0.6149  1.0263 -0.7625
  125MOL   H18347551   0.450   3.600   6.903  2.9175 -0.2240 -1.0716
  125MOL   H18447552   0.542   3.720   6.713  0.1532 -1.4045  1.2139
  125MOL   H18547553   0.593   3.970   6.620  2.3593  0.7660 -2.0296
  125MOL   H18647554   0.662   4.084   6.735 -3.0343 -1.1364  1.0105
  125MOL   H18747555   0.751   3.937   6.698 -0.8973 -2.6239 -0.6969
  125MOL   H18847556   0.605   4.060   6.967 -1.3712  0.2176  0.5464
  125MOL   H18947557   0.519   3.923   7.161  0.3296 -2.1458  1.2553
  125MOL   H19047558   0.668   3.656   7.214 -1.0487  2.0389 -2.1302
  125MOL   H19147559   0.583   3.521   7.153  1.6525  0.3639  0.1053
  125MOL   C19247560   0.564   3.541   7.363  0.1797 -0.6257 -0.4635
  125MOL   C19347561   0.573   3.651   7.464 -0.5120 -0.1834  0.0729
  125MOL   C19447562   0.699   3.700   7.515 -0.6011  0.2257 -0.4172
  125MOL   C19547563   0.705   3.800   7.614  0.3240  0.9035 -0.3419
  125MOL   C19647564   0.589   3.865   7.650 -0.0039 -0.0294 -0.9150
  125MOL   C19747565   0.584   3.977   7.755  0.1151  0.3402 -0.6951
  125MOL   C19847566   0.466   3.830   7.592  0.0018 -0.5003 -0.4468
  125MOL   C19947567   0.460   3.726   7.500  0.3461  0.4915 -0.0825
  125MOL   C20047568   0.673   3.433   7.381  0.0656 -0.3745 -0.2193
  125MOL   H20147569   0.472   3.483   7.370  1.0328 -2.0144 -0.6469
  125MOL   H20247570   0.787   3.658   7.468 -0.1638 -1.1164  1.5622
  125MOL   H20347571   0.804   3.835   7.639  0.2532  0.8756 -0.0224
  125MOL   H20447572   0.485   4.010   7.787  0.0278 -0.4992 -0.0727
  125MOL   H20547573   0.633   3.940   7.845  0.4661 -2.8690 -2.1283
  125MOL   H20647574   0.635   4.061   7.708  2.1051 -1.2978 -1.5051
  125MOL   H20747575   0.372   3.873   7.624  0.5178  0.4183 -0.1480
  125MOL   H20847576   0.372   3.695   7.445  0.8219 -1.3738  0.1586
  125MOL   H20947577   0.694   3.410   7.485 -0.5300  0.5520  0.1125
  125MOL   H21047578   0.762   3.474   7.332 -0.3861  1.5806  0.5677
  125MOL   C21147579   0.636   3.295   7.305  0.2552 -0.0397  0.4740
  125MOL   C21247580   0.518   3.230   7.388 -0.2367 -0.4093 -0.0736
  125MOL   C21347581   0.545   3.165   7.512  0.9174 -0.7454 -0.2724
  125MOL   C21447582   0.434   3.111   7.589 -0.2389  0.1395 -0.0016
  125MOL   C21547583   0.302   3.126   7.547 -0.3499  0.4192  0.1121
  125MOL   C21647584   0.198   3.059   7.637  0.0180 -0.1827  0.2215
  125MOL   C21747585   0.280   3.194   7.426  0.2515 -0.1383 -0.4262
  125MOL   C21847586   0.385   3.241   7.343 -0.2438 -0.0483  0.7607
  125MOL   C21947587   0.756   3.200   7.283 -0.4000  0.6166  0.1515
  125MOL   H22047588   0.609   3.317   7.202 -1.7000 -1.1955  0.6962
  125MOL   H22147589   0.643   3.163   7.556  0.4962 -0.7500  0.6662
  125MOL   H22247590   0.467   3.069   7.683  0.3477  0.2661 -0.1489
  125MOL   H22347591   0.207   3.106   7.735 -1.1293 -2.7106  1.5856
  125MOL   H22447592   0.103   3.096   7.598  0.7437  1.2004 -0.2983
  125MOL   H22547593   0.203   2.951   7.642 -1.6266 -0.3255 -0.8224
  125MOL   H22647594   0.177   3.190   7.395  0.3313 -0.3529 -0.6723
  125MOL   H22747595   0.366   3.281   7.244 -1.1249 -1.6004  0.2851
  125MOL   H22847596   0.717   3.111   7.235 -2.3644  0.9425  1.0652
  125MOL   H22947597   0.784   3.158   7.380  0.7636 -1.6662 -1.1544
  125MOL   C23047598   0.882   3.265   7.222 -0.0143  0.6245 -0.0171
  125MOL   C23147599   0.848   3.311   7.082  0.0709  0.2271  0.2038
  125MOL   C23247600   0.831   3.447   7.051  0.1517  0.4506  0.1102
  125MOL   C23347601   0.787   3.489   6.923  0.5999  0.5296 -0.8319
  125MOL   C23447602   0.759   3.393   6.820 -0.0850 -0.6843 -1.1601
  125MOL   C23547603   0.711   3.436   6.688  0.0026 -0.4383 -0.3588
  125MOL   C23647604   0.783   3.259   6.857  0.9122 -0.1354  0.5867
  125MOL   C23747605   0.824   3.216   6.985 -0.6124  0.0825 -0.0860
  125MOL   C23847606   1.012   3.179   7.236  0.3128 -0.5079  0.1124
  125MOL   H23947607   0.926   3.354   7.267 -1.3138  1.4026 -0.2379
  125MOL   H24047608   0.874   3.515   7.124  2.0841 -0.2788 -0.3015
  125MOL   H24147609   0.782   3.595   6.905  0.7686  0.4878 -1.1178
  125MOL   H24247610   0.611   3.393   6.681 -0.7659  1.0147  1.2369
  125MOL   H24347611   0.699   3.544   6.681 -1.4818 -0.5524  0.2816
  125MOL   H24447612   0.771   3.400   6.605  0.8311  0.2472 -0.0611
  125MOL   H24547613   0.749   3.181   6.790  0.0630  1.3837 -0.7774
  125MOL   H24647614   0.827   3.111   7.009  0.0851  0.3634  1.0682
  125MOL   H24747615   1.089   3.216   7.168 -1.1819 -0.5875 -1.6412
  125MOL   H24847616   0.977   3.082   7.200 -2.0908  0.3531  0.0538
  125MOL   C24947617   1.065   3.167   7.383  0.3081  0.0899 -0.5374
  125MOL   C25047618   1.093   3.302   7.453  0.3892  0.4905 -0.5578
  125MOL   C25147619   1.002   3.345   7.555  0.3975  0.1958  0.4481
  125MOL   C25247620   1.027   3.462   7.619  0.5587  0.3707  0.1422
  125MOL   C25347621   1.140   3.544   7.585  0.0078 -0.5362  0.5502
  125MOL   C25447622   1.172   3.672   7.653 -0.2628  0.5766 -0.0691
  125MOL   C25547623   1.214   3.506   7.471  0.6752  0.1044  0.1340
  125MOL   C25647624   1.199   3.381   7.412  0.1801 -0.0514  0.0952
  125MOL   C25747625   1.199   3.075   7.376 -0.0329 -0.6191  0.4511
  125MOL   H25847626   0.994   3.114   7.447  2.6562 -1.6936  0.6875
  125MOL   H25947627   0.926   3.278   7.593  0.2836 -1.5715 -2.7634
  125MOL   H26047628   0.962   3.501   7.696  0.8699 -0.5523  0.8801
  125MOL   H26147629   1.237   3.740   7.597 -0.3527 -0.0766 -0.9856
  125MOL   H26247630   1.082   3.731   7.671 -1.2030 -0.8071 -0.1615
  125MOL   H26347631   1.210   3.642   7.751  0.0906 -0.0285 -0.3873
  125MOL   H26447632   1.300   3.561   7.435  0.7354  0.2392  0.4850
  125MOL   H26547633   1.267   3.348   7.336  0.8501  0.3601  0.5159
  125MOL   H26647634   1.264   3.096   7.291 -1.5290  1.5181 -0.1947
  125MOL   H26747635   1.163   2.973   7.360 -3.2310  0.1363  2.2522
  125MOL   C26847636   1.287   3.072   7.495  0.2519  0.1272  0.8499
  125MOL   C26947637   1.385   2.949   7.476 -0.2906 -0.3772  0.1902
  125MOL   C27047638   1.517   2.978   7.435 -0.4163 -0.3709 -0.1419
  125MOL   C27147639   1.609   2.875   7.407 -0.1547 -0.6133  0.2657
  125MOL   C27247640   1.572   2.739   7.424 -0.6267 -0.0280  0.2747
  125MOL   C27347641   1.671   2.635   7.398  1.1075 -0.4735 -0.2504
  125MOL   C27447642   1.439   2.703   7.463  0.4404  0.1380  0.1544
  125MOL   C27547643   1.349   2.810   7.484 -0.0525 -0.3113  0.1978
  125MOL   C27647644   1.219   3.059   7.633 -0.2701 -0.7062  0.0739
  125MOL   H27747645   1.350   3.161   7.488  0.7485 -0.3936 -1.8535
  125MOL   H27847646   1.542   3.083   7.423 -1.6397 -0.0735 -0.1658
  125MOL   H27947647   1.707   2.913   7.381 -1.1779  0.8405 -1.6222
  125MOL   H28047648   1.683   2.554   7.470 -1.4571  0.3359  1.1615
  125MOL   H28147649   1.646   2.590   7.302  0.3848 -0.9225  0.1388
  125MOL   H28247650   1.766   2.686   7.383  0.6181 -0.1818 -2.6069
  125MOL   H28347651   1.416   2.600   7.484 -1.8912  0.9837  1.9172
  125MOL   H28447652   1.248   2.777   7.507  0.0960  0.4895  2.0590
  125MOL   H28547653   1.181   2.957   7.634  2.5253 -1.8660 -3.3240
  125MOL   H28647654   1.132   3.123   7.648 -0.3630 -0.9707  0.6990
  125MOL   C28747655   1.313   3.077   7.752 -0.0546 -0.3059 -0.1130
  125MOL   C28847656   1.248   3.023   7.873 -0.4265 -0.4705 -0.1718
  125MOL   C28947657   1.146   3.086   7.943  0.6157 -0.8100  0.2817
  125MOL   C29047658   1.075   3.023   8.045  0.3812 -0.3709 -0.1483
  125MOL   C29147659   1.121   2.900   0.012  0.4501  0.6595  0.3325
  125MOL   C29247660   1.058   2.842   0.144 -0.4810 -0.5310  0.6254
  125MOL   C29347661   1.230   2.841   8.031  0.0663  0.0888  0.0907
  125MOL   C29447662   1.288   2.894   7.913 -0.8339 -0.2750 -0.4221
  125MOL   C29547663   1.361   3.223   7.777  0.4880  0.3959  0.3558
  125MOL   H29647664   1.401   3.018   7.729  0.5425  0.9910 -1.2893
  125MOL   H29747665   1.115   3.185   7.911  0.5366 -0.5530  1.1313
  125MOL   H29847666   0.998   3.076   0.019  1.0076 -1.3705  1.7714
  125MOL   H29947667   1.029   2.931   0.201  0.9015  1.0406 -1.0744
  125MOL   H30047668   0.967   2.789   0.115 -0.6077 -0.0548  0.1485
  125MOL   H30147669   1.109   2.774   0.212  0.5378  1.0281  1.4532
  125MOL   H30247670   1.264   2.749   8.075  1.5905  2.0749  3.1700
  125MOL   H30347671   1.371   2.839   7.871  0.0363  2.4724 -2.4759
  125MOL   H30447672   1.281   3.292   7.804  0.0118  1.7786 -4.0960
  125MOL   H30547673   1.401   3.265   7.684 -1.3258  0.2011 -0.5433
  125MOL   C30647674   1.457   3.232   7.893 -0.3000  0.1584  0.4370
  125MOL   C30747675   1.469   3.378   7.926  0.5518  0.0674  0.2060
  125MOL   C30847676   1.422   3.420   8.056  0.0529 -0.2942  0.3108
  125MOL   C30947677   1.419   3.561   0.011  0.2439  0.0287 -0.1207
  125MOL   C31047678   1.473   3.646   7.994 -0.0809 -0.0384  0.5155
  125MOL   C31147679   1.474   3.797   8.007 -0.3153  0.3867 -0.5173
  125MOL   C31247680   1.507   3.600   7.867  0.9273 -0.1465  0.4835
  125MOL   C31347681   1.515   3.471   7.831 -0.7305  0.3432 -0.0911
  125MOL   C31447682   1.595   3.173   7.878  0.7371 -0.4135  0.5126
  125MOL   H31547683   1.415   3.182   7.980  0.9773 -2.5182 -0.4311
  125MOL   H31647684   1.387   3.343   0.042  1.3945 -1.1904  0.0038
  125MOL   H31747685   1.402   3.593   0.112  1.7863 -1.2333  0.5502
  125MOL   H31847686   1.436   3.834   0.022 -0.8679  1.1169 -1.0166
  125MOL   H31947687   1.580   3.814   8.022 -0.5561  0.5463  1.1028
  125MOL   H32047688   1.444   3.858   7.922  1.4053  0.3953 -1.1358
  125MOL   H32147689   1.547   3.658   7.785  0.9172 -0.2050  0.4366
  125MOL   H32247690   1.555   3.449   7.733 -1.2128  0.5548 -0.3343
  125MOL   H32347691   1.640   3.204   7.783 -0.8410 -1.1336 -0.4789
  125MOL   H32447692   1.578   3.067   7.859  1.8611 -0.2401 -1.6021
  125MOL   C32547693   1.687   3.189   7.998  0.0904  0.5686  0.5086
  125MOL   C32647694   1.807   3.289   7.975 -1.1705 -0.1792  0.5381
  125MOL   C32747695   1.789   3.414   8.037 -0.2573  0.2827  0.0195
  125MOL   C32847696   1.897   3.511   8.027  0.3254  0.0320 -0.0139
  125MOL   C32947697   2.014   3.478   7.954 -0.0870  0.0334  0.1325
  125MOL   C33047698   2.121   3.576   7.941  0.2106  0.1093 -0.5740
  125MOL   C33147699   2.032   3.343   7.901  0.2600  0.3472 -0.1588
  125MOL   C33247700   1.926   3.253   7.911 -0.2519 -1.0910 -0.3767
  125MOL   C33347701   1.739   3.052   8.051  0.3716 -0.6508  0.3402
  125MOL   H33447702   1.628   3.242   8.073 -2.1264  1.7225 -1.9451
  125MOL   H33547703   1.707   3.440   0.021  0.1917  1.5939  0.0850
  125MOL   H33647704   1.884   3.605   8.079  1.4109 -1.1150  2.3746
  125MOL   H33747705   2.222   3.540   7.961 -0.3553 -1.6908 -0.8383
  125MOL   H33847706   2.135   3.613   7.839  0.0662  3.0697  0.4461
  125MOL   H33947707   2.102   3.670   7.993 -1.4829 -0.9525  0.7733
  125MOL   H34047708   2.126   3.320   7.851  0.0990  0.6197 -0.5905
  125MOL   H34147709   1.937   3.157   7.862  1.4227 -0.7947 -0.6201
  125MOL   H34247710   1.821   3.068   0.041  0.9844 -0.2768 -0.4561
  125MOL   H34347711   1.778   2.990   7.970  0.5743  1.4641 -1.2610
  125MOL   C34447712   1.646   2.970   0.062 -0.4132  0.3110  0.0652
  125MOL   C34547713   1.597   3.057   0.173 -0.4512  0.2193 -0.2360
  125MOL   C34647714   1.461   3.111   0.169  0.8575 -0.1333 -0.1873
  125MOL   C34747715   1.422   3.192   0.279 -0.7166  0.1727  0.8913
  125MOL   C34847716   1.507   3.221   0.391  0.1988  0.9170  0.9656
  125MOL   C34947717   1.463   3.311   0.506  0.1683  0.2692  0.3773
  125MOL   C35047718   1.633   3.157   0.399  0.7750 -0.2503 -0.1515
  125MOL   C35147719   1.682   3.086   0.283 -0.1756 -0.2265  0.6345
  125MOL   C35247720   1.712   2.832   0.109  0.3870 -0.2027  0.2538
  125MOL   H35347721   1.557   2.944   0.005 -0.2634 -0.6723  0.2685
  125MOL   H35447722   1.385   3.094   0.094  2.2330  0.9633 -1.8717
  125MOL   H35547723   1.325   3.240   0.275 -0.4401  0.7217  0.6954
  125MOL   H35647724   1.439   3.238   0.582  0.3615  2.0191  2.1503
  125MOL   H35747725   1.545   3.376   0.536 -0.7694  0.8150  1.7802
  125MOL   H35847726   1.384   3.383   0.483 -0.0532 -0.4173 -1.0863
  125MOL   H35947727   1.692   3.152   0.489  2.4502 -1.0421 -1.2719
  125MOL   H36047728   1.779   3.042   0.299  0.9143  2.4836  1.8306
  125MOL   H36147729   1.797   2.856   0.173  1.0098 -1.8483  0.0829
  125MOL   H36247730   1.755   2.779   0.023 -0.0066  0.1219 -0.1437
  125MOL   C36347731   1.614   2.720   0.158 -0.3052 -0.3316  0.4050
  125MOL   C36447732   1.552   2.756   0.294  0.2478 -0.6797 -0.1516
  125MOL   C36547733   1.411   2.743   0.308  0.2342 -0.2769 -0.4075
  125MOL   C36647734   1.347   2.783   0.428  0.2567 -0.1441  0.5780
  125MOL   C36747735   1.433   2.820   0.533  0.0227 -0.9370  0.3546
  125MOL   C36847736   1.370   2.847   0.668 -0.4695  0.2089 -0.2900
  125MOL   C36947737   1.572   2.829   0.523 -0.2467  0.6178 -0.2109
  125MOL   C37047738   1.634   2.796   0.404 -0.0359 -0.1702 -0.5559
  125MOL   C37147739   1.674   2.579   0.173  0.3238 -0.0198 -0.3848
  125MOL   H37247740   1.529   2.707   0.091  0.5079  2.1710 -1.1639
  125MOL   H37347741   1.353   2.721   0.219 -0.4492 -0.8300  0.1741
  125MOL   H37447742   1.239   2.786   0.419  0.3773 -0.3725 -1.2279
  125MOL   H37547743   1.280   2.791   0.690  0.0803  0.0326  1.6290
  125MOL   H37647744   1.435   2.830   0.754 -2.1763  2.4601  1.5212
  125MOL   H37747745   1.342   2.953   0.672 -1.5572 -0.1027  0.4002
  125MOL   H37847746   1.632   2.851   0.610  2.8950 -1.2111 -1.8164
  125MOL   H37947747   1.742   2.796   0.400  0.0236  0.2036  0.6894
  125MOL   H38047748   1.759   2.592   0.240 -0.0394 -2.3015  0.5384
  125MOL   H38147749   1.711   2.546   0.076 -2.7256 -1.1997 -1.1806
  125MOL   H38247750   1.610   2.502   0.213  3.9294 -2.6443  0.5954
  126MOL     C147751   5.741   7.269   4.313  0.4167  0.3363  0.2380
  126MOL     C247752   5.727   7.127   4.254  0.3899 -0.8469 -0.7407
  126MOL     C347753   5.633   7.034   4.301 -0.6025  0.2361 -0.5826
  126MOL     C447754   5.621   6.916   4.234 -0.6909  0.1019  0.3729
  126MOL     C547755   5.703   6.884   4.126  0.0245 -0.1460 -0.4346
  126MOL     C647756   5.690   6.752   4.064 -0.4591  0.0109  0.0078
  126MOL     C747757   5.803   6.977   4.082 -0.7039  0.0140 -0.1571
  126MOL     C847758   5.810   7.099   4.146 -0.6528  0.6258  0.1708
  126MOL     C947759   5.867   7.286   4.389  0.0874 -0.4638  0.2059
  126MOL    H1047760   5.729   7.339   4.230 -0.1608 -1.3530 -1.1426
  126MOL    H1147761   5.571   7.050   4.388  0.8440  0.5107  0.4337
  126MOL    H1247762   5.541   6.849   4.265 -2.1541  1.2938 -0.7319
  126MOL    H1347763   5.592   6.708   4.085 -0.7884  1.1216  0.8413
  126MOL    H1447764   5.716   6.745   3.958  1.9920 -0.8850  0.6262
  126MOL    H1547765   5.750   6.678   4.117  0.5486 -0.1333 -1.3216
  126MOL    H1647766   5.857   6.951   3.992 -2.9481 -0.8236 -1.3183
  126MOL    H1747767   5.878   7.174   4.109  0.1008 -0.9703 -1.8119
  126MOL    H1847768   5.896   7.390   4.406  4.1110 -1.2572 -1.3106
  126MOL    H1947769   5.940   7.240   4.322  1.5248 -2.2611  2.9386
  126MOL    H2047770   5.653   7.279   4.376 -0.8443  1.8316 -1.6831
  126MOL    C2147771   5.871   7.208   4.523 -0.1424  0.8598 -0.6710
  126MOL    C2247772   5.817   7.293   4.646 -0.0586  0.5449  0.4626
  126MOL    C2347773   5.700   7.245   4.715 -0.4435  0.1289  0.7578
  126MOL    C2447774   5.645   7.307   4.824  0.1816 -0.5821  0.1397
  126MOL    C2547775   5.709   7.427   4.866 -0.8367 -0.2811 -0.6408
  126MOL    C2647776   5.643   7.513   4.969  0.0998  0.2919  0.0457
  126MOL    C2747777   5.830   7.475   4.809 -0.0408 -0.3408 -0.3351
  126MOL    C2847778   5.888   7.405   4.698  0.7939 -0.1302 -0.2513
  126MOL    C2947779   6.004   7.142   4.552 -0.3372  0.0959 -0.3021
  126MOL    H3047780   5.803   7.123   4.522  1.3728 -0.5437  3.5051
  126MOL    H3147781   5.665   7.147   4.686  2.0722 -1.7640  3.7757
  126MOL    H3247782   5.559   7.261   4.870 -0.2133  1.4598  1.5620
  126MOL    H3347783   5.605   7.610   4.939  1.1934  0.0719 -2.1456
  126MOL    H3447784   5.565   7.458   5.023 -0.9298  0.0139 -1.6970
  126MOL    H3547785   5.720   7.553   5.035 -1.0142  0.0011  1.5634
  126MOL    H3647786   5.869   7.569   4.844 -1.4501  0.7880 -1.6757
  126MOL    H3747787   5.980   7.443   4.657 -0.1149  0.2113 -2.0139
  126MOL    H3847788   6.075   7.223   4.538 -2.1639  1.7889 -0.0070
  126MOL    H3947789   6.028   7.068   4.475  2.0603 -0.3004  0.8050
  126MOL    C4047790   6.010   7.083   4.693 -0.2663 -0.1493  0.0519
  126MOL    C4147791   6.147   7.106   4.741 -0.4412 -0.0626 -0.1177
  126MOL    C4247792   6.165   7.155   4.870  0.2518 -0.2366  0.3864
  126MOL    C4347793   6.297   7.165   4.922 -0.5401 -0.3610  0.0731
  126MOL    C4447794   6.410   7.134   4.848  0.2067  0.0308 -0.7865
  126MOL    C4547795   6.558   7.160   4.888 -0.1311 -0.0489 -0.3598
  126MOL    C4647796   6.395   7.096   4.716 -0.1240  0.1298  0.2487
  126MOL    C4747797   6.265   7.083   4.666 -0.0729 -0.3837  0.3136
  126MOL    C4847798   5.963   6.934   4.687 -0.0692  0.2582  0.1446
  126MOL    H4947799   5.947   7.124   4.771 -0.6100  0.1217 -0.3622
  126MOL    H5047800   6.082   7.186   4.932  1.8902  0.1177  2.4722
  126MOL    H5147801   6.317   7.202   5.021 -2.2520  0.3042  0.1781
  126MOL    H5247802   6.573   7.146   4.995 -0.4379  2.4528  0.0465
  126MOL    H5347803   6.634   7.096   4.844 -0.4513 -0.0894 -0.8495
  126MOL    H5447804   6.579   7.265   4.867 -0.6225  0.3492  1.0490
  126MOL    H5547805   6.479   7.088   4.649  1.1147  0.7154  1.6808
  126MOL    H5647806   6.241   7.049   4.566 -1.8668 -0.3112  0.7036
  126MOL    H5747807   6.048   6.875   4.653  0.5683  0.6918  0.9682
  126MOL    H5847808   5.884   6.921   4.614 -0.0853  1.0596  0.0165
  126MOL    C5947809   5.915   6.870   4.812 -0.1653  0.7077 -0.2375
  126MOL    C6047810   5.943   6.717   4.812  0.5547 -0.5345 -0.7014
  126MOL    C6147811   5.849   6.624   4.766 -0.5858  0.0580  0.0700
  126MOL    C6247812   5.882   6.491   4.766  0.0000  0.4654  0.1263
  126MOL    C6347813   5.997   6.448   4.829  0.1002 -0.2542 -0.3572
  126MOL    C6447814   6.038   6.302   4.833 -0.7813 -0.1904  0.0484
  126MOL    C6547815   6.087   6.534   4.888 -0.2436 -0.0419  0.1039
  126MOL    C6647816   6.069   6.671   4.870 -0.1414  0.0823  0.8174
  126MOL    C6747817   5.766   6.896   4.846  0.3328 -0.6365  1.3191
  126MOL    H6847818   5.965   6.933   4.885  0.0169 -0.9637  1.1134
  126MOL    H6947819   5.748   6.647   4.738 -0.4822 -0.8106 -1.0257
  126MOL    H7047820   5.808   6.421   4.732  0.4427 -0.1803  0.4937
  126MOL    H7147821   6.073   6.271   4.932 -0.9717 -1.7276 -0.3538
  126MOL    H7247822   5.961   6.229   4.810 -1.2860  0.2571  0.3071
  126MOL    H7347823   6.130   6.286   4.777 -0.3989 -0.6817  0.8088
  126MOL    H7447824   6.176   6.507   4.944  0.4711  2.5443  0.2808
  126MOL    H7547825   6.140   6.745   4.906  1.2577  0.4930 -2.6525
  126MOL    H7647826   5.706   6.850   4.767  0.8623 -2.4239  1.9239
  126MOL    H7747827   5.751   7.002   4.828 -0.2999 -1.1476 -1.4995
  126MOL    C7847828   5.708   6.841   4.980 -1.4146 -0.4786 -0.1243
  126MOL    C7947829   5.584   6.753   4.961 -0.3839  0.2221 -0.5928
  126MOL    C8047830   5.572   6.620   5.019  0.5433 -0.6908  0.3032
  126MOL    C8147831   5.454   6.544   4.989 -0.0907 -0.3538  0.1679
  126MOL    C8247832   5.341   6.606   4.927  0.1696 -0.4086  0.4848
  126MOL    C8347833   5.217   6.532   4.894  0.0024 -0.3012 -0.2416
  126MOL    C8447834   5.348   6.745   4.889  0.0409  0.8381 -0.6384
  126MOL    C8547835   5.470   6.813   4.896 -0.0714 -0.2163  0.2972
  126MOL    C8647836   5.665   6.951   5.073 -0.0391  0.2556  0.0791
  126MOL    H8747837   5.790   6.781   5.020  1.6690  2.1439 -2.2529
  126MOL    H8847838   5.652   6.564   5.066  1.1389 -0.6230 -0.6070
  126MOL    H8947839   5.447   6.440   5.019  3.4145 -1.1186 -1.3798
  126MOL    H9047840   5.227   6.437   4.842 -1.6038 -0.9036  0.5012
  126MOL    H9147841   5.168   6.515   4.990  0.1038 -0.3590 -0.1990
  126MOL    H9247842   5.150   6.593   4.834 -0.5709 -1.4484 -0.7865
  126MOL    H9347843   5.261   6.784   4.838 -0.9923 -1.6385 -0.8551
  126MOL    H9447844   5.464   6.917   4.868 -2.4169 -0.8094 -1.5561
  126MOL    H9547845   5.597   6.917   5.151 -1.8405  1.6607 -0.8481
  126MOL    H9647846   5.604   7.021   5.017  0.1348  0.0771 -0.3372
  126MOL    C9747847   5.768   7.029   5.150 -0.1910 -0.2116  0.5261
  126MOL    C9847848   5.877   6.940   5.202  0.4663  0.0091 -0.3293
  126MOL    C9947849   6.012   6.956   5.158 -0.0291 -0.0001 -0.9784
  126MOL   C10047850   6.115   6.882   5.223  0.1675 -0.2674  0.2187
  126MOL   C10147851   6.073   6.782   5.317  0.0873  0.4472 -0.6675
  126MOL   C10247852   6.185   6.701   5.372 -0.4778  0.2898  0.1031
  126MOL   C10347853   5.939   6.767   5.363  0.2802  0.5317  0.1493
  126MOL   C10447854   5.840   6.841   5.296  0.3569 -0.3569 -0.5098
  126MOL   C10547855   5.710   7.128   5.254  0.1020  1.7325  0.3832
  126MOL   H10647856   5.812   7.097   5.077 -2.8278  3.5017  2.2344
  126MOL   H10747857   6.050   7.022   5.082 -0.1425  0.3651 -0.7194
  126MOL   H10847858   6.210   6.908   5.178 -0.8853  0.8338 -1.4093
  126MOL   H10947859   6.139   6.636   5.446 -0.7291 -0.9023 -1.0920
  126MOL   H11047860   6.227   6.629   5.303  2.0543 -0.3906  2.2504
  126MOL   H11147861   6.264   6.754   5.425 -1.2214  2.7610 -1.1565
  126MOL   H11247862   5.910   6.683   5.426 -0.0874 -0.2637 -1.0715
  126MOL   H11347863   5.737   6.827   5.325  0.4489  1.2801  0.6589
  126MOL   H11447864   5.665   7.070   5.335  1.1256  1.9263  1.0949
  126MOL   H11547865   5.630   7.190   5.213 -0.1875  0.1230 -1.5576
  126MOL   C11647866   5.824   7.212   5.313  0.1512 -0.2798  0.4701
  126MOL   C11747867   5.777   7.280   5.443  0.2478 -0.8704 -0.0929
  126MOL   C11847868   5.669   7.368   5.428  0.0317  0.2813 -0.5295
  126MOL   C11947869   5.615   7.432   5.537  0.5838  0.0499  0.2328
  126MOL   C12047870   5.675   7.414   5.668  0.3029  0.1730 -0.2001
  126MOL   C12147871   5.626   7.486   5.786 -0.4434 -0.7152 -0.6874
  126MOL   C12247872   5.793   7.328   5.679 -0.2049 -0.2997  0.1399
  126MOL   C12347873   5.845   7.262   5.565  0.5666 -0.6468 -0.4828
  126MOL   C12447874   5.880   7.321   5.218 -0.3760 -0.0209 -0.5165
  126MOL   H12547875   5.896   7.139   5.351 -0.2589 -1.2823 -0.6131
  126MOL   H12647876   5.630   7.387   5.330 -3.1669 -0.6197  0.5259
  126MOL   H12747877   5.539   7.504   5.510  0.6096 -0.0614 -0.1392
  126MOL   H12847878   5.653   7.591   5.786 -1.4242 -0.4221  1.8208
  126MOL   H12947879   5.518   7.488   5.797 -0.3681  2.3053 -0.1867
  126MOL   H13047880   5.649   7.445   5.884 -0.7106 -0.7270 -0.6296
  126MOL   H13147881   5.846   7.322   5.773  1.0454 -2.0908 -0.6224
  126MOL   H13247882   5.938   7.208   5.579  1.4242  0.7022 -0.9171
  126MOL   H13347883   5.787   7.376   5.208  0.3622  1.5214  0.7697
  126MOL   H13447884   5.917   7.289   5.120  0.9635  1.0223 -0.3804
  126MOL   C13547885   5.984   7.418   5.278  0.3809  0.5065 -0.6823
  126MOL   C13647886   5.981   7.551   5.208 -0.4062 -0.1965  0.8271
  126MOL   C13747887   5.898   7.656   5.258 -0.0645 -0.0995  0.2915
  126MOL   C13847888   5.881   7.777   5.189 -0.4726 -0.0996 -0.3750
  126MOL   C13947889   5.949   7.799   5.068  0.1846  0.2841 -1.2321
  126MOL   C14047890   5.943   7.928   4.990 -0.4947  0.0885  0.1317
  126MOL   C14147891   6.035   7.697   5.024 -0.1527  0.1488  0.3144
  126MOL   C14247892   6.052   7.570   5.084  0.2258 -0.1153 -0.2464
  126MOL   C14347893   6.120   7.341   5.270  0.0541 -0.5971  0.2137
  126MOL   H14447894   5.971   7.437   5.385 -0.4653 -1.9450 -0.3099
  126MOL   H14547895   5.835   7.636   5.344  1.1815  2.4309  1.8523
  126MOL   H14647896   5.809   7.848   5.227 -0.6093 -0.8419  0.8003
  126MOL   H14747897   6.010   7.928   4.904 -0.4061  1.1220  0.1977
  126MOL   H14847898   5.837   7.945   4.970 -0.3576 -1.0891 -1.6826
  126MOL   H14947899   5.971   8.001   5.066 -0.3220 -0.8304  0.9736
  126MOL   H15047900   6.095   7.725   4.939 -2.7085 -0.3753 -1.7340
  126MOL   H15147901   6.123   7.500   5.044  0.6518  0.1924 -0.0258
  126MOL   H15247902   6.155   7.310   5.172 -0.7984 -1.4910  0.1789
  126MOL   H15347903   6.111   7.243   5.318 -0.3001 -0.7643 -0.1927
  126MOL   C15447904   6.235   7.415   5.343  0.4991  0.4093 -0.2253
  126MOL   C15547905   6.368   7.407   5.260 -0.6326  0.3415 -0.3131
  126MOL   C15647906   6.409   7.510   5.172 -0.2924 -0.1016 -0.9637
  126MOL   C15747907   6.537   7.507   5.117  0.2511  0.1355 -0.4596
  126MOL   C15847908   6.627   7.399   5.138 -1.2250  0.7514 -0.0047
  126MOL   C15947909   6.773   7.406   5.079  0.1317 -0.5058  0.0557
  126MOL   C16047910   6.576   7.289   5.214 -0.5498  0.0117 -0.1615
  126MOL   C16147911   6.453   7.293   5.278 -0.0803 -0.2300  0.2970
  126MOL   C16247912   6.253   7.378   5.493 -0.0492  0.6516  0.7508
  126MOL   H16347913   6.196   7.516   5.356  1.3828  0.5345  1.5440
  126MOL   H16447914   6.349   7.598   5.153 -1.3656 -0.4995  0.4978
  126MOL   H16547915   6.560   7.591   5.053 -1.3006 -0.0680 -1.3127
  126MOL   H16647916   6.816   7.505   5.091 -1.4364  0.1450  0.5039
  126MOL   H16747917   6.839   7.340   5.136 -1.1226 -0.6168  1.4196
  126MOL   H16847918   6.779   7.371   4.976  1.5960 -1.4546  0.4497
  126MOL   H16947919   6.651   7.213   5.234 -0.8409  0.3265  2.1786
  126MOL   H17047920   6.425   7.211   5.343  0.5887 -0.6718  0.0406
  126MOL   H17147921   6.357   7.353   5.515  1.0582  2.6261 -1.9346
  126MOL   H17247922   6.185   7.297   5.517 -0.1485 -0.1228 -2.0065
  126MOL   C17347923   6.211   7.482   5.601 -0.2521 -0.0561  1.0127
  126MOL   C17447924   6.282   7.615   5.575  0.0416 -0.5312  0.4327
  126MOL   C17547925   6.426   7.621   5.567  0.4295  0.2443 -0.4549
  126MOL   C17647926   6.491   7.745   5.557  0.0576 -1.0080 -0.2865
  126MOL   C17747927   6.416   7.866   5.550 -0.1537  0.1844 -0.3247
  126MOL   C17847928   6.481   7.999   5.536 -0.3729 -0.0267  0.0802
  126MOL   C17947929   6.277   7.864   5.559 -0.2508  0.2285 -0.6523
  126MOL   C18047930   6.214   7.740   5.576  0.2539 -0.0205  0.1651
  126MOL   C18147931   6.237   7.421   5.738 -0.0477  0.5137  0.6996
  126MOL   H18247932   6.106   7.504   5.584 -0.5532 -0.3119  2.4266
  126MOL   H18347933   6.485   7.532   5.582 -0.8192 -0.6501 -0.8371
  126MOL   H18447934   6.599   7.741   5.555  0.1186  0.3168 -0.0764
  126MOL   H18547935   6.521   7.993   5.434 -1.7378 -1.5642 -0.3860
  126MOL   H18647936   6.415   0.006   5.538 -0.3792  0.0565 -1.9081
  126MOL   H18747937   6.563   8.010   5.607  0.9807  1.6232 -1.6766
  126MOL   H18847938   6.211   7.949   5.553 -2.0463 -1.0171  0.9553
  126MOL   H18947939   6.108   7.751   5.592  0.2144  2.3234 -1.4850
  126MOL   H19047940   6.336   7.374   5.738 -0.9235 -1.3934 -0.3728
  126MOL   H19147941   6.174   7.332   5.743  1.3252 -0.4328  1.6257
  126MOL   C19247942   6.234   7.513   5.859  0.0964 -0.2326 -0.3013
  126MOL   C19347943   6.277   7.435   5.980 -0.1392 -0.7311  0.2088
  126MOL   C19447944   6.206   7.327   6.031  0.4060  0.1463 -0.1951
  126MOL   C19547945   6.246   7.275   6.152 -0.7147  0.1553  0.0902
  126MOL   C19647946   6.355   7.323   6.229 -0.2865 -0.5315 -0.6069
  126MOL   C19747947   6.387   7.274   6.368 -0.3442  0.4766  0.1740
  126MOL   C19847948   6.439   7.425   6.165 -0.2590 -0.0095 -0.5774
  126MOL   C19947949   6.398   7.484   6.045 -0.2364 -0.6014  0.3918
  126MOL   C20047950   6.102   7.578   5.882 -0.1419  0.0324  0.3493
  126MOL   H20147951   6.305   7.595   5.856 -0.1266  0.0300  1.2931
  126MOL   H20247952   6.115   7.302   5.979  0.0317  2.4856 -0.7490
  126MOL   H20347953   6.187   7.204   6.209 -2.1830  1.8492  0.7047
  126MOL   H20447954   6.319   7.193   6.395 -1.4201 -0.0909 -3.9667
  126MOL   H20547955   6.487   7.232   6.359 -2.5046 -4.6985 -1.8721
  126MOL   H20647956   6.378   7.351   6.445 -1.9173 -0.5064  1.0153
  126MOL   H20747957   6.526   7.466   6.214 -0.9143 -0.8074  1.3322
  126MOL   H20847958   6.460   7.565   6.009  0.6928 -1.3228  0.3354
  126MOL   H20947959   6.025   7.501   5.889  2.5062 -2.6851  0.6136
  126MOL   H21047960   6.069   7.628   5.791 -1.5349 -0.4560  0.5633
  126MOL   C21147961   6.088   7.655   6.013  0.1702 -0.9474 -0.2490
  126MOL   C21247962   5.940   7.694   6.028  0.0206  0.5600  0.2022
  126MOL   C21347963   5.851   7.601   6.098  0.0788 -0.2835 -0.3601
  126MOL   C21447964   5.715   7.646   6.120 -0.0076  0.0288 -0.8365
  126MOL   C21547965   5.668   7.763   6.060 -0.4197  0.1560  0.2591
  126MOL   C21647966   5.529   7.800   6.069 -0.2390  0.2906 -0.5416
  126MOL   C21747967   5.760   7.852   5.995 -0.0544  0.0709 -0.5086
  126MOL   C21847968   5.894   7.813   5.979  0.3119 -0.3473 -0.3704
  126MOL   C21947969   6.185   7.767   6.039  0.6813 -0.0376 -0.1181
  126MOL   H22047970   6.097   7.592   6.101 -1.7884 -0.3854  0.3791
  126MOL   H22147971   5.888   7.513   6.148  1.1350  0.6137  0.4727
  126MOL   H22247972   5.649   7.585   6.181 -0.1544  2.3059  1.3485
  126MOL   H22347973   5.495   7.756   6.163 -0.9429  0.7199 -0.5964
  126MOL   H22447974   5.526   7.909   6.068  1.9801  0.4893  3.4508
  126MOL   H22547975   5.486   7.762   5.976 -1.8896  1.1921 -0.1638
  126MOL   H22647976   5.736   7.937   5.935  1.1232  0.5534 -0.3061
  126MOL   H22747977   5.951   7.878   5.915  2.5409  0.5394  2.3827
  126MOL   H22847978   6.160   7.845   5.966  1.4461  0.1896 -0.1432
  126MOL   H22947979   6.292   7.757   6.021  0.6369  0.3481 -0.6211
  126MOL   C23047980   6.185   7.823   6.186  0.3582  0.1535  0.2733
  126MOL   C23147981   6.269   7.944   6.205  0.1628 -0.2543 -0.3479
  126MOL   C23247982   6.222   8.064   6.270  0.8906 -0.0177 -0.4255
  126MOL   C23347983   6.309   0.093   6.294  0.0002 -0.2196  0.1916
  126MOL   C23447984   6.447   0.088   6.247 -0.2308 -0.1062 -0.2210
  126MOL   C23547985   6.546   0.204   6.274  0.0354  0.4641  0.2949
  126MOL   C23647986   6.489   8.048   6.180  0.3198  0.0448  0.0263
  126MOL   C23747987   6.403   7.934   6.166 -0.4904 -0.6596 -0.9951
  126MOL   C23847988   6.237   7.719   6.293 -0.1406  0.1250  0.3365
  126MOL   H23947989   6.085   7.849   6.220  0.5281  0.2627  0.6955
  126MOL   H24047990   6.124   8.063   6.314  1.3476 -2.9234  0.6579
  126MOL   H24147991   6.288   0.184   6.349 -0.7123  0.2661 -0.8803
  126MOL   H24247992   6.639   0.196   6.218 -2.1173 -0.8437 -3.2817
  126MOL   H24347993   6.496   0.300   6.264  1.6319  1.1075 -1.8027
  126MOL   H24447994   6.577   0.211   6.378  3.5748  1.0104 -0.7346
  126MOL   H24547995   6.595   8.037   6.162  0.6222  1.8259  0.5927
  126MOL   H24647996   6.454   7.850   6.123  2.9892  1.2561 -0.8148
  126MOL   H24747997   6.338   7.682   6.275  0.0922  1.1967 -0.6084
  126MOL   H24847998   6.169   7.635   6.279  1.2777 -0.9252 -0.4074
  126MOL   C24947999   6.221   7.750   6.438  0.2733  0.0911  0.3737
  126MOL   C25048000   6.352   7.752   6.512 -0.1535  0.1930  0.4013
  126MOL   C25148001   6.448   7.650   6.504  0.1716  0.0455  0.2783
  126MOL   C25248002   6.578   7.657   6.569  0.2942 -0.2150  0.5123
  126MOL   C25348003   6.618   7.784   6.616 -0.4196  0.9569  0.0507
  126MOL   C25448004   6.754   7.811   6.679  0.5349  0.1622 -0.1446
  126MOL   C25548005   6.528   7.894   6.616 -0.7326  0.5085 -0.4188
  126MOL   C25648006   6.395   7.874   6.567  0.2056 -0.1319 -0.3359
  126MOL   C25748007   6.128   7.640   6.504 -0.3125  0.3440 -0.6178
  126MOL   H25848008   6.173   7.848   6.448 -1.4495 -0.7445  0.5710
  126MOL   H25948009   6.416   7.555   6.462 -2.2160  1.2114 -0.6513
  126MOL   H26048010   6.648   7.575   6.564  0.1725 -0.3977  1.6620
  126MOL   H26148011   6.821   7.735   6.639 -0.8902 -0.9275 -0.4650
  126MOL   H26248012   6.787   7.913   6.655 -2.0488  0.7751 -1.2884
  126MOL   H26348013   6.753   7.799   6.787 -2.0842 -1.3737 -0.2908
  126MOL   H26448014   6.558   7.992   6.650 -0.7630  0.5667 -0.5614
  126MOL   H26548015   6.321   7.952   6.562 -1.1791 -1.4986 -2.2221
  126MOL   H26648016   6.146   7.659   6.610  0.7864  1.3962 -0.9824
  126MOL   H26748017   6.151   7.536   6.483 -2.5890 -0.0458 -1.3325
  126MOL   C26848018   5.971   7.667   6.481  0.3944  0.8432  0.0928
  126MOL   C26948019   5.930   7.816   6.490 -0.3650  0.3042 -0.4066
  126MOL   C27048020   5.938   7.887   6.614  0.2882 -0.1150  0.1198
  126MOL   C27148021   5.881   8.018   6.619 -0.3702  0.0085 -0.5767
  126MOL   C27248022   5.826   0.001   6.507  0.0834 -0.2767 -0.4422
  126MOL   C27348023   5.768   0.144   6.517 -0.8388 -0.0996  0.3097
  126MOL   C27448024   5.830   8.012   6.382  0.1617  0.1411 -0.0814
  126MOL   C27548025   5.886   7.883   6.372 -0.0050  0.1950  0.2587
  126MOL   C27648026   5.888   7.578   6.574 -0.1547 -0.2484 -0.5109
  126MOL   H27748027   5.951   7.634   6.379 -3.4802  2.4065  0.2615
  126MOL   H27848028   5.979   7.838   6.701  2.2712  3.8087  1.5240
  126MOL   H27948029   5.866   8.072   6.711 -3.0490 -0.2729 -0.8186
  126MOL   H28048030   5.829   0.218   6.466 -0.8850  0.4143  0.9936
  126MOL   H28148031   5.679   0.157   6.455 -0.8314  0.6129  0.4390
  126MOL   H28248032   5.742   0.162   6.622  2.4334 -1.2051  1.3459
  126MOL   H28348033   5.797   8.072   6.298 -1.8892 -0.9268 -0.0552
  126MOL   H28448034   5.893   7.823   6.283 -0.3939 -0.0914  0.4183
  126MOL   H28548035   5.786   7.605   6.547  0.1864  1.3069 -0.3223
  126MOL   H28648036   5.901   7.615   6.676  0.5231  0.3087 -0.7924
  126MOL   C28748037   5.916   7.431   6.568 -0.3359 -0.2748 -0.2213
  126MOL   C28848038   5.865   7.363   6.440  0.1055 -0.9735 -0.0479
  126MOL   C28948039   5.726   7.380   6.403 -0.4597 -0.7693 -0.6871
  126MOL   C29048040   5.687   7.319   6.285  0.3005 -0.1638  0.3328
  126MOL   C29148041   5.773   7.239   6.207  0.4303  0.2522 -0.4230
  126MOL   C29248042   5.725   7.181   6.073 -0.2795 -0.0370  0.3793
  126MOL   C29348043   5.905   7.218   6.251  0.3136  0.1624  0.0066
  126MOL   C29448044   5.955   7.290   6.361 -0.1119  0.8634  0.7318
  126MOL   C29548045   5.841   7.379   6.689 -0.3804 -0.4271 -0.2193
  126MOL   H29648046   6.019   7.397   6.576 -0.4887 -0.2582  2.1096
  126MOL   H29748047   5.660   7.430   6.473 -0.6664 -1.4217 -0.4096
  126MOL   H29848048   5.587   7.330   6.247 -0.6314 -2.4660  2.0325
  126MOL   H29948049   5.798   7.204   5.996 -0.2354 -0.2767  0.3519
  126MOL   H30048050   5.710   7.074   6.070  1.0321 -0.2020 -1.2696
  126MOL   H30148051   5.636   7.235   6.040  0.3773  0.6452 -0.2879
  126MOL   H30248052   5.978   7.158   6.199  1.9643  0.8199  1.4823
  126MOL   H30348053   6.058   7.273   6.388 -0.0046 -0.4858 -0.4731
  126MOL   H30448054   5.797   7.282   6.667 -0.6758 -0.3169 -0.1213
  126MOL   H30548055   5.757   7.447   6.701  0.0961  0.6513 -2.7186
  126MOL   C30648056   5.934   7.371   6.809  0.1416  0.2775 -0.5005
  126MOL   C30748057   6.047   7.266   6.796 -0.4486 -0.1954 -0.3414
  126MOL   C30848058   6.159   7.291   6.871 -0.8292  0.0515 -0.0814
  126MOL   C30948059   6.270   7.212   6.864  0.4609 -0.2166 -0.1078
  126MOL   C31048060   6.281   7.109   6.766  0.7369 -0.5488 -0.5781
  126MOL   C31148061   6.408   7.033   6.734 -0.1499  0.2100 -1.0608
  126MOL   C31248062   6.162   7.078   6.690  0.1015 -0.6556  0.4383
  126MOL   C31348063   6.047   7.160   6.703  0.1486 -0.0449  0.2308
  126MOL   C31448064   5.859   7.356   6.945 -0.1608 -0.7567  0.6820
  126MOL   H31548065   5.982   7.468   6.811  0.5062  0.0919  0.2063
  126MOL   H31648066   6.157   7.368   6.947  0.6334  1.0580 -1.0533
  126MOL   H31748067   6.350   7.237   6.931  0.0002 -1.1205  0.7922
  126MOL   H31848068   6.489   7.091   6.690 -1.2375  0.4430 -2.8211
  126MOL   H31948069   6.441   6.970   6.817 -1.6981 -2.2772 -2.2638
  126MOL   H32048070   6.412   6.973   6.643 -1.3198  0.8449 -1.5344
  126MOL   H32148071   6.163   7.008   6.607 -1.8715 -1.4049  1.0069
  126MOL   H32248072   5.957   7.155   6.643  0.9975  4.3379 -1.6046
  126MOL   H32348073   5.927   7.325   7.025 -0.9908 -0.7436  1.3973
  126MOL   H32448074   5.790   7.272   6.931  1.0160 -1.7022  0.4798
  126MOL   C32548075   5.777   7.471   6.999 -0.1554  0.4448 -0.0202
  126MOL   C32648076   5.854   7.601   6.994 -0.0045  0.4677 -0.4538
  126MOL   C32748077   5.790   7.716   6.940  0.0072  0.1872 -0.6248
  126MOL   C32848078   5.861   7.839   6.940  0.0852 -0.2520  0.0994
  126MOL   C32948079   5.991   7.852   6.988  0.2991  0.6806  0.1659
  126MOL   C33048080   6.069   7.980   6.963 -0.8019 -0.5266 -0.3194
  126MOL   C33148081   6.056   7.737   7.041 -0.2970 -0.3520 -0.0163
  126MOL   C33248082   5.986   7.613   7.043 -0.9835 -0.5007 -0.0362
  126MOL   C33348083   5.724   7.448   7.144  0.1404 -0.8816 -0.1710
  126MOL   H33448084   5.688   7.492   6.939  0.9405  1.5743 -1.2838
  126MOL   H33548085   5.691   7.707   6.900 -0.5108 -1.4562  0.9346
  126MOL   H33648086   5.809   7.923   6.898 -0.3018 -0.3614  0.3545
  126MOL   H33748087   6.026   8.074   6.999  2.4764 -0.0289  2.6485
  126MOL   H33848088   6.175   7.961   6.983 -0.0738  2.9800 -0.5492
  126MOL   H33948089   6.068   7.984   6.855  1.6367 -3.7899 -0.5389
  126MOL   H34048090   6.160   7.735   7.069  0.1333  2.5916 -1.1276
  126MOL   H34148091   6.038   7.530   7.088  1.1990  1.2295  0.7339
  126MOL   H34248092   5.688   7.542   7.187  1.3470 -1.3539  1.9401
  126MOL   H34348093   5.795   7.402   7.212  0.2425 -0.3190  0.1008
  126MOL   C34448094   5.607   7.345   7.153  0.2901 -0.2706 -0.9182
  126MOL   C34548095   5.492   7.380   7.060  0.3949 -0.3255 -0.1664
  126MOL   C34648096   5.466   7.297   6.950 -0.3197  0.3031  0.8537
  126MOL   C34748097   5.355   7.321   6.859  0.3103  0.1059 -0.6702
  126MOL   C34848098   5.279   7.437   6.889  0.2018 -0.4001  0.2742
  126MOL   C34948099   5.157   7.463   6.796 -0.4589 -0.3542 -0.1298
  126MOL   C35048100   5.301   7.522   6.998 -0.2530 -0.1782 -0.0207
  126MOL   C35148101   5.400   7.481   7.087  0.0414  0.1026 -0.7356
  126MOL   C35248102   5.563   7.345   7.307 -0.0054  0.3630 -0.2515
  126MOL   H35348103   5.645   7.245   7.129  1.3593 -0.3821  1.0949
  126MOL   H35448104   5.528   7.210   6.937 -0.5680  0.1429  0.7355
  126MOL   H35548105   5.325   7.263   6.773 -1.6600 -0.6442  0.4752
  126MOL   H35648106   5.141   7.383   6.725 -2.7516 -0.4499  0.4799
  126MOL   H35748107   5.063   7.476   6.850 -0.2027 -1.3967  0.5985
  126MOL   H35848108   5.166   7.558   6.743 -0.6573  0.6318  1.5705
  126MOL   H35948109   5.247   7.614   7.014  2.5729  1.4515  0.3900
  126MOL   H36048110   5.429   7.551   7.164 -1.7089  1.2798 -1.1216
  126MOL   H36148111   5.531   7.448   7.320  2.1452  1.1662 -0.9954
  126MOL   H36248112   5.648   7.335   7.374  0.1025 -0.1837 -0.4710
  126MOL   C36348113   5.458   7.246   7.351 -0.0867 -0.1648  0.2771
  126MOL   C36448114   5.398   7.293   7.487 -0.8268 -0.1026  0.4214
  126MOL   C36548115   5.264   7.345   7.489 -0.8590 -0.5116  0.0722
  126MOL   C36648116   5.208   7.374   7.617  0.1681 -0.2156  0.0282
  126MOL   C36748117   5.280   7.350   7.738 -0.6367  0.2179  0.2548
  126MOL   C36848118   5.206   7.373   7.868  0.4507  0.3637  0.5474
  126MOL   C36948119   5.411   7.298   7.731 -0.4761 -0.5223  0.5650
  126MOL   C37048120   5.466   7.267   7.608 -0.0110  0.5063  0.1738
  126MOL   C37148121   5.509   7.099   7.350 -0.2943  0.1202  0.5244
  126MOL   H37248122   5.380   7.254   7.274 -1.5848 -2.5049  1.4911
  126MOL   H37348123   5.206   7.348   7.398  1.3831  2.0510 -1.3631
  126MOL   H37448124   5.106   7.410   7.613 -0.0360 -0.8248 -0.3912
  126MOL   H37548125   5.252   7.461   7.914 -1.7068  0.1913  3.1448
  126MOL   H37648126   5.102   7.397   7.843  0.9918  0.1361 -2.0920
  126MOL   H37748127   5.216   7.284   7.929  1.9790 -1.3945 -2.1679
  126MOL   H37848128   5.455   7.263   7.823 -3.3900 -0.0850  2.2041
  126MOL   H37948129   5.562   7.219   7.606 -0.5016 -0.4509 -0.4781
  126MOL   H38048130   5.567   7.082   7.259  1.4441  1.8210  1.2596
  126MOL   H38148131   5.426   7.029   7.343 -0.7836  0.8388 -1.1334
  126MOL   H38248132   5.566   7.076   7.440  0.9526 -2.4110 -0.8510
  127MOL     C148133   3.079   3.117   3.141  0.4840 -0.3026  0.0802
  127MOL     C248134   2.990   3.232   3.172 -0.0710  0.1082 -0.4047
  127MOL     C348135   2.851   3.214   3.177  0.3756  0.3309  0.3592
  127MOL     C448136   2.761   3.315   3.209 -0.2148  0.4604 -0.1925
  127MOL     C548137   2.819   3.442   3.239 -0.1349  0.3907  0.0866
  127MOL     C648138   2.734   3.562   3.278 -0.2292 -0.0023 -0.1468
  127MOL     C748139   2.955   3.454   3.255  0.1851 -0.1139 -0.7230
  127MOL     C848140   3.042   3.348   3.238  0.1647 -0.1582 -0.0510
  127MOL     C948141   3.034   2.973   3.194  0.0886 -0.1740  0.1687
  127MOL    H1048142   3.111   3.112   3.037 -1.6021  1.4983 -0.6716
  127MOL    H1148143   2.805   3.117   3.161 -1.8111  1.2459  0.9335
  127MOL    H1248144   2.654   3.308   3.207 -0.1793  0.3475 -2.6173
  127MOL    H1348145   2.692   3.554   3.378  1.1598 -1.1684  0.3625
  127MOL    H1448146   2.786   3.658   3.268 -2.6697  1.5551  1.6007
  127MOL    H1548147   2.646   3.568   3.215 -0.3909 -1.2815 -0.0598
  127MOL    H1648148   3.000   3.545   3.292 -1.8242  0.4287  0.4436
  127MOL    H1748149   3.147   3.370   3.253  0.0935  1.0492 -1.1820
  127MOL    H1848150   3.115   2.902   3.178 -0.1389 -0.7621  1.5972
  127MOL    H1948151   2.962   2.928   3.125 -0.4587 -1.0926  1.3206
  127MOL    H2048152   3.174   3.143   3.188  0.2360  0.6399  0.0650
  127MOL    C2148153   2.982   2.957   3.338  0.2118  0.0796  0.1396
  127MOL    C2248154   3.074   3.019   3.440 -0.0234 -0.0775 -0.4942
  127MOL    C2348155   3.028   3.127   3.516 -0.0253 -0.0213 -0.1445
  127MOL    C2448156   3.119   3.194   3.604 -0.0778 -0.2622  0.2746
  127MOL    C2548157   3.248   3.151   3.613  0.1048  0.1991  0.2329
  127MOL    C2648158   3.354   3.226   3.689  0.1834  0.1977 -0.5402
  127MOL    C2748159   3.295   3.046   3.529 -0.1616  0.6096 -0.3017
  127MOL    C2848160   3.211   2.982   3.433 -0.6653  0.2689  0.4351
  127MOL    C2948161   2.957   2.811   3.381  0.9097  0.5467  0.6657
  127MOL    H3048162   2.890   3.014   3.337  0.6987  0.9655  2.7064
  127MOL    H3148163   2.922   3.151   3.519  0.5331  2.4750  1.0176
  127MOL    H3248164   3.090   3.267   3.678  0.1669 -0.8764  0.9788
  127MOL    H3348165   3.384   3.159   3.770 -1.2560  0.5930  0.3372
  127MOL    H3448166   3.441   3.245   3.626  1.2381 -0.0294  0.8163
  127MOL    H3548167   3.324   3.323   3.729  0.0091 -0.0635 -0.0322
  127MOL    H3648168   3.402   3.032   3.529 -0.1084  0.6546  3.4016
  127MOL    H3748169   3.244   2.892   3.384 -2.3548 -0.8926  1.3537
  127MOL    H3848170   2.898   2.814   3.472 -0.3898 -1.7099 -0.0722
  127MOL    H3948171   3.053   2.763   3.403 -0.0804 -0.9605  1.7676
  127MOL    C4048172   2.882   2.719   3.286  0.7704  0.0921  0.1094
  127MOL    C4148173   2.745   2.771   3.237  0.4383 -0.2510  0.0148
  127MOL    C4248174   2.701   2.739   3.105 -0.6754 -0.6385  0.7658
  127MOL    C4348175   2.572   2.776   3.063 -0.1791  0.3229  0.0337
  127MOL    C4448176   2.479   2.847   3.147  0.6269  0.4708 -0.1449
  127MOL    C4548177   2.339   2.884   3.112  0.5145  0.1375 -0.3673
  127MOL    C4648178   2.528   2.879   3.279  0.1750 -0.4878 -0.3406
  127MOL    C4748179   2.659   2.840   3.322 -0.0915 -0.2669  0.7617
  127MOL    C4848180   2.865   2.581   3.360  0.3571 -0.3654  0.1056
  127MOL    H4948181   2.937   2.704   3.193  0.2071  1.8062 -0.5177
  127MOL    H5048182   2.761   2.677   3.039 -1.5225 -0.2686 -0.3760
  127MOL    H5148183   2.542   2.752   2.962  1.0508  1.5388 -0.6371
  127MOL    H5248184   2.326   2.991   3.099  2.4149  0.6190  1.3978
  127MOL    H5348185   2.302   2.832   3.024 -1.0839  0.5406  0.0551
  127MOL    H5448186   2.277   2.842   3.191  2.0153 -1.9918 -0.2867
  127MOL    H5548187   2.467   2.947   3.337  1.0365  0.5013 -0.5791
  127MOL    H5648188   2.684   2.874   3.422  0.9507  0.1193  0.3714
  127MOL    H5748189   2.807   2.509   3.304  1.1037 -1.0822  0.2429
  127MOL    H5848190   2.804   2.596   3.449 -1.9588 -1.2080 -1.3133
  127MOL    C5948191   2.995   2.504   3.401  1.0688  0.2065 -0.3936
  127MOL    C6048192   3.084   2.466   3.282 -0.0880 -0.9116 -0.0896
  127MOL    C6148193   3.207   2.535   3.266  0.9333 -0.6486 -0.5415
  127MOL    C6248194   3.287   2.512   3.161 -1.1459  0.1056 -0.8384
  127MOL    C6348195   3.244   2.423   3.057 -0.1119  0.0684  0.5209
  127MOL    C6448196   3.333   2.385   2.940 -0.3751 -0.1532 -0.5261
  127MOL    C6548197   3.119   2.359   3.069  0.3092 -0.2048  0.2520
  127MOL    C6648198   3.038   2.379   3.179 -0.4836  0.4194 -0.3990
  127MOL    C6748199   2.949   2.389   3.490 -0.0068  1.3103 -0.1827
  127MOL    H6848200   3.042   2.569   3.475 -1.9592  0.9985  0.9061
  127MOL    H6948201   3.241   2.608   3.338  2.9236 -1.3919 -0.6913
  127MOL    H7048202   3.379   2.565   3.142 -0.1769 -0.5511  1.9121
  127MOL    H7148203   3.381   2.289   2.961 -2.5212 -1.2359 -0.4606
  127MOL    H7248204   3.266   2.374   2.855 -1.5567  0.0181  0.3644
  127MOL    H7348205   3.421   2.447   2.922  0.7838 -1.7996 -0.6985
  127MOL    H7448206   3.099   2.291   2.987 -2.3151  1.3950 -0.4743
  127MOL    H7548207   2.939   2.336   3.186  0.4460 -1.7968 -0.1659
  127MOL    H7648208   3.033   2.319   3.503 -0.9582  0.2544  0.4136
  127MOL    H7748209   2.870   2.341   3.433  1.8152 -4.5324  1.7165
  127MOL    C7848210   2.892   2.428   3.641  0.2062 -0.0271  0.7991
  127MOL    C7948211   2.976   2.532   3.717 -0.2459 -0.5410 -0.6154
  127MOL    C8048212   2.918   2.655   3.768  0.0890  0.0548  0.2498
  127MOL    C8148213   2.996   2.759   3.816  0.0657  0.4504  0.4086
  127MOL    C8248214   3.134   2.743   3.827  0.3785 -0.1259  0.0522
  127MOL    C8348215   3.211   2.868   3.873  0.2280 -0.0599 -0.0394
  127MOL    C8448216   3.191   2.619   3.798 -0.3561  0.2585  0.5885
  127MOL    C8548217   3.117   2.516   3.733  0.2574 -0.2031 -0.1702
  127MOL    C8648218   2.895   2.297   3.728 -0.1346  0.0417  0.5501
  127MOL    H8748219   2.788   2.460   3.634 -0.6082 -2.6127  0.4989
  127MOL    H8848220   2.810   2.651   3.767  0.0835  0.1273  0.5481
  127MOL    H8948221   2.953   2.853   3.847 -0.6211  1.2663 -2.7944
  127MOL    H9048222   3.211   2.881   3.982 -2.3205 -1.0810  0.1076
  127MOL    H9148223   3.313   2.861   3.835 -0.5483 -0.3118 -2.0969
  127MOL    H9248224   3.185   2.964   3.830  1.1307  1.0652  1.8447
  127MOL    H9348225   3.297   2.608   3.812  0.0673  2.0810 -1.0427
  127MOL    H9448226   3.169   2.442   3.674 -1.7787 -0.8414 -1.2293
  127MOL    H9548227   2.889   2.321   3.834  0.6625  2.2543  0.1180
  127MOL    H9648228   2.998   2.262   3.719 -0.1446 -0.7064  3.0296
  127MOL    C9748229   2.792   2.181   3.698 -0.1334 -0.1544 -0.0759
  127MOL    C9848230   2.648   2.221   3.753 -0.2230 -0.0156 -0.0417
  127MOL    C9948231   2.629   2.261   3.888  0.2136 -0.1451 -0.1167
  127MOL   C10048232   2.507   2.314   3.939  0.2290 -0.0473  0.0339
  127MOL   C10148233   2.398   2.323   3.854  0.8332 -0.6148 -0.2302
  127MOL   C10248234   2.264   2.381   3.892 -0.2292  0.5503 -0.1192
  127MOL   C10348235   2.412   2.290   3.716  0.0685  0.1862  0.1354
  127MOL   C10448236   2.535   2.234   3.671  0.0155 -0.2341  0.3973
  127MOL   C10548237   2.851   2.046   3.759  0.2615  0.2950  0.5536
  127MOL   H10648238   2.776   2.165   3.591 -0.4604  0.0546 -0.0576
  127MOL   H10748239   2.709   2.254   3.960 -0.8359 -0.4689  1.0433
  127MOL   H10848240   2.501   2.359   4.037  3.1148 -0.4976  0.4673
  127MOL   H10948241   2.238   2.341   3.990 -0.2867 -1.0881 -0.7910
  127MOL   H11048242   2.288   2.485   3.916  2.2980 -0.1383  0.4511
  127MOL   H11148243   2.181   2.373   3.821 -0.1657 -3.1521  0.1373
  127MOL   H11248244   2.330   2.300   3.647  0.7242  0.1007 -0.6592
  127MOL   H11348245   2.538   2.211   3.566 -0.3578  1.7387 -0.0590
  127MOL   H11448246   2.773   1.974   3.781 -0.1491  0.4856 -0.2559
  127MOL   H11548247   2.904   2.080   3.848  1.1057 -2.2240  1.0539
  127MOL   C11648248   2.946   1.975   3.652  0.6596  0.1563  0.4748
  127MOL   C11748249   2.895   1.962   3.504 -0.5627 -0.3955 -0.8292
  127MOL   C11848250   2.766   1.912   3.480 -0.4954  0.4070 -0.3294
  127MOL   C11948251   2.717   1.901   3.344 -0.6819 -0.2182 -0.0594
  127MOL   C12048252   2.804   1.925   3.237 -0.8348 -0.5466 -0.7437
  127MOL   C12148253   2.754   1.915   3.095 -0.1942  0.0371 -0.2219
  127MOL   C12248254   2.934   1.963   3.271 -0.0156  0.6599  0.8503
  127MOL   C12348255   2.970   2.000   3.397 -0.0859 -0.3649 -0.7419
  127MOL   C12448256   3.017   1.856   3.709 -0.2659  0.2710 -0.0129
  127MOL   H12548257   3.017   2.055   3.633 -0.0059  0.7157  0.3510
  127MOL   H12648258   2.703   1.882   3.563 -1.0468 -3.2117 -1.9201
  127MOL   H12748259   2.622   1.858   3.318 -0.8964  0.3024 -0.1490
  127MOL   H12848260   2.825   1.901   3.014 -0.1289  1.3159 -0.4058
  127MOL   H12948261   2.684   1.831   3.097 -0.4577  0.2580 -0.1198
  127MOL   H13048262   2.692   2.003   3.074  1.0857  0.7879 -0.8600
  127MOL   H13148263   3.004   1.980   3.190 -0.2577 -1.9882  0.0529
  127MOL   H13248264   3.073   2.028   3.414 -0.7823  2.3789 -0.7204
  127MOL   H13348265   3.059   1.789   3.634 -1.1714 -2.1745  1.5948
  127MOL   H13448266   2.936   1.805   3.761  1.7791 -2.1814  0.8530
  127MOL   C13548267   3.133   1.900   3.803  0.6773  0.6973 -0.0961
  127MOL   C13648268   3.246   1.981   3.738  0.3441  0.1782  0.0344
  127MOL   C13748269   3.288   2.104   3.793  0.7927  0.0945 -0.1365
  127MOL   C13848270   3.395   2.171   3.730 -0.9022  0.8571 -0.4522
  127MOL   C13948271   3.465   2.117   3.626 -0.7550 -0.4615  0.1107
  127MOL   C14048272   3.583   2.193   3.555  0.7629  0.5699 -0.0136
  127MOL   C14148273   3.429   1.991   3.577  0.8824 -0.0390 -0.0258
  127MOL   C14248274   3.319   1.923   3.634 -0.0370 -0.6700  0.2846
  127MOL   C14348275   3.178   1.787   3.899  0.0742  0.4917 -0.6146
  127MOL   H14448276   3.097   1.973   3.875  0.6171 -1.2192  1.8736
  127MOL   H14548277   3.226   2.149   3.868  0.0147 -1.2375  0.0235
  127MOL   H14648278   3.416   2.269   3.770 -0.9040  0.8648 -0.4702
  127MOL   H14748279   3.674   2.197   3.614 -0.4513  1.7166  1.8158
  127MOL   H14848280   3.615   2.134   3.469 -0.4798 -0.0699 -0.0464
  127MOL   H14948281   3.563   2.294   3.520 -2.7171 -0.7093 -2.0046
  127MOL   H15048282   3.480   1.931   3.503 -0.2315  0.6513 -1.3651
  127MOL   H15148283   3.296   1.824   3.597  0.9045 -0.3272 -1.2474
  127MOL   H15248284   3.274   1.813   3.943  0.8921 -4.4612  0.8901
  127MOL   H15348285   3.202   1.699   3.839 -0.2897  1.9241 -2.9134
  127MOL   C15448286   3.084   1.761   4.019 -0.6184  0.4579  0.2747
  127MOL   C15548287   3.047   1.888   4.099  0.2738  0.2591  0.0501
  127MOL   C15648288   3.149   1.943   4.181 -0.6344  0.2467 -0.0638
  127MOL   C15748289   3.124   2.057   4.262  0.3350  0.5717 -0.4655
  127MOL   C15848290   2.998   2.122   4.248 -0.2659 -0.5443  0.5049
  127MOL   C15948291   2.975   2.236   4.346  0.3073 -0.1387  0.7531
  127MOL   C16048292   2.903   2.072   4.163  0.0422 -0.1108  0.3234
  127MOL   C16148293   2.923   1.952   4.089  0.8941 -0.4065 -0.5068
  127MOL   C16248294   3.124   1.634   4.094  0.1808  0.4826  0.4594
  127MOL   H16348295   2.986   1.741   3.975  0.8702 -0.1792 -2.9347
  127MOL   H16448296   3.246   1.898   4.197  0.6956  2.2654 -2.0338
  127MOL   H16548297   3.202   2.092   4.327  0.2094 -1.1828  0.6600
  127MOL   H16648298   2.988   2.333   4.297 -1.4124 -0.1996  0.1371
  127MOL   H16748299   2.876   2.228   4.390 -0.8914 -0.2482 -1.8640
  127MOL   H16848300   3.060   2.232   4.414  0.7601 -0.0837  0.1964
  127MOL   H16948301   2.800   2.103   4.175 -0.1195 -1.2724  2.2295
  127MOL   H17048302   2.841   1.920   4.025  1.5298 -0.1072 -1.4820
  127MOL   H17148303   3.049   1.608   4.169  0.1208 -3.2691 -0.8115
  127MOL   H17248304   3.209   1.664   4.156  2.1541 -0.4840 -1.6876
  127MOL   C17348305   3.150   1.504   4.015  0.5231 -0.1740  0.1989
  127MOL   C17448306   3.042   1.451   3.922  0.4429  1.1988  0.8649
  127MOL   C17548307   3.056   1.463   3.780  0.1340 -0.3683  0.4237
  127MOL   C17648308   2.954   1.423   3.692 -0.1047 -0.4873  0.5770
  127MOL   C17748309   2.829   1.380   3.746 -0.0579 -0.3835  0.3390
  127MOL   C17848310   2.717   1.345   3.651  0.2490  0.6316 -0.0795
  127MOL   C17948311   2.816   1.370   3.888  0.3094 -0.0558  0.1184
  127MOL   C18048312   2.922   1.399   3.974  0.4152  0.0735  0.1627
  127MOL   C18148313   3.187   1.392   4.108 -0.1894 -0.3980 -0.1934
  127MOL   H18248314   3.243   1.526   3.964  1.3687 -0.3981  1.6452
  127MOL   H18348315   3.151   1.498   3.743  0.1796 -2.3525 -1.4430
  127MOL   H18448316   2.967   1.424   3.584 -3.5197 -1.0960  0.1239
  127MOL   H18548317   2.628   1.316   3.706  0.2168  1.2555  0.2064
  127MOL   H18648318   2.702   1.432   3.586 -1.6673 -0.2541 -0.8691
  127MOL   H18748319   2.745   1.265   3.583  1.7495  0.8591  0.2561
  127MOL   H18848320   2.727   1.336   3.938 -0.6028  0.9647 -0.7634
  127MOL   H18948321   2.907   1.395   4.081  0.2412  1.9524  0.2314
  127MOL   H19048322   3.112   1.364   4.182  0.8437 -0.9765  0.6431
  127MOL   H19148323   3.274   1.430   4.162 -2.1916  0.3483  2.6507
  127MOL   C19248324   3.232   1.265   4.032  0.1768 -0.4829 -0.7799
  127MOL   C19348325   3.262   1.143   4.123  0.6744  0.0545  0.3569
  127MOL   C19448326   3.314   1.158   4.251 -0.3477  0.2033  0.0624
  127MOL   C19548327   3.339   1.046   4.328 -0.6842 -0.0858 -0.0110
  127MOL   C19648328   3.322   0.917   4.269  0.9345 -0.2627 -0.4545
  127MOL   C19748329   3.355   0.794   4.356 -0.6613 -1.5591  0.7726
  127MOL   C19848330   3.276   0.902   4.138  0.1758  0.5757 -0.0515
  127MOL   C19948331   3.249   1.015   4.060  0.8801 -0.7423 -0.2882
  127MOL   C20048332   3.337   1.283   3.925  0.2718  0.4177  0.3033
  127MOL   H20148333   3.140   1.233   3.983 -0.7415 -0.2207  0.7149
  127MOL   H20248334   3.319   1.255   4.299  1.3718  1.0180 -1.6831
  127MOL   H20348335   3.364   1.059   4.432 -0.8151 -2.0325  0.2854
  127MOL   H20448336   3.418   0.719   4.308  1.0489  0.2075  0.1467
  127MOL   H20548337   3.405   0.815   4.450  2.3075  0.2681 -1.1125
  127MOL   H20648338   3.259   0.747   4.378 -0.4331 -1.7049  1.4456
  127MOL   H20748339   3.262   0.806   4.091  1.5138 -1.2286  3.0355
  127MOL   H20848340   3.212   1.016   3.959  0.0468  0.7168  0.0306
  127MOL   H20948341   3.294   1.338   3.842  0.7978  1.2135  0.5607
  127MOL   H21048342   3.341   1.183   3.881  2.4579  0.8592 -0.5599
  127MOL   C21148343   3.481   1.328   3.961  0.4591  0.0748 -0.2251
  127MOL   C21248344   3.502   1.481   3.958 -0.0602  0.4242  0.0256
  127MOL   C21348345   3.477   1.549   3.839  0.0802 -0.5080  0.0699
  127MOL   C21448346   3.505   1.687   3.829 -0.1834 -0.2041 -0.1962
  127MOL   C21548347   3.561   1.757   3.939  0.3561  0.9466 -0.2949
  127MOL   C21648348   3.589   1.908   3.935  0.1512 -0.9058 -0.0009
  127MOL   C21748349   3.584   1.684   4.054  0.0594  0.2350  0.1209
  127MOL   C21848350   3.557   1.546   4.067  0.0659 -0.7185  0.6447
  127MOL   C21948351   3.584   1.251   3.870 -0.4753  0.9502 -0.0639
  127MOL   H22048352   3.488   1.297   4.066 -1.6187  0.7009  0.1399
  127MOL   H22148353   3.447   1.496   3.750  0.6944  1.7359 -1.5017
  127MOL   H22248354   3.485   1.735   3.735 -3.2158 -0.5747  0.2111
  127MOL   H22348355   3.516   1.979   3.974  0.6988  1.1011 -2.5283
  127MOL   H22448356   3.666   1.937   4.006  1.1375  0.6622 -1.6728
  127MOL   H22548357   3.624   1.937   3.836  0.3457 -1.3278 -0.0550
  127MOL   H22648358   3.631   1.746   4.129 -0.4061  0.6278  0.0930
  127MOL   H22748359   3.583   1.491   4.156  0.2716 -0.9050  0.4705
  127MOL   H22848360   3.678   1.307   3.872 -0.9372  1.7016  1.5654
  127MOL   H22948361   3.545   1.264   3.770 -2.5026 -3.4457  0.0296
  127MOL   C23048362   3.604   1.096   3.903  0.2197  0.0259  0.1381
  127MOL   C23148363   3.668   1.074   4.040 -1.4031  0.1611  0.6160
  127MOL   C23248364   3.627   0.962   4.121 -0.3474 -0.1764  0.5945
  127MOL   C23348365   3.670   0.946   4.256  0.3277 -0.3654  0.9325
  127MOL   C23448366   3.767   1.036   4.306 -0.5961 -0.1381  0.4096
  127MOL   C23548367   3.819   1.028   4.451  0.1350 -0.1827 -0.6436
  127MOL   C23648368   3.812   1.142   4.218  0.2224  0.3246 -0.7827
  127MOL   C23748369   3.759   1.165   4.092 -0.5038  0.1109  0.5752
  127MOL   C23848370   3.674   1.019   3.783  0.3451 -0.1275  0.1899
  127MOL   H23948371   3.504   1.055   3.909  0.2442  0.0726  0.8088
  127MOL   H24048372   3.559   0.892   4.075 -1.0835  1.2862 -0.5990
  127MOL   H24148373   3.620   0.867   4.311  3.5451 -1.6371  2.1840
  127MOL   H24248374   3.890   0.948   4.469  0.4026  0.1981 -0.0075
  127MOL   H24348375   3.861   1.125   4.479  2.0465 -1.2512  0.2485
  127MOL   H24448376   3.735   1.016   4.519  0.4701 -0.5031 -0.2881
  127MOL   H24548377   3.883   1.208   4.265  1.7918 -2.2441  0.5426
  127MOL   H24648378   3.796   1.253   4.042  1.1079 -1.1926 -0.5875
  127MOL   H24748379   3.665   0.913   3.809 -0.5072 -0.5995 -1.9282
  127MOL   H24848380   3.775   1.059   3.775 -0.4170  1.3852 -2.4353
  127MOL   C24948381   3.623   1.042   3.641  0.1724  0.6824  0.2381
  127MOL   C25048382   3.471   1.022   3.637  0.3861  0.0992 -0.0404
  127MOL   C25148383   3.384   1.127   3.610 -0.4439  0.2245  0.0589
  127MOL   C25248384   3.248   1.125   3.641 -0.3378 -0.1224  0.3516
  127MOL   C25348385   3.186   1.007   3.684  0.0373  0.4307  0.1328
  127MOL   C25448386   3.037   1.004   3.722  0.6598 -0.0684  0.5353
  127MOL   C25548387   3.269   0.897   3.710  0.3284 -0.1183 -0.0120
  127MOL   C25648388   3.410   0.905   3.695 -0.4971 -0.0528  0.9512
  127MOL   C25748389   3.691   0.950   3.532 -0.3446  0.1814 -0.4200
  127MOL   H25848390   3.643   1.146   3.613 -2.0266  1.2828  0.7723
  127MOL   H25948391   3.425   1.222   3.578  1.4652 -0.0055  1.7065
  127MOL   H26048392   3.206   1.221   3.615 -0.5682 -0.2103  0.3971
  127MOL   H26148393   2.991   1.099   3.749 -1.2505 -1.1196  1.0296
  127MOL   H26248394   2.979   0.969   3.637  0.9617  1.7742 -0.4526
  127MOL   H26348395   3.017   0.932   3.802  0.2158 -0.4278  0.1006
  127MOL   H26448396   3.228   0.808   3.755 -1.1227 -0.2322 -1.5155
  127MOL   H26548397   3.464   0.819   3.732  0.3442  0.3417  0.6347
  127MOL   H26648398   3.653   0.848   3.541  2.7465 -1.0162 -0.3495
  127MOL   H26748399   3.797   0.950   3.556 -1.1609  0.3312  3.4754
  127MOL   C26848400   3.675   0.995   3.386 -0.2053  0.3711 -0.4448
  127MOL   C26948401   3.673   0.868   3.302  0.2638 -0.1655  0.7087
  127MOL   C27048402   3.792   0.787   3.301  0.3740 -0.1896 -0.2475
  127MOL   C27148403   3.799   0.674   3.225 -0.0669 -0.3465  0.7065
  127MOL   C27248404   3.687   0.634   3.151 -0.2779 -1.0485 -0.1630
  127MOL   C27348405   3.704   0.517   3.057 -0.6402 -0.3782 -0.9100
  127MOL   C27448406   3.571   0.718   3.146  0.1786  0.6781 -0.1844
  127MOL   C27548407   3.562   0.830   3.226  0.7745 -1.0413 -0.7936
  127MOL   C27648408   3.792   1.081   3.322 -0.1554  0.6015  0.3742
  127MOL   H27748409   3.580   1.047   3.373  0.4740  1.4122 -1.3995
  127MOL   H27848410   3.876   0.806   3.367 -1.5349 -1.0198  2.4992
  127MOL   H27948411   3.885   0.610   3.224  0.6014  0.5548 -0.8231
  127MOL   H28048412   3.642   0.531   2.968 -0.8083 -1.8316 -1.0463
  127MOL   H28148413   3.807   0.511   3.023  0.1001  0.3858  1.1544
  127MOL   H28248414   3.672   0.420   3.095 -1.3991  0.5951  1.0025
  127MOL   H28348415   3.497   0.690   3.073 -1.4752  1.3904  1.1679
  127MOL   H28448416   3.476   0.895   3.225  0.8425 -0.9414 -0.2473
  127MOL   H28548417   3.776   1.078   3.214  0.1756 -0.2064  0.3407
  127MOL   H28648418   3.887   1.029   3.338  0.2312  0.2926 -2.6957
  127MOL   C28748419   3.815   1.225   3.384 -0.1227  0.8411  0.3206
  127MOL   C28848420   3.698   1.323   3.349 -0.4436  0.3981  0.1305
  127MOL   C28948421   3.645   1.408   3.447  0.8032 -0.0650 -0.3999
  127MOL   C29048422   3.532   1.493   3.419  0.2517 -0.3005  0.2879
  127MOL   C29148423   3.477   1.493   3.288  0.1747 -0.4556  0.8045
  127MOL   C29248424   3.373   1.596   3.252 -0.0912  0.6091  0.2189
  127MOL   C29348425   3.532   1.408   3.190 -0.1452 -0.0113 -0.0026
  127MOL   C29448426   3.639   1.326   3.221  0.0759  0.6077  0.3822
  127MOL   C29548427   3.950   1.297   3.348 -0.1367  0.5916  0.5408
  127MOL   H29648428   3.819   1.213   3.493  0.9587 -1.3970  0.0531
  127MOL   H29748429   3.693   1.423   3.543 -1.8388 -0.1365  0.9634
  127MOL   H29848430   3.495   1.558   3.497 -1.4747  0.6702 -1.2994
  127MOL   H29948431   3.280   1.553   3.214  0.3545  2.6745 -3.5271
  127MOL   H30048432   3.349   1.655   3.340  0.8470 -1.1973  1.6913
  127MOL   H30148433   3.418   1.656   3.173 -1.3336  0.3438 -0.7122
  127MOL   H30248434   3.493   1.391   3.091 -0.8136 -1.4458  0.4960
  127MOL   H30348435   3.679   1.258   3.148  1.4403  1.0221  0.7145
  127MOL   H30448436   4.024   1.241   3.404 -1.1705 -3.1303 -1.6413
  127MOL   H30548437   3.958   1.393   3.400  1.1104  1.7875 -1.7902
  127MOL   C30648438   3.993   1.304   3.195  0.6891  0.3000  0.3871
  127MOL   C30748439   4.063   1.178   3.143 -0.6351  0.0638 -0.0983
  127MOL   C30848440   4.176   1.131   3.207 -0.0039  0.6147  0.0905
  127MOL   C30948441   4.254   1.022   3.156 -0.4119  0.6714  0.1635
  127MOL   C31048442   4.208   0.958   3.039 -0.2441 -0.9527  0.3588
  127MOL   C31148443   4.283   0.834   2.987  0.9118 -0.3749  0.6232
  127MOL   C31248444   4.090   1.001   2.974 -0.0805  0.3759  0.5301
  127MOL   C31348445   4.016   1.110   3.031 -0.2304 -0.4286  0.1599
  127MOL   C31448446   4.078   1.430   3.169 -0.0240 -0.5086  0.0568
  127MOL   H31548447   3.903   1.323   3.137  1.0614 -0.7496 -0.5457
  127MOL   H31648448   4.219   1.189   3.287  0.0814  0.3260  0.2564
  127MOL   H31748449   4.344   0.986   3.204 -1.0100 -2.4933 -0.9534
  127MOL   H31848450   4.387   0.861   2.971  0.7190 -1.0152 -1.8745
  127MOL   H31948451   4.262   0.744   3.044 -2.0784  0.6148  1.2264
  127MOL   H32048452   4.246   0.815   2.886  1.4921 -0.8385  0.5021
  127MOL   H32148453   4.061   0.951   2.883  0.3469  0.8026  0.1585
  127MOL   H32248454   3.931   1.148   2.976  0.4004  0.4321 -0.2431
  127MOL   H32348455   4.149   1.406   3.091  0.2397  1.1439 -0.2122
  127MOL   H32448456   4.148   1.451   3.250 -0.5744 -0.1635  0.4549
  127MOL   C32548457   4.009   1.558   3.125 -0.4244 -0.1624 -0.3867
  127MOL   C32648458   3.947   1.544   2.986 -0.1474 -0.1490 -0.6172
  127MOL   C32748459   4.018   1.498   2.871 -0.4509  0.5068  0.0846
  127MOL   C32848460   3.961   1.504   2.746 -0.0540  0.3213 -0.1246
  127MOL   C32948461   3.828   1.553   2.740  0.1007 -0.5515  0.6619
  127MOL   C33048462   3.774   1.570   2.599 -0.0701  0.1799 -0.3964
  127MOL   C33148463   3.749   1.582   2.851 -0.4733  0.5143 -0.3485
  127MOL   C33248464   3.809   1.577   2.977  0.2822  0.1933  0.2526
  127MOL   C33348465   4.118   1.677   3.120 -0.0763 -0.3120 -0.4782
  127MOL   H33448466   3.938   1.579   3.205  0.3132  4.5850 -0.8029
  127MOL   H33548467   4.122   1.472   2.873 -0.3777  0.8456  1.4347
  127MOL   H33648468   4.016   1.482   2.656 -2.2773  0.0434 -1.4319
  127MOL   H33748469   3.846   1.618   2.533 -1.0022  0.6303 -1.0912
  127MOL   H33848470   3.742   1.471   2.566  0.5007 -0.2707  0.3737
  127MOL   H33948471   3.686   1.633   2.602 -1.2704 -1.4453 -0.8499
  127MOL   H34048472   3.645   1.606   2.835  0.3014  2.5247 -2.7708
  127MOL   H34148473   3.757   1.612   3.064  2.6821  1.5913  1.1817
  127MOL   H34248474   4.074   1.762   3.068  2.0763  1.1452 -0.0320
  127MOL   H34348475   4.201   1.638   3.061  0.5397  1.5727 -0.9035
  127MOL   C34448476   4.180   1.727   3.257 -0.0966 -0.4073  0.4594
  127MOL   C34548477   4.069   1.747   3.361 -0.4779  0.0242  0.1938
  127MOL   C34648478   4.053   1.646   3.454 -0.5021  0.3400  0.1960
  127MOL   C34748479   3.952   1.657   3.549  0.4998 -0.1470  0.1983
  127MOL   C34848480   3.861   1.762   3.542 -0.2652 -0.2968 -0.3241
  127MOL   C34948481   3.745   1.754   3.639  0.0557 -0.3468 -0.1955
  127MOL   C35048482   3.879   1.868   3.450 -0.0757  0.7558 -0.1140
  127MOL   C35148483   3.979   1.860   3.351 -0.4793 -0.1816  0.4077
  127MOL   C35248484   4.282   1.839   3.241 -0.8726  0.0782 -0.4860
  127MOL   H35348485   4.239   1.645   3.297  0.9310  0.0229 -0.1634
  127MOL   H35448486   4.126   1.566   3.451 -0.1447  0.7126 -3.8231
  127MOL   H35548487   3.939   1.568   3.609  1.0422 -0.6820 -0.4648
  127MOL   H35648488   3.667   1.829   3.627  1.1160  0.3924 -2.8537
  127MOL   H35748489   3.691   1.660   3.639 -0.6874  0.0573  2.9183
  127MOL   H35848490   3.776   1.765   3.743  0.5462 -1.3201 -0.2396
  127MOL   H35948491   3.798   1.939   3.448 -0.0535  0.7944  0.3808
  127MOL   H36048492   3.995   1.927   3.269  2.6287 -0.7164  0.5385
  127MOL   H36148493   4.232   1.927   3.200  0.8047  1.7233  0.8805
  127MOL   H36248494   4.353   1.807   3.164 -0.3812  0.3578 -0.1476
  127MOL   C36348495   4.345   1.887   3.376  0.1518 -0.1125 -0.0367
  127MOL   C36448496   4.428   2.013   3.348 -0.7890 -0.3484  0.1614
  127MOL   C36548497   4.539   2.016   3.252  0.2906  0.8629 -0.5361
  127MOL   C36648498   4.611   2.139   3.244  0.0123 -0.7519  0.1408
  127MOL   C36748499   4.577   2.249   3.322  0.3068  0.2521  0.9784
  127MOL   C36848500   4.666   2.373   3.297  0.5149 -0.3848 -0.3662
  127MOL   C36948501   4.462   2.248   3.404 -1.2234  0.0741  0.8389
  127MOL   C37048502   4.388   2.127   3.419  0.6098  0.5141 -0.0359
  127MOL   C37148503   4.432   1.774   3.431  0.3148 -0.4634  0.1868
  127MOL   H37248504   4.264   1.905   3.447  1.2490  0.0835  1.1762
  127MOL   H37348505   4.589   1.931   3.208 -1.5880 -0.2244 -0.5964
  127MOL   H37448506   4.693   2.134   3.174 -0.1991 -1.0027 -0.0877
  127MOL   H37548507   4.649   2.442   3.380 -1.4686 -0.5206 -0.6375
  127MOL   H37648508   4.771   2.346   3.286 -0.0123 -3.1460  0.9933
  127MOL   H37748509   4.644   2.412   3.198  0.1498  0.8774  0.1938
  127MOL   H37848510   4.427   2.334   3.459  0.7499  2.2635 -1.2027
  127MOL   H37948511   4.309   2.123   3.493  1.2224 -2.2635  0.5291
  127MOL   H38048512   4.367   1.692   3.461 -2.0995  1.4115  0.3593
  127MOL   H38148513   4.469   1.810   3.527  2.0990  1.8793 -1.3090
  127MOL   H38248514   4.515   1.744   3.368 -1.8663  0.0775 -3.0818
  128MOL     C148515   0.320   6.996   4.815  0.2697  0.4040 -0.5024
  128MOL     C248516   0.464   7.040   4.833 -0.1122  0.4054 -0.6175
  128MOL     C348517   0.573   6.961   4.800 -0.1335  0.4123 -0.6593
  128MOL     C448518   0.709   7.005   4.804 -0.1223 -0.3787 -0.2594
  128MOL     C548519   0.734   7.136   4.852  0.3117 -0.4694  0.1886
  128MOL     C648520   0.878   7.182   4.850 -0.4569 -0.0792  0.1055
  128MOL     C748521   0.623   7.216   4.891  0.6363  0.2598 -0.4658
  128MOL     C848522   0.493   7.170   4.893 -0.1139  0.6870  0.6174
  128MOL     C948523   0.286   6.981   4.667  0.6654 -0.5034  0.2198
  128MOL    H1048524   0.306   6.896   4.855 -2.6337  1.4120  1.1181
  128MOL    H1148525   0.557   6.861   4.765  1.4607  0.4894 -1.6451
  128MOL    H1248526   0.787   6.936   4.776  1.4594  1.3370 -0.1963
  128MOL    H1348527   0.866   7.270   4.786  1.9170 -0.1644 -0.4775
  128MOL    H1448528   0.932   7.197   4.943  1.5079  0.7858 -1.1338
  128MOL    H1548529   0.935   7.109   4.793 -2.3938 -0.5762 -1.2613
  128MOL    H1648530   0.640   7.319   4.922  1.0242  0.2965 -0.7916
  128MOL    H1748531   0.411   7.229   4.927 -0.1788  0.6513  0.5229
  128MOL    H1848532   0.367   6.924   4.623  1.2372  2.1606 -2.3440
  128MOL    H1948533   0.280   7.081   4.623 -3.4450 -0.5316  0.4886
  128MOL    H2048534   0.257   7.050   4.886 -0.5364 -0.7419 -0.3246
  128MOL    C2148535   0.149   6.914   4.629 -0.1432  0.2664 -0.2518
  128MOL    C2248536   0.133   6.874   4.481 -0.7393 -0.1544  0.1231
  128MOL    C2348537   0.218   6.776   4.419 -0.1618 -0.1558  0.8548
  128MOL    C2448538   0.203   6.737   4.286  0.4538  0.3599 -0.3431
  128MOL    C2548539   0.105   6.799   4.208 -0.1227 -0.2229  0.1934
  128MOL    C2648540   0.105   6.765   4.060 -0.1297 -0.2428  0.5655
  128MOL    C2748541   0.016   6.891   4.261  0.2846  0.1975 -0.7691
  128MOL    C2848542   0.030   6.926   4.395  0.4296 -0.2246  0.0191
  128MOL    C2948543   0.041   7.012   4.683  0.0306  0.3660  0.3602
  128MOL    H3048544   0.151   6.826   4.693 -1.9924  1.4295  1.4795
  128MOL    H3148545   0.302   6.731   4.470  2.3102  2.1596 -0.9874
  128MOL    H3248546   0.263   6.658   4.243  1.5086  1.8100 -1.6231
  128MOL    H3348547   0.119   6.862   4.012  0.5255 -0.6069  0.0201
  128MOL    H3448548   0.169   6.684   4.027  0.0444  0.5362 -1.0526
  128MOL    H3548549   0.002   6.742   4.032 -0.3916  0.3228  1.0444
  128MOL    H3648550   8.019   6.942   4.207  0.2943  0.5248 -0.4714
  128MOL    H3748551   8.045   7.004   4.432  0.4708  0.3377 -1.0980
  128MOL    H3848552   0.046   7.098   4.616  2.5851  3.0187  3.7692
  128MOL    H3948553   0.070   7.067   4.772  2.8246  0.2505 -0.4135
  128MOL    C4048554   7.984   6.945   4.707 -0.0329  0.8615 -0.6723
  128MOL    C4148555   7.868   7.044   4.727  0.3601  0.0267 -0.6972
  128MOL    C4248556   7.877   7.145   4.819  0.2560  0.0796 -0.2625
  128MOL    C4348557   7.755   7.221   4.847 -0.5820  0.1464 -0.7362
  128MOL    C4448558   7.638   7.196   4.776 -0.1687 -0.7456  0.4531
  128MOL    C4548559   7.515   7.274   4.823 -0.1441 -0.3525 -0.2639
  128MOL    C4648560   7.630   7.105   4.675  0.1516 -1.0298  0.0300
  128MOL    C4748561   7.750   7.023   4.652 -0.1914  0.1324 -0.2087
  128MOL    C4848562   7.996   6.846   4.818  0.5247  0.6313 -1.2761
  128MOL    H4948563   7.956   6.888   4.618  0.6441  1.4957 -1.2914
  128MOL    H5048564   7.963   7.160   4.883 -0.4022  1.0122  0.4226
  128MOL    H5148565   7.764   7.291   4.929  2.5669 -0.9956 -0.0572
  128MOL    H5248566   7.417   7.271   4.777 -0.0501 -0.4711 -0.4597
  128MOL    H5348567   7.496   7.256   4.929  2.2367 -2.3384 -0.1203
  128MOL    H5448568   7.542   7.379   4.813  2.5776 -1.1088 -1.3784
  128MOL    H5548569   7.541   7.084   4.619 -0.9926 -0.4537  1.5775
  128MOL    H5648570   7.736   6.943   4.582  0.2226  0.6389 -0.8750
  128MOL    H5748571   8.062   6.889   4.894 -0.2340  0.3357 -0.4442
  128MOL    H5848572   8.053   6.760   4.784  2.3971  1.2325  0.2769
  128MOL    C5948573   7.872   6.792   4.884 -0.2340 -0.4446  0.2496
  128MOL    C6048574   7.895   6.759   5.038  0.1598  0.2676  0.0717
  128MOL    C6148575   7.995   6.665   5.085 -0.1448 -0.2264  0.3832
  128MOL    C6248576   8.022   6.652   5.219 -0.0849 -0.4425  0.3192
  128MOL    C6348577   7.966   6.738   5.314 -0.0408  0.5518  0.0055
  128MOL    C6448578   8.008   6.726   5.463  0.2194  0.1787 -0.4257
  128MOL    C6548579   7.865   6.825   5.273  0.5246  0.0783 -1.0845
  128MOL    C6648580   7.839   6.843   5.134  0.4918 -0.1358  0.4839
  128MOL    C6748581   7.809   6.673   4.798  0.2178  0.2175  0.3394
  128MOL    H6848582   7.792   6.866   4.882  0.9162  0.8245  0.3441
  128MOL    H6948583   8.046   6.596   5.019  2.4980  1.6747  0.3785
  128MOL    H7048584   0.007   6.574   5.256 -0.6449  0.3942  3.2447
  128MOL    H7148585   0.029   6.686   5.471 -0.5696 -2.3232 -2.1164
  128MOL    H7248586   7.996   6.819   5.518  1.3410  0.1472 -0.1138
  128MOL    H7348587   7.950   6.640   5.499  3.5196 -1.6441  0.8028
  128MOL    H7448588   7.818   6.898   5.337  0.8953  0.3334 -1.0968
  128MOL    H7548589   7.762   6.914   5.111 -1.4139 -2.2918  0.0328
  128MOL    H7648590   7.875   6.585   4.798  0.8692  0.7038 -0.7534
  128MOL    H7748591   7.811   6.716   4.698 -2.0147  1.3422  0.7511
  128MOL    C7848592   7.670   6.635   4.852 -0.4272  0.6109  0.1102
  128MOL    C7948593   7.635   6.488   4.818 -0.0580 -0.0248  0.6655
  128MOL    C8048594   7.585   6.405   4.919 -0.3132  0.0686 -0.7789
  128MOL    C8148595   7.565   6.265   4.894 -0.5639 -0.1199 -0.6558
  128MOL    C8248596   7.596   6.210   4.770  0.2560  0.0723  0.9343
  128MOL    C8348597   7.578   6.059   4.744  0.4810  0.9276  0.4985
  128MOL    C8448598   7.654   6.294   4.672 -0.1586  0.7984  0.6222
  128MOL    C8548599   7.674   6.434   4.696 -0.3176 -0.5997  0.5390
  128MOL    C8648600   7.549   6.728   4.800 -0.3881 -0.3449 -0.1059
  128MOL    H8748601   7.685   6.636   4.960  1.9296 -0.2763 -0.1931
  128MOL    H8848602   7.566   6.447   5.016  1.3425  1.7784 -1.1564
  128MOL    H8948603   7.543   6.202   4.979 -0.6772  0.7949  0.0000
  128MOL    H9048604   7.653   6.013   4.679  1.0406 -0.5030  2.1375
  128MOL    H9148605   7.574   6.005   4.838  0.3049  0.7347  0.3813
  128MOL    H9248606   7.484   6.031   4.696  1.1063  0.7950 -0.6742
  128MOL    H9348607   7.670   6.264   4.570  4.0738 -0.4548  1.5789
  128MOL    H9448608   7.723   6.499   4.624  0.9549  0.1516  2.0515
  128MOL    H9548609   7.526   6.709   4.696  0.5177 -0.7722 -0.2359
  128MOL    H9648610   7.579   6.833   4.803 -2.7404  0.3188  1.3893
  128MOL    C9748611   7.424   6.733   4.889 -1.0256 -0.0525  0.3152
  128MOL    C9848612   7.304   6.794   4.812  0.3370 -0.3105  0.2085
  128MOL    C9948613   7.323   6.903   4.726  0.0346  0.1685 -0.0144
  128MOL   C10048614   7.223   6.970   4.655 -0.5030 -0.3334 -0.3005
  128MOL   C10148615   7.090   6.920   4.678 -0.0592 -0.1882  0.1791
  128MOL   C10248616   6.969   6.990   4.618 -0.5455  0.7060  0.1265
  128MOL   C10348617   7.064   6.808   4.759 -1.0245 -1.1043  0.1888
  128MOL   C10448618   7.169   6.735   4.820  0.4620 -0.3633 -0.0065
  128MOL   C10548619   7.453   6.806   5.027  0.8321 -0.0935  0.6465
  128MOL   H10648620   7.390   6.631   4.908  0.5793 -0.6054  0.2662
  128MOL   H10748621   7.423   6.944   4.723 -0.5834  1.8146  0.9022
  128MOL   H10848622   7.241   7.057   4.594 -3.2972  0.0933 -0.5492
  128MOL   H10948623   6.972   6.977   4.509  1.8896 -0.2241  0.2755
  128MOL   H11048624   6.871   6.954   4.647 -1.7382  2.6986 -1.3086
  128MOL   H11148625   6.973   7.097   4.637 -0.9045  1.2177 -2.4736
  128MOL   H11248626   6.964   6.772   4.780 -1.0521 -0.2770  1.5261
  128MOL   H11348627   7.155   6.642   4.873 -2.5535  0.1248  0.1303
  128MOL   H11448628   7.435   6.911   5.002 -0.2639 -0.1875  1.0371
  128MOL   H11548629   7.562   6.812   5.038  1.1001 -1.2428 -1.1227
  128MOL   C11648630   7.392   6.743   5.156  0.3406  0.6710 -0.8704
  128MOL   C11748631   7.241   6.781   5.170 -0.3303 -0.2541  0.4558
  128MOL   C11848632   7.194   6.911   5.169  0.0493  0.2322  0.9821
  128MOL   C11948633   7.061   6.946   5.159  0.4942  0.4180 -0.5211
  128MOL   C12048634   6.960   6.844   5.161  0.2093  0.5416  0.6107
  128MOL   C12148635   6.812   6.871   5.142 -0.3126  0.1494 -0.0995
  128MOL   C12248636   7.008   6.712   5.182  0.0603 -0.2516 -0.9860
  128MOL   C12348637   7.141   6.677   5.184 -0.5363  0.0713  0.5881
  128MOL   C12448638   7.479   6.772   5.283 -0.4845 -0.6296 -0.4558
  128MOL   H12548639   7.392   6.634   5.151  2.2055  0.6104 -0.0459
  128MOL   H12648640   7.259   6.997   5.160 -2.2772  2.0340  0.7152
  128MOL   H12748641   7.036   7.051   5.165 -1.0805  0.1517 -1.9968
  128MOL   H12848642   6.741   6.789   5.136 -0.5792  0.4902 -1.9769
  128MOL   H12948643   6.778   6.945   5.215  0.0345 -1.2130  1.4583
  128MOL   H13048644   6.798   6.918   5.045  0.1716  1.0158  0.2375
  128MOL   H13148645   6.933   6.635   5.193 -1.1409  1.0182 -0.2382
  128MOL   H13248646   7.183   6.579   5.199  0.1777  0.0956 -1.1189
  128MOL   H13348647   7.449   6.875   5.304 -1.1768 -0.7353 -0.8945
  128MOL   H13448648   7.586   6.780   5.265  0.0841 -1.8420  2.1376
  128MOL   C13548649   7.462   6.684   5.410  0.4205 -0.4264  0.1099
  128MOL   C13648650   7.469   6.762   5.543  0.4008  0.8933  0.1030
  128MOL   C13748651   7.376   6.753   5.649  0.0118  0.2952 -0.9393
  128MOL   C13848652   7.399   6.819   5.770  0.2740  0.1413 -0.0814
  128MOL   C13948653   7.510   6.905   5.783 -1.2972 -0.4964 -0.5414
  128MOL   C14048654   7.538   6.989   5.905 -0.7335  0.2119  0.0019
  128MOL   C14148655   7.604   6.919   5.681 -0.8457  0.0437 -0.1681
  128MOL   C14248656   7.585   6.838   5.572  1.1670  0.0956  0.3342
  128MOL   C14348657   7.569   6.571   5.421 -0.6907  0.3486 -0.5320
  128MOL   H14448658   7.363   6.638   5.411 -0.1019  0.6992  0.5485
  128MOL   H14548659   7.292   6.684   5.646  0.2081  0.0064 -0.0813
  128MOL   H14648660   7.340   6.812   5.861  2.5488 -0.3068  1.4050
  128MOL   H14748661   7.476   7.078   5.908 -0.4841  0.3219  2.8614
  128MOL   H14848662   7.512   6.957   6.006 -0.8326 -0.7975 -0.3347
  128MOL   H14948663   7.646   7.001   5.903 -0.0652 -4.6237 -0.4926
  128MOL   H15048664   7.691   6.983   5.688 -0.8918  0.0319  0.5787
  128MOL   H15148665   7.655   6.841   5.490  0.0378  0.7117 -0.6276
  128MOL   H15248666   7.555   6.530   5.521  0.5475  1.4337  0.1116
  128MOL   H15348667   7.669   6.613   5.413 -1.1068  1.4377 -0.1748
  128MOL   C15448668   7.570   6.445   5.331  0.1556  0.5751 -0.4243
  128MOL   C15548669   7.425   6.393   5.321  0.4689 -0.2932  0.2808
  128MOL   C15648670   7.351   6.378   5.202 -0.0804  0.2071 -0.2242
  128MOL   C15748671   7.218   6.333   5.202 -0.1278 -0.3287  0.0160
  128MOL   C15848672   7.158   6.302   5.327 -0.2409 -0.0473  0.5229
  128MOL   C15948673   7.012   6.284   5.329  0.1872  0.4040  0.3317
  128MOL   C16048674   7.233   6.312   5.448 -0.1439 -0.0342 -0.5706
  128MOL   C16148675   7.368   6.347   5.445  0.4958 -0.2829 -0.1590
  128MOL   C16248676   7.668   6.334   5.376  0.3646 -0.1204  0.1697
  128MOL   H16348677   7.590   6.469   5.227 -1.2709 -1.5636 -1.2346
  128MOL   H16448678   7.386   6.410   5.104  1.1894 -1.4070 -0.3225
  128MOL   H16548679   7.162   6.331   5.111  0.6950 -1.3653 -0.4847
  128MOL   H16648680   6.960   6.377   5.308 -1.6562 -0.6261  0.2054
  128MOL   H16748681   6.978   6.223   5.245 -0.5157 -1.2139  1.7631
  128MOL   H16848682   6.978   6.241   5.423 -2.1553  0.8170 -0.3007
  128MOL   H16948683   7.194   6.300   5.548 -0.4149 -0.6985 -0.7564
  128MOL   H17048684   7.415   6.374   5.538 -1.2467 -3.0015  1.5636
  128MOL   H17148685   7.635   6.291   5.471  0.3947  1.5945  0.9721
  128MOL   H17248686   7.760   6.376   5.416 -0.4478  1.0658  0.8177
  128MOL   C17348687   7.721   6.223   5.288  0.0846  0.1391  0.1736
  128MOL   C17448688   7.769   6.096   5.369  0.4575  0.4437 -0.5051
  128MOL   C17548689   7.876   6.095   5.466 -0.2260 -0.2510  0.0350
  128MOL   C17648690   7.925   5.974   5.526 -0.9225 -0.9027 -0.0298
  128MOL   C17748691   7.871   5.853   5.482  0.3277  0.0385  0.0661
  128MOL   C17848692   7.940   5.732   5.525  0.1600  0.7219  0.7216
  128MOL   C17948693   7.768   5.855   5.387  0.4402  0.2369 -0.3862
  128MOL   C18048694   7.721   5.972   5.329  0.4370 -0.6610 -0.0431
  128MOL   C18148695   7.830   6.277   5.197  0.0779 -0.2604  0.5433
  128MOL   H18248696   7.641   6.201   5.218  1.0287 -0.6622 -0.6756
  128MOL   H18348697   7.921   6.186   5.503  2.1786 -1.5925  0.5420
  128MOL   H18448698   8.014   5.982   5.587  0.4793 -1.2593 -1.9512
  128MOL   H18548699   7.907   5.648   5.465  3.3429 -1.4534  1.8707
  128MOL   H18648700   8.047   5.751   5.513  0.2553 -1.1474 -1.8262
  128MOL   H18748701   7.910   5.696   5.623 -2.0026 -0.5047 -0.3780
  128MOL   H18848702   7.731   5.757   5.362  0.0494  0.5148 -0.8941
  128MOL   H18948703   7.652   5.959   5.246  1.2853  0.3632 -0.9178
  128MOL   H19048704   7.898   6.333   5.261 -0.4704  1.1288 -0.0526
  128MOL   H19148705   7.801   6.353   5.123  0.8716  1.2668  1.7702
  128MOL   C19248706   7.905   6.174   5.109 -0.2434 -0.1311  0.5345
  128MOL   C19348707   8.044   6.144   5.167  0.0309  0.0458  0.7931
  128MOL   C19448708   0.056   6.247   5.188 -0.0278 -0.0293  0.3476
  128MOL   C19548709   0.185   6.223   5.247 -0.2250  0.1553 -0.3746
  128MOL   C19648710   0.220   6.096   5.293  1.2375 -0.3353 -0.0913
  128MOL   C19748711   0.342   6.085   5.382  0.4544 -0.0085  0.8792
  128MOL   C19848712   0.135   5.986   5.263  0.7882 -0.2619  0.1457
  128MOL   C19948713   0.009   6.008   5.195 -0.0659 -0.7509 -0.4124
  128MOL   C20048714   7.931   6.216   4.961 -0.5699 -0.0736  0.3220
  128MOL   H20148715   7.841   6.086   5.110 -1.6316  0.8574 -0.9366
  128MOL   H20248716   0.025   6.348   5.163  0.7619 -0.3593 -2.0536
  128MOL   H20348717   0.255   6.304   5.266 -0.5185 -0.1943  2.4167
  128MOL   H20448718   0.413   6.011   5.345 -0.1973 -0.5541  0.7166
  128MOL   H20548719   0.394   6.182   5.383 -0.5864  0.5785 -0.6540
  128MOL   H20648720   0.314   6.049   5.482  0.7340 -0.2325  0.8772
  128MOL   H20748721   0.158   5.884   5.291 -0.6479 -0.6666 -0.0882
  128MOL   H20848722   8.026   5.921   5.199  1.4843 -1.8904 -0.1959
  128MOL   H20948723   7.975   6.315   4.963  0.0850 -0.3652  0.4385
  128MOL   H21048724   7.832   6.230   4.917 -1.1691 -2.1902  0.9031
  128MOL   C21148725   8.020   6.130   4.864  0.5117 -0.2962  0.2895
  128MOL   C21248726   8.056   6.210   4.738 -0.2636 -0.1773 -0.6048
  128MOL   C21348727   0.097   6.289   4.739  0.4039 -0.3635 -0.7726
  128MOL   C21448728   0.130   6.375   4.632 -0.2302 -0.3936 -0.3237
  128MOL   C21548729   0.047   6.380   4.516 -0.3492 -0.0853  0.2628
  128MOL   C21648730   0.087   6.458   4.397  0.2920  0.2482 -0.8255
  128MOL   C21748731   8.006   6.306   4.518  0.5032 -0.9595 -0.2959
  128MOL   C21848732   7.969   6.226   4.628 -0.3038 -0.1761  0.0876
  128MOL   C21948733   7.955   5.997   4.832 -0.4876  0.1577 -0.3669
  128MOL   H22048734   0.029   6.102   4.920  0.7027 -0.5454 -0.1356
  128MOL   H22148735   0.170   6.298   4.818 -0.3945 -1.9172  0.1711
  128MOL   H22248736   0.227   6.423   4.628 -1.2016  1.6606  0.1831
  128MOL   H22348737   0.072   6.394   4.310  2.0309  0.7168 -1.4992
  128MOL   H22448738   0.026   6.548   4.392  3.1056  2.1722 -2.1859
  128MOL   H22548739   0.188   6.497   4.388  0.0765  1.1463  0.6302
  128MOL   H22648740   7.941   6.297   4.432 -0.9137 -2.2785  0.8823
  128MOL   H22748741   7.877   6.171   4.636 -1.3779  1.7771  1.5762
  128MOL   H22848742   7.861   6.018   4.782 -1.5953 -1.1636  1.0870
  128MOL   H22948743   7.936   5.937   4.922  2.5611 -1.3350 -0.6329
  128MOL   C23048744   8.048   5.919   4.738  0.9678 -0.4165 -0.6181
  128MOL   C23148745   7.971   5.815   4.658 -0.0537  0.4776  0.2672
  128MOL   C23248746   7.848   5.754   4.696 -0.2308  0.2476  0.0803
  128MOL   C23348747   7.780   5.664   4.611  0.3723  0.1697 -0.6516
  128MOL   C23448748   7.826   5.637   4.480 -0.0643 -0.0654 -0.6496
  128MOL   C23548749   7.753   5.541   4.396 -0.1866 -0.1078  0.0607
  128MOL   C23648750   7.951   5.696   4.446  0.3162 -0.3334 -0.2340
  128MOL   C23748751   8.022   5.779   4.531 -0.4000  0.3890  0.4906
  128MOL   C23848752   0.075   5.853   4.827 -0.6068 -0.1117  0.0813
  128MOL   H23948753   0.008   5.990   4.666  0.6872  0.8339  0.4469
  128MOL   H24048754   7.817   5.779   4.796 -1.1760  1.0095 -0.3987
  128MOL   H24148755   7.687   5.618   4.641 -0.2348  1.8035 -0.0096
  128MOL   H24248756   7.685   5.595   4.331 -1.6471 -1.5647  0.3477
  128MOL   H24348757   7.819   5.480   4.334 -0.2761 -0.1497  0.0082
  128MOL   H24448758   7.684   5.484   4.458  0.7276 -0.9588  0.3062
  128MOL   H24548759   7.997   5.692   4.348  0.7504 -0.7945 -0.0064
  128MOL   H24648760   0.035   5.819   4.495  0.4542 -2.0962 -0.1818
  128MOL   H24748761   0.075   5.744   4.835  0.7804 -0.4909 -3.7571
  128MOL   H24848762   0.066   5.867   4.934  2.9931  3.0454  0.0837
  128MOL   C24948763   0.214   5.910   4.789 -0.4696 -0.3325  0.3393
  128MOL   C25048764   0.282   5.849   4.664  1.5724  0.8001  0.6606
  128MOL   C25148765   0.310   5.923   4.544  0.7622  0.0620 -0.7099
  128MOL   C25248766   0.356   5.855   4.429 -0.4557  0.2838 -0.3885
  128MOL   C25348767   0.387   5.716   4.428 -1.0000  0.0836 -1.3070
  128MOL   C25448768   0.441   5.635   4.311  0.5188  0.5366 -0.8646
  128MOL   C25548769   0.360   5.651   4.551 -0.1993 -0.2757  0.1750
  128MOL   C25648770   0.317   5.715   4.665 -0.0002  0.4493 -0.7839
  128MOL   C25748771   0.318   5.908   4.903  0.2161  0.2643  0.1173
  128MOL   H25848772   0.206   6.018   4.775 -2.8556 -0.2549  1.9203
  128MOL   H25948773   0.290   6.029   4.538  2.4679  0.6763  3.0698
  128MOL   H26048774   0.374   5.913   4.340 -0.5586  0.3531 -0.3636
  128MOL   H26148775   0.477   5.541   4.353  0.9149  1.3591  0.6588
  128MOL   H26248776   0.364   5.625   4.234 -0.2653 -1.7254  0.1659
  128MOL   H26348777   0.509   5.707   4.267 -0.8852  2.7115  0.4538
  128MOL   H26448778   0.370   5.543   4.552  0.7697 -0.1875  0.7183
  128MOL   H26548779   0.312   5.655   4.755  0.5139 -1.6722 -2.1188
  128MOL   H26648780   0.359   5.808   4.916 -1.2605 -0.5140 -1.0902
  128MOL   H26748781   0.272   5.934   4.998  2.8116  1.9635  0.9735
  128MOL   C26848782   0.434   6.005   4.891 -0.1340 -0.4789  0.5333
  128MOL   C26948783   0.562   5.952   4.955 -0.1405  0.2883  0.3946
  128MOL   C27048784   0.577   5.943   5.090 -0.3599  0.7017 -0.5295
  128MOL   C27148785   0.692   5.890   5.145 -0.0754 -0.2041  0.3638
  128MOL   C27248786   0.800   5.839   5.068  0.4894  0.6054  0.6515
  128MOL   C27348787   0.912   5.756   5.129 -0.1034  0.4744 -0.3352
  128MOL   C27448788   0.778   5.847   4.927 -0.8057 -0.2275 -0.0789
  128MOL   C27548789   0.662   5.903   4.873 -0.1029 -0.0177 -0.4807
  128MOL   C27648790   0.394   6.146   4.939 -0.2371  1.0996 -0.2756
  128MOL   H27748791   0.459   6.012   4.785 -1.2444  2.1069  0.3984
  128MOL   H27848792   0.495   5.987   5.144  0.0841 -0.0955  0.7986
  128MOL   H27948793   0.692   5.894   5.253 -1.4062  0.2007  0.3578
  128MOL   H28048794   0.951   5.689   5.053 -1.2264 -2.0706  1.2638
  128MOL   H28148795   0.999   5.819   5.152  1.1227 -0.3292 -2.6563
  128MOL   H28248796   0.876   5.691   5.208 -0.1872 -0.3650 -1.0612
  128MOL   H28348797   0.853   5.799   4.865  0.9813  3.0199 -0.6011
  128MOL   H28448798   0.635   5.896   4.768 -0.3331  2.0803 -0.5868
  128MOL   H28548799   0.360   6.132   5.042 -0.0201 -0.6068 -0.4233
  128MOL   H28648800   0.297   6.166   4.893  0.3944  0.9621 -1.6905
  128MOL   C28748801   0.508   6.246   4.922 -0.0334 -0.1357 -0.3473
  128MOL   C28848802   0.482   6.366   5.012  0.9010 -0.5974 -0.5857
  128MOL   C28948803   0.384   6.469   4.985 -0.4060 -0.2143 -1.0810
  128MOL   C29048804   0.356   6.575   5.075  0.3203  0.0372 -0.2601
  128MOL   C29148805   0.424   6.572   5.198 -0.0528 -1.5880  0.3475
  128MOL   C29248806   0.419   6.685   5.299  0.4324  0.5037  0.0509
  128MOL   C29348807   0.515   6.471   5.229 -0.1476 -0.2048 -0.5695
  128MOL   C29448808   0.541   6.364   5.140  0.0662  0.4646  0.5167
  128MOL   C29548809   0.517   6.301   4.774  0.2556  0.4822 -0.2852
  128MOL   H29648810   0.602   6.206   4.961  0.5533  1.3854 -0.1466
  128MOL   H29748811   0.340   6.483   4.887 -0.1693  0.3541 -1.1044
  128MOL   H29848812   0.299   6.662   5.046 -0.0325 -0.6686 -1.7576
  128MOL   H29948813   0.498   6.759   5.284  1.1823  0.4131  3.0621
  128MOL   H30048814   0.327   6.741   5.281  1.4170  1.8979 -0.7995
  128MOL   H30148815   0.424   6.648   5.401 -0.8711 -1.6103 -0.6325
  128MOL   H30248816   0.572   6.486   5.319 -1.2420  0.6690 -0.0115
  128MOL   H30348817   0.602   6.280   5.170  0.4786  1.0576  1.3642
  128MOL   H30448818   0.424   6.351   4.746 -0.0446  0.4534  0.6600
  128MOL   H30548819   0.523   6.214   4.708 -0.2374 -0.4153  0.8370
  128MOL   C30648820   0.645   6.386   4.749  0.6267  0.0263  0.0835
  128MOL   C30748821   0.629   6.494   4.642 -0.1364 -0.1406 -0.4637
  128MOL   C30848822   0.581   6.450   4.518  1.3092 -0.6268  0.0598
  128MOL   C30948823   0.572   6.542   4.412 -0.3455  0.6342 -0.0564
  128MOL   C31048824   0.602   6.677   4.428  0.8631 -0.3092  0.1177
  128MOL   C31148825   0.578   6.773   4.313  0.3569  0.3488  0.0571
  128MOL   C31248826   0.647   6.721   4.554  0.1736 -0.0731  0.2901
  128MOL   C31348827   0.661   6.628   4.663 -0.3511 -1.3572  0.4098
  128MOL   C31448828   0.773   6.301   4.730  0.0230 -0.5447 -0.3868
  128MOL   H31548829   0.649   6.446   4.840 -0.2324 -1.5526  1.1891
  128MOL   H31648830   0.558   6.345   4.513 -0.2979 -0.2502 -0.6116
  128MOL   H31748831   0.541   6.502   4.317 -0.4033 -1.6437  0.9088
  128MOL   H31848832   0.670   6.829   4.293  0.1508  0.5138 -0.4277
  128MOL   H31948833   0.543   6.728   4.220  1.1839  2.4668 -1.3169
  128MOL   H32048834   0.504   6.844   4.350  1.4722  1.0038  1.0909
  128MOL   H32148835   0.670   6.825   4.567  1.6089 -0.4224  0.6202
  128MOL   H32248836   0.707   6.672   4.751 -0.9136  0.6850 -0.2891
  128MOL   H32348837   0.833   6.355   4.657  4.1269 -1.3409  2.2216
  128MOL   H32448838   0.751   6.204   4.688 -0.1501  0.2246 -2.1015
  128MOL   C32548839   0.865   6.304   4.857 -0.4950 -0.2884 -0.3686
  128MOL   C32648840   0.920   6.452   4.881 -0.2292  0.6242 -0.3255
  128MOL   C32748841   1.037   6.492   4.811  0.6958 -0.3001 -0.1946
  128MOL   C32848842   1.076   6.623   4.834 -0.5810  0.2701  1.1532
  128MOL   C32948843   1.001   6.707   4.926  0.3886  0.0892  0.1926
  128MOL   C33048844   1.054   6.851   4.945 -0.4803 -0.2915 -0.1339
  128MOL   C33148845   0.894   6.664   4.999 -0.5810  0.1061 -0.2495
  128MOL   C33248846   0.853   6.531   4.979 -0.0158 -0.1957 -0.3898
  128MOL   C33348847   0.965   6.195   4.837 -0.8062  0.1016 -0.2998
  128MOL   H33448848   0.802   6.288   4.944 -0.1048 -0.0155 -0.0345
  128MOL   H33548849   1.088   6.432   4.738  1.7384  1.0649 -0.6023
  128MOL   H33648850   1.170   6.664   4.800  0.0205 -0.6591  1.6680
  128MOL   H33748851   0.966   6.915   4.949 -0.1906  0.0026  2.2165
  128MOL   H33848852   1.109   6.852   5.039  1.6379  1.1898 -1.3496
  128MOL   H33948853   1.126   6.888   4.871  0.3165 -0.2195  0.6702
  128MOL   H34048854   0.846   6.722   5.075  0.0754 -1.1185  1.1231
  128MOL   H34148855   0.769   6.495   5.036 -1.0680  1.7140 -0.6742
  128MOL   H34248856   1.007   6.207   4.737 -0.6142 -1.7831 -0.4739
  128MOL   H34348857   0.910   6.101   4.832 -0.0752 -0.2551 -1.8986
  128MOL   C34448858   1.089   6.181   4.938  0.2959 -0.2333  0.3612
  128MOL   C34548859   1.201   6.090   4.880  0.5367 -0.0982 -0.2699
  128MOL   C34648860   1.179   5.953   4.836  0.1285 -0.4002 -0.4404
  128MOL   C34748861   1.288   5.873   4.800 -0.4952 -0.4376  0.3449
  128MOL   C34848862   1.414   5.924   4.813  0.1631 -0.1546  0.0447
  128MOL   C34948863   1.529   5.833   4.765  0.3459 -0.7257 -0.3553
  128MOL   C35048864   1.447   6.051   4.873 -0.5240  0.1545 -0.2679
  128MOL   C35148865   1.339   6.140   4.893 -0.2189 -0.2222 -0.0686
  128MOL   C35248866   1.047   6.130   5.072  0.7009 -0.4995 -0.3651
  128MOL   H35348867   1.141   6.277   4.939  1.7787 -0.9859 -1.7175
  128MOL   H35448868   1.079   5.910   4.830  1.8393 -4.8503  0.9803
  128MOL   H35548869   1.282   5.769   4.770 -1.0037  0.1896 -1.7601
  128MOL   H35648870   1.496   5.751   4.701 -0.2643  0.4610 -1.5811
  128MOL   H35748871   1.615   5.889   4.730  0.5998 -0.3379  0.8794
  128MOL   H35848872   1.561   5.793   4.861  4.3022 -1.4075 -1.8626
  128MOL   H35948873   1.549   6.075   4.898  0.6016 -1.9844 -2.5092
  128MOL   H36048874   1.363   6.236   4.937 -0.2138 -0.5837  0.7356
  128MOL   H36148875   1.112   6.045   5.095  3.2967  1.7380  0.8036
  128MOL   H36248876   0.948   6.086   5.060  0.6678 -0.6050  0.2707
  128MOL   C36348877   1.054   6.226   5.194  0.0421 -0.6220 -0.1932
  128MOL   C36448878   1.195   6.275   5.234  0.0821 -0.0162 -0.4636
  128MOL   C36548879   1.235   6.405   5.201 -0.2442  0.1259 -0.1888
  128MOL   C36648880   1.375   6.439   5.200 -0.6633 -0.3115  0.2212
  128MOL   C36748881   1.465   6.348   5.265  0.6310  0.1831 -0.6440
  128MOL   C36848882   1.609   6.390   5.309  0.7423 -0.4638 -0.1658
  128MOL   C36948883   1.415   6.229   5.313 -0.0079 -0.2780 -0.2153
  128MOL   C37048884   1.282   6.189   5.301 -0.3891 -0.5980  0.4934
  128MOL   C37148885   0.977   6.177   5.321 -0.0441  0.0634  0.1772
  128MOL   H37248886   0.998   6.311   5.154  0.4774  0.0070  0.5151
  128MOL   H37348887   1.172   6.477   5.150 -0.3536  2.0733  2.5893
  128MOL   H37448888   1.412   6.536   5.168  0.3373 -0.1818  1.7239
  128MOL   H37548889   1.660   6.329   5.384 -0.9651 -0.0337  1.3820
  128MOL   H37648890   1.679   6.405   5.227  1.7561  0.6481  0.8804
  128MOL   H37748891   1.600   6.496   5.334 -1.4995 -0.4618 -0.8221
  128MOL   H37848892   1.469   6.160   5.376 -2.0323 -1.0793  0.7165
  128MOL   H37948893   1.244   6.097   5.343  1.2420 -1.5436 -0.0503
  128MOL   H38048894   1.011   6.079   5.358 -0.4705  0.0977  0.6652
  128MOL   H38148895   0.873   6.163   5.292  0.6602  0.0642 -2.4768
  128MOL   H38248896   0.977   6.252   5.400  1.1312 -2.0824  2.3016
  129MOL     C148897   2.404   6.258   1.883 -0.5780  0.1131 -0.1690
  129MOL     C248898   2.309   6.230   1.999 -0.1735  0.1010  0.3058
  129MOL     C348899   2.355   6.225   2.134  0.1405 -0.2142  0.2291
  129MOL     C448900   2.257   6.209   2.234 -0.0451  0.4216 -0.2236
  129MOL     C548901   2.119   6.186   2.207  0.0757  0.5580  0.1941
  129MOL     C648902   2.019   6.145   2.313  0.0228 -0.4432 -0.4410
  129MOL     C748903   2.079   6.197   2.070  0.4497  0.2106 -0.6770
  129MOL     C848904   2.173   6.218   1.970  0.3318  0.2982 -0.4400
  129MOL     C948905   2.396   6.406   1.845 -0.3655  0.0654  0.3544
  129MOL    H1048906   2.506   6.238   1.916 -0.0925 -0.5288 -1.9628
  129MOL    H1148907   2.462   6.229   2.148  0.2912  1.1198 -1.0937
  129MOL    H1248908   2.284   6.194   2.338  0.0219  1.0071 -0.1558
  129MOL    H1348909   2.040   6.213   2.395 -0.4633  0.2206 -0.8659
  129MOL    H1448910   1.918   6.144   2.274 -0.3538 -0.9231  0.5271
  129MOL    H1548911   2.053   6.047   2.349  1.9150  0.0629 -0.8023
  129MOL    H1648912   1.974   6.181   2.052  0.5640 -0.8609 -0.4200
  129MOL    H1748913   2.141   6.232   1.868  0.6409  0.7751 -0.4752
  129MOL    H1848914   2.399   6.466   1.936  0.0470 -0.3968  0.6450
  129MOL    H1948915   2.293   6.432   1.820 -1.6185 -0.3657  4.6905
  129MOL    H2048916   2.373   6.199   1.796  0.7312 -0.2108 -0.4280
  129MOL    C2148917   2.506   6.459   1.745 -0.1675 -0.5522 -1.0210
  129MOL    C2248918   2.504   6.613   1.747 -0.0250 -0.2745 -0.3303
  129MOL    C2348919   2.601   6.693   1.807 -0.1070 -0.4382  0.2751
  129MOL    C2448920   2.599   6.835   1.801  0.3463  0.7855 -0.2999
  129MOL    C2548921   2.488   6.897   1.742 -0.6153  0.0261  0.4401
  129MOL    C2648922   2.483   7.045   1.761 -0.2656 -0.3589 -0.4922
  129MOL    C2748923   2.391   6.822   1.672  0.1653 -0.1194 -0.2949
  129MOL    C2848924   2.407   6.680   1.671 -0.7054  0.2477  0.0293
  129MOL    C2948925   2.492   6.394   1.605 -0.1287 -0.2648 -0.6234
  129MOL    H3048926   2.598   6.429   1.795 -0.9191 -1.2487 -0.0178
  129MOL    H3148927   2.675   6.650   1.873 -1.4069 -1.3151  1.1862
  129MOL    H3248928   2.672   6.887   1.861  2.1893 -1.0843 -0.8604
  129MOL    H3348929   2.403   7.072   1.692 -1.9701  0.1811  1.6108
  129MOL    H3448930   2.451   7.077   1.860  0.0200 -0.4925 -0.3570
  129MOL    H3548931   2.574   7.099   1.736  1.1863 -2.3633  0.3272
  129MOL    H3648932   2.303   6.865   1.627 -1.4599 -2.1743  0.8330
  129MOL    H3748933   2.332   6.622   1.621 -1.9091  2.1530 -0.4107
  129MOL    H3848934   2.515   6.474   1.534  0.6544  1.8426  1.9306
  129MOL    H3948935   2.384   6.385   1.590  0.1227 -1.5489 -1.7427
  129MOL    C4048936   2.577   6.264   1.586 -0.4673 -0.2025  0.2476
  129MOL    C4148937   2.727   6.281   1.616 -0.0254  0.3423 -0.0969
  129MOL    C4248938   2.796   6.388   1.554 -0.1269 -0.7150  0.1301
  129MOL    C4348939   2.929   6.423   1.594 -0.4608  0.6386 -0.0648
  129MOL    C4448940   2.992   6.336   1.684 -0.2227  0.3720 -0.2139
  129MOL    C4548941   3.127   6.376   1.737 -0.0921  0.0042  0.0079
  129MOL    C4648942   2.927   6.227   1.740 -0.3581  0.1762  0.2185
  129MOL    C4748943   2.793   6.195   1.708  0.3637 -0.2123 -0.2771
  129MOL    C4848944   2.565   6.223   1.440  0.0739  0.2717  0.0049
  129MOL    H4948945   2.528   6.189   1.649 -0.6941 -0.0915  0.1999
  129MOL    H5048946   2.741   6.449   1.484  1.7571 -0.0168 -0.7642
  129MOL    H5148947   2.988   6.506   1.558  3.5331 -2.6652 -1.6174
  129MOL    H5248948   3.167   6.464   1.685 -1.9389  0.8218 -0.0821
  129MOL    H5348949   3.109   6.410   1.839 -0.3084  0.3681 -0.1500
  129MOL    H5448950   3.193   6.289   1.738 -0.2965 -0.1451  1.9288
  129MOL    H5548951   2.982   6.167   1.811  1.4501  1.4506 -0.0582
  129MOL    H5648952   2.744   6.110   1.753 -0.0932  2.1046  3.7518
  129MOL    H5748953   2.638   6.144   1.423 -1.2456 -0.9386 -0.0838
  129MOL    H5848954   2.598   6.308   1.379 -0.6254  1.9306  1.8936
  129MOL    C5948955   2.429   6.174   1.397  0.1777 -0.1009 -0.0042
  129MOL    C6048956   2.387   6.048   1.471  0.1678  0.0846  0.5975
  129MOL    C6148957   2.458   5.926   1.456 -0.2215  0.7492  0.0204
  129MOL    C6248958   2.414   5.815   1.526 -0.4288  0.3789 -1.0780
  129MOL    C6348959   2.291   5.814   1.595  0.3480  0.8282 -0.0049
  129MOL    C6448960   2.245   5.683   1.659  0.1077  0.3222 -0.2850
  129MOL    C6548961   2.222   5.932   1.608 -0.3817  0.3836 -0.7512
  129MOL    C6648962   2.273   6.051   1.557 -0.0893  0.3852 -0.9892
  129MOL    C6748963   2.428   6.144   1.240 -0.4044 -0.4929  0.3336
  129MOL    H6848964   2.350   6.246   1.418 -0.3618 -0.3659 -1.0825
  129MOL    H6948965   2.550   5.926   1.398 -1.4699 -1.2729 -2.0510
  129MOL    H7048966   2.468   5.722   1.519 -2.9773 -1.0610 -2.4541
  129MOL    H7148967   2.176   5.692   1.743  0.3668  0.4108 -0.0787
  129MOL    H7248968   2.213   5.616   1.580  1.5060 -0.0135 -0.5811
  129MOL    H7348969   2.331   5.635   1.706  0.4179  0.5242 -0.6464
  129MOL    H7448970   2.125   5.929   1.654 -0.2258  0.2640 -0.4310
  129MOL    H7548971   2.208   6.137   1.561  0.0461  0.4819 -0.8456
  129MOL    H7648972   2.328   6.106   1.219 -0.2127 -0.1516 -1.2370
  129MOL    H7748973   2.504   6.071   1.212  2.8716  3.0875 -0.3823
  129MOL    C7848974   2.461   6.262   1.142 -0.0955 -0.2750 -0.6045
  129MOL    C7948975   2.394   6.393   1.181  0.0807  0.4110 -0.9354
  129MOL    C8048976   2.250   6.392   1.195  0.8073  0.2492  0.8071
  129MOL    C8148977   2.177   6.509   1.224 -0.5028  0.6507 -0.3932
  129MOL    C8248978   2.248   6.622   1.277  0.3646  0.4110 -0.2205
  129MOL    C8348979   2.172   6.746   1.324 -0.4391 -0.3276 -0.3519
  129MOL    C8448980   2.388   6.618   1.266 -0.0237 -0.2816 -0.5158
  129MOL    C8548981   2.463   6.513   1.215 -0.6046 -0.0708  0.2353
  129MOL    C8648982   2.450   6.217   0.992 -0.6700  0.0142  0.9513
  129MOL    H8748983   2.565   6.273   1.174 -0.3893 -0.5832  0.4730
  129MOL    H8848984   2.203   6.296   1.189  1.7538 -0.1727 -0.0589
  129MOL    H8948985   2.069   6.499   1.220 -0.5524  1.4501 -1.1487
  129MOL    H9048986   2.065   6.726   1.332 -0.8801  1.7758 -0.7849
  129MOL    H9148987   2.209   6.780   1.421  0.1705 -1.4969 -0.1666
  129MOL    H9248988   2.176   6.824   1.248  1.3040 -0.9579 -0.9176
  129MOL    H9348989   2.438   6.700   1.317 -0.5973 -0.2787  0.0511
  129MOL    H9448990   2.571   6.518   1.227 -0.8020  2.0257  1.2838
  129MOL    H9548991   2.345   6.193   0.972 -0.0960 -1.5328 -0.3140
  129MOL    H9648992   2.502   6.122   0.981  1.1024  0.9233  1.3691
  129MOL    C9748993   2.498   6.324   0.885 -0.1663  0.0395  0.2012
  129MOL    C9848994   2.435   6.304   0.747 -0.0838  0.4017 -0.4764
  129MOL    C9948995   2.464   6.188   0.671  0.5478 -0.2543  0.3823
  129MOL   C10048996   2.410   6.178   0.539 -0.1646 -0.2624 -0.6043
  129MOL   C10148997   2.302   6.263   0.501  1.1052  0.2890  0.2590
  129MOL   C10248998   2.231   6.250   0.363 -0.6279 -0.2944 -0.4508
  129MOL   C10348999   2.254   6.361   0.592  0.3456 -0.0279 -0.4873
  129MOL   C10449000   2.328   6.381   0.712  0.0853 -0.6702 -0.1128
  129MOL   C10549001   2.657   6.343   0.879 -0.2191 -0.4024 -0.1746
  129MOL   H10649002   2.437   6.408   0.918 -0.3397  0.4298 -1.1053
  129MOL   H10749003   2.542   6.117   0.696  1.5585  0.3419 -0.9790
  129MOL   H10849004   2.440   6.104   0.466 -1.3172 -1.7838  0.4210
  129MOL   H10949005   2.217   6.350   0.321 -0.8106 -0.9987 -2.1191
  129MOL   H11049006   2.282   6.192   0.286  2.2293  1.7199 -0.1712
  129MOL   H11149007   2.131   6.208   0.371 -1.5027  1.5309 -1.4471
  129MOL   H11249008   2.165   6.416   0.568 -0.3709 -0.6824  0.6398
  129MOL   H11349009   2.305   6.472   0.764  0.7167 -0.1951 -0.6487
  129MOL   H11449010   2.696   6.260   0.820  0.9384 -1.2855  1.7570
  129MOL   H11549011   2.708   6.336   0.975  4.6795 -0.1693 -2.5977
  129MOL   C11649012   2.706   6.470   0.820 -0.8864 -0.1155 -0.7385
  129MOL   C11749013   2.859   6.464   0.801  0.3095  0.7402 -0.5582
  129MOL   C11849014   2.937   6.537   0.895  0.5130 -0.1106 -0.3298
  129MOL   C11949015   3.077   6.552   0.863  0.4876 -0.3649 -0.7245
  129MOL   C12049016   3.134   6.482   0.753 -0.1411 -0.4260  0.0423
  129MOL   C12149017   3.283   6.497   0.718 -0.4699 -0.2365 -0.4396
  129MOL   C12249018   3.051   6.414   0.668 -0.1000  0.5479  0.2228
  129MOL   C12349019   2.916   6.405   0.687  0.1333 -0.8026 -0.0625
  129MOL   C12449020   2.645   6.597   0.884  0.1295  0.0872 -0.2666
  129MOL   H12549021   2.669   6.459   0.718  1.7805 -2.5752 -1.5348
  129MOL   H12649022   2.900   6.586   0.983  2.6202  0.4334  0.2804
  129MOL   H12749023   3.139   6.611   0.928 -2.5038  2.2054 -0.0887
  129MOL   H12849024   3.309   6.584   0.658 -0.4203  0.2075  0.2241
  129MOL   H12949025   3.334   6.527   0.809  1.0776  2.1315 -2.0415
  129MOL   H13049026   3.328   6.407   0.677  2.6849  1.3283 -0.5437
  129MOL   H13149027   3.097   6.369   0.582  0.3211  0.6972  0.3694
  129MOL   H13249028   2.850   6.356   0.618 -1.5550  1.4990 -0.1012
  129MOL   H13349029   2.697   6.622   0.976  1.3434  2.2000 -1.4955
  129MOL   H13449030   2.543   6.578   0.916 -0.6156  0.0055 -2.6401
  129MOL   C13549031   2.651   6.723   0.798 -0.2059  0.5042 -0.3996
  129MOL   C13649032   2.633   6.845   0.878 -0.1771 -0.3161 -0.0119
  129MOL   C13749033   2.522   6.873   0.959  0.5896 -0.6239 -0.4266
  129MOL   C13849034   2.508   6.993   1.029 -0.0391  0.8725  0.0383
  129MOL   C13949035   2.618   7.081   1.036  0.1020 -0.0620  0.4612
  129MOL   C14049036   2.602   7.221   1.095  0.1322 -0.3248 -0.1509
  129MOL   C14149037   2.735   7.054   0.967  0.0841  0.0646 -0.6712
  129MOL   C14249038   2.741   6.940   0.878  0.2166 -0.2319 -0.4899
  129MOL   C14349039   2.556   6.703   0.676 -0.6635 -0.3979  0.3330
  129MOL   H14449040   2.751   6.727   0.755  0.1595 -0.7040  0.3277
  129MOL   H14549041   2.434   6.811   0.956 -1.2682  1.9304 -0.0971
  129MOL   H14649042   2.413   7.016   1.073 -2.0367 -1.9107 -2.6247
  129MOL   H14749043   2.567   7.289   1.018 -2.6356 -0.1911  1.1444
  129MOL   H14849044   2.518   7.219   1.164 -0.3664  0.3498 -0.7300
  129MOL   H14949045   2.687   7.250   1.158 -1.7929 -0.7920  2.7745
  129MOL   H15049046   2.815   7.127   0.972 -1.1689  1.4254  0.3204
  129MOL   H15149047   2.820   6.927   0.805  0.2800 -0.1605 -0.4344
  129MOL   H15249048   2.479   6.628   0.695 -1.0865 -0.1555 -0.4119
  129MOL   H15349049   2.602   6.629   0.609 -0.6322  0.0365 -0.1289
  129MOL   C15449050   2.495   6.821   0.599 -0.1214 -0.1194 -0.2961
  129MOL   C15549051   2.341   6.843   0.618 -0.3423 -0.4922 -0.4466
  129MOL   C15649052   2.243   6.754   0.570  0.9449  0.3557  0.7954
  129MOL   C15749053   2.104   6.784   0.584 -0.2503 -0.7147  0.4900
  129MOL   C15849054   2.061   6.900   0.651  0.0070  0.0591  0.0378
  129MOL   C15949055   1.910   6.926   0.666  0.5764 -0.3544 -0.5200
  129MOL   C16049056   2.159   6.983   0.713  0.1647  0.2023  0.3209
  129MOL   C16149057   2.293   6.952   0.693 -0.2241  0.6967 -0.1667
  129MOL   C16249058   2.529   6.826   0.449  0.3998 -0.5066 -0.0663
  129MOL   H16349059   2.537   6.910   0.646 -1.2273  0.5979 -0.6560
  129MOL   H16449060   2.257   6.658   0.522 -2.7891  0.1263  0.0102
  129MOL   H16549061   2.032   6.719   0.538 -2.6079 -0.3898  3.5545
  129MOL   H16649062   1.864   7.003   0.603  0.9592  1.7622  1.7089
  129MOL   H16749063   1.855   6.833   0.650 -0.4222  0.4885 -2.2163
  129MOL   H16849064   1.889   6.956   0.769 -0.4356 -0.2717 -0.7405
  129MOL   H16949065   2.123   7.080   0.744  0.3151 -0.3323  2.2881
  129MOL   H17049066   2.362   7.034   0.710  0.7514  0.3777 -2.3127
  129MOL   H17149067   2.483   6.916   0.408  0.2312 -0.9053 -0.7516
  129MOL   H17249068   2.470   6.746   0.404 -0.2531 -0.5493  0.8381
  129MOL   C17349069   2.679   6.821   0.405 -0.5404 -0.8070 -0.0358
  129MOL   C17449070   2.773   6.923   0.467 -0.7806 -0.1493 -0.6212
  129MOL   C17549071   2.902   6.873   0.504  0.0356 -0.1628  0.4180
  129MOL   C17649072   2.999   6.958   0.560  0.4062 -0.3723  0.1047
  129MOL   C17749073   2.958   7.093   0.596 -0.1084 -0.0967  0.0239
  129MOL   C17849074   3.057   7.180   0.677 -0.3812  0.1708 -0.8445
  129MOL   C17949075   2.831   7.142   0.563 -0.5171 -0.3047 -0.4807
  129MOL   C18049076   2.739   7.059   0.499 -0.1349  0.2045  0.0332
  129MOL   C18149077   2.698   6.824   0.247  0.0178 -0.8655 -0.1543
  129MOL   H18249078   2.718   6.724   0.437  0.4392  0.0499  1.3943
  129MOL   H18349079   2.934   6.772   0.485 -0.3645 -0.0938 -0.6841
  129MOL   H18449080   3.095   6.912   0.579 -0.1771 -2.0893 -0.9765
  129MOL   H18549081   3.069   7.278   0.631  0.8971  0.9606  1.1346
  129MOL   H18649082   3.014   7.195   0.776 -0.8756  0.8447 -1.1539
  129MOL   H18749083   3.153   7.137   0.706 -1.2673 -2.1081 -1.1249
  129MOL   H18849084   2.819   7.246   0.590  2.3225  0.6072 -2.5601
  129MOL   H18949085   2.643   7.092   0.462 -0.6506 -1.3724 -0.0774
  129MOL   H19049086   2.802   6.839   0.217  0.2064 -1.1169  0.3789
  129MOL   H19149087   2.644   6.909   0.204 -0.0985 -0.3016  1.0702
  129MOL   C19249088   2.650   6.697   0.186  0.0539 -0.5671 -0.6059
  129MOL   C19349089   2.712   6.570   0.242 -0.2225  0.4117 -0.2768
  129MOL   C19449090   2.848   6.549   0.223  0.2542  0.2340 -0.4784
  129MOL   C19549091   2.909   6.429   0.265 -0.3687 -0.1226 -0.9428
  129MOL   C19649092   2.830   6.328   0.325 -0.9499 -0.0966 -0.1105
  129MOL   C19749093   2.895   6.199   0.372 -0.4352  0.2809 -0.2562
  129MOL   C19849094   2.693   6.349   0.345 -0.5455  0.1921 -0.2983
  129MOL   C19949095   2.632   6.464   0.292 -0.1902  0.5893 -0.3151
  129MOL   C20049096   2.668   6.707   0.028  0.3474  0.6299  0.0951
  129MOL   H20149097   2.544   6.695   0.209  0.5112  1.0339  1.8465
  129MOL   H20249098   2.912   6.623   0.177  1.0184 -0.2724 -0.2494
  129MOL   H20349099   3.016   6.414   0.260 -0.1137  0.0274  3.0067
  129MOL   H20449100   2.929   6.152   0.280  1.1074  2.0035 -0.6106
  129MOL   H20549101   2.976   6.228   0.439 -1.9537  0.8555  1.3569
  129MOL   H20649102   2.823   6.138   0.426  1.0707 -1.3086 -0.0334
  129MOL   H20749103   2.624   6.279   0.390 -1.6746  1.9918  0.7997
  129MOL   H20849104   2.525   6.473   0.295 -0.4978 -1.6305 -2.7797
  129MOL   H20949105   2.776   6.719   0.016  0.4035 -0.1878 -0.2106
  129MOL   H21049106   2.627   6.802   8.072  1.5159  0.6699 -1.1858
  129MOL   C21149107   2.621   6.588   8.013 -0.6526 -0.0073  0.6784
  129MOL   C21249108   2.659   6.622   7.870 -0.0703  0.5465  0.1108
  129MOL   C21349109   2.568   6.684   7.777  0.1447  0.6466  0.7898
  129MOL   C21449110   2.611   6.725   7.654 -0.0992  0.0663  0.3308
  129MOL   C21549111   2.744   6.706   7.609  0.2376 -0.2706  0.6546
  129MOL   C21649112   2.792   6.741   7.474  0.3330 -0.5601  0.5401
  129MOL   C21749113   2.829   6.627   7.686  0.3119  0.2417 -0.6284
  129MOL   C21849114   2.788   6.592   7.820  0.3649 -0.7226  0.1857
  129MOL   C21949115   2.467   6.552   8.023  0.1297  0.1246 -0.3229
  129MOL   H22049116   2.681   6.501   8.038 -0.8282 -0.2460  0.2805
  129MOL   H22149117   2.463   6.699   7.801  0.1798  2.8314 -0.3152
  129MOL   H22249118   2.544   6.771   7.583 -0.0041  1.2567  1.0065
  129MOL   H22349119   2.866   6.822   7.476 -0.8675  0.5143  1.5698
  129MOL   H22449120   2.835   6.651   7.430  1.2783  0.6174 -1.0230
  129MOL   H22549121   2.703   6.770   7.419  0.6505  0.2491  0.4480
  129MOL   H22649122   2.927   6.599   7.651  0.5424  0.6380 -0.2994
  129MOL   H22749123   2.855   6.537   7.884 -1.8912 -1.0340  2.3929
  129MOL   H22849124   2.411   6.644   8.006 -0.1205 -0.0325 -0.3495
  129MOL   H22949125   2.446   6.521   0.045 -0.4546  1.6651  0.0389
  129MOL   C23049126   2.415   6.436   7.942  0.5177 -0.1794  0.2325
  129MOL   C23149127   2.264   6.448   7.909 -0.2568 -0.5355 -0.3992
  129MOL   C23249128   2.216   6.462   7.781 -0.9700  0.0697  0.0987
  129MOL   C23349129   2.079   6.471   7.762 -0.7059 -0.3350  0.3797
  129MOL   C23449130   1.989   6.472   7.869 -0.2695  0.4146  0.8604
  129MOL   C23549131   1.840   6.457   7.846 -0.2540  0.2336  0.8165
  129MOL   C23649132   2.039   6.470   7.997  0.2533  0.2975  0.2256
  129MOL   C23749133   2.179   6.451   8.016  0.3665 -0.0473 -0.2952
  129MOL   C23849134   2.456   6.291   7.999 -0.5227  0.6528 -0.0254
  129MOL   H23949135   2.468   6.452   7.848 -1.6868 -2.2841 -1.4482
  129MOL   H24049136   2.271   6.473   7.689  1.6735 -1.3009  1.4546
  129MOL   H24149137   2.039   6.467   7.662  1.1562  0.8329 -0.4428
  129MOL   H24249138   1.784   6.548   7.865 -0.5776  0.3137 -0.5184
  129MOL   H24349139   1.826   6.426   7.743 -0.4726 -1.7088  1.4075
  129MOL   H24449140   1.798   6.373   7.902  0.0822 -0.0256  0.6864
  129MOL   H24549141   1.978   6.471   0.006  1.3887  3.5079  1.0283
  129MOL   H24649142   2.217   6.436   0.036  0.5573  0.2271 -0.3257
  129MOL   H24749143   2.361   6.244   7.976 -0.8753  0.8168  1.0798
  129MOL   H24849144   2.463   6.295   0.028  4.4745 -1.6558 -0.0980
  129MOL   C24949145   2.581   6.232   7.930 -0.4209  0.1501  0.2225
  129MOL   C25049146   2.562   6.213   7.777  1.4214 -0.3065 -0.5146
  129MOL   C25149147   2.469   6.122   7.733 -0.0824  0.4156  0.0080
  129MOL   C25249148   2.436   6.110   7.596  0.6550 -0.2776 -0.2023
  129MOL   C25349149   2.492   6.198   7.508 -0.5187 -0.4692  0.2784
  129MOL   C25449150   2.450   6.183   7.360 -0.1059 -0.0125 -0.4884
  129MOL   C25549151   2.589   6.292   7.546 -0.1034  0.1261  0.5593
  129MOL   C25649152   2.623   6.302   7.681 -0.2319  0.0488 -0.2668
  129MOL   C25749153   2.657   6.119   8.009  0.6684 -0.4536  0.2362
  129MOL   H25849154   2.655   6.312   7.932 -0.2673 -0.0022  0.7217
  129MOL   H25949155   2.439   6.046   7.803  1.5575 -1.0792 -0.8938
  129MOL   H26049156   2.360   6.038   7.570  0.0796 -0.1840  1.1472
  129MOL   H26149157   2.369   6.249   7.330  0.3326  0.9371  0.4113
  129MOL   H26249158   2.536   6.215   7.301  0.2552  0.4943  0.2984
  129MOL   H26349159   2.432   6.076   7.348  2.2833 -0.5671  0.5791
  129MOL   H26449160   2.632   6.360   7.474 -1.6761  0.5773  0.0349
  129MOL   H26549161   2.702   6.368   7.716  1.3050 -0.1129 -3.2669
  129MOL   H26649162   2.600   6.027   7.991 -0.1612 -0.0680  0.9004
  129MOL   H26749163   2.640   6.141   0.034 -0.0975 -0.3550  0.0954
  129MOL   C26849164   2.805   6.097   7.968 -0.3589 -0.4150  0.2751
  129MOL   C26949165   2.845   5.955   7.995  0.0019 -0.4497  0.2043
  129MOL   C27049166   2.840   5.916   0.049 -0.2043 -0.5216  0.4121
  129MOL   C27149167   2.871   5.786   0.093 -0.1223 -0.3752  0.0430
  129MOL   C27249168   2.926   5.696   8.080 -0.1402 -0.0195  0.7356
  129MOL   C27349169   2.990   5.570   0.054  0.2148 -0.1716  0.2010
  129MOL   C27449170   2.937   5.737   7.946 -0.3590  0.2483 -0.1846
  129MOL   C27549171   2.898   5.862   7.901 -0.6184  0.3681  0.2126
  129MOL   C27649172   2.898   6.209   8.030  0.5202 -0.6756  0.1980
  129MOL   H27749173   2.808   6.111   7.860  0.6850  0.0473  0.3566
  129MOL   H27849174   2.808   5.993   0.119 -0.4899  0.8812 -1.2314
  129MOL   H27949175   2.867   5.766   0.199  1.2732 -2.2714 -0.2350
  129MOL   H28049176   3.082   5.585   0.109  0.8465 -1.3544 -0.5053
  129MOL   H28149177   2.930   5.518   0.129  1.1208 -1.0277  0.3352
  129MOL   H28249178   3.010   5.507   8.047  1.0692  2.2928 -1.4548
  129MOL   H28349179   2.980   5.672   7.871 -0.9360  0.8737 -1.0689
  129MOL   H28449180   2.909   5.880   7.795 -2.2130 -1.9041 -0.3743
  129MOL   H28549181   2.885   6.218   0.058  0.1419  0.2176  0.0866
  129MOL   H28649182   2.870   6.310   8.000 -0.4095 -0.6907  0.9942
  129MOL   C28749183   3.052   6.191   8.014 -0.0950  0.4288 -0.3401
  129MOL   C28849184   3.132   6.291   0.014  0.8636  0.1513 -1.3668
  129MOL   C28949185   3.143   6.422   8.045  0.1338 -0.3989  0.2769
  129MOL   C29049186   3.231   6.514   0.022  0.8740  0.5440 -0.9401
  129MOL   C29149187   3.309   6.476   0.131 -0.0186  0.2666 -0.7591
  129MOL   C29249188   3.404   6.579   0.193 -0.0801  0.5806  0.7458
  129MOL   C29349189   3.298   6.342   0.181 -0.2604 -0.5337  0.5555
  129MOL   C29449190   3.211   6.251   0.125  0.1653 -0.2466 -0.7146
  129MOL   C29549191   3.082   6.187   7.863 -0.9303  0.1079 -0.2203
  129MOL   H29649192   3.075   6.094   8.058  1.2324  1.3334  1.0411
  129MOL   H29749193   3.068   6.433   7.968 -0.6525  1.3724  1.2810
  129MOL   H29849194   3.239   6.614   8.061 -0.1904  0.3636 -1.6077
  129MOL   H29949195   3.345   6.663   0.231  0.0478  1.4822 -1.0329
  129MOL   H30049196   3.467   6.524   0.263 -0.1680 -1.0035 -0.3978
  129MOL   H30149197   3.472   6.597   0.111 -0.1893  0.6736  0.6754
  129MOL   H30249198   3.362   6.313   0.263  2.7789 -1.1741 -1.9576
  129MOL   H30349199   3.215   6.148   0.157  0.0178  0.1608  0.6523
  129MOL   H30449200   3.069   6.278   7.805  0.0229  0.9854  0.8998
  129MOL   H30549201   3.014   6.119   7.812 -0.0999  1.0335 -2.5909
  129MOL   C30649202   3.228   6.147   7.840 -0.1585 -0.2174  0.1181
  129MOL   C30749203   3.255   6.148   7.690 -0.8907 -0.2539 -0.3194
  129MOL   C30849204   3.348   6.244   7.642 -0.7921  0.0174  0.6627
  129MOL   C30949205   3.375   6.234   7.502 -0.0717 -0.4346  0.0426
  129MOL   C31049206   3.317   6.135   7.415 -0.2278 -0.1846 -0.2506
  129MOL   C31149207   3.358   6.126   7.274  0.1156  0.0898  0.8793
  129MOL   C31249208   3.229   6.045   7.473  0.0843  0.5516 -0.1200
  129MOL   C31349209   3.188   6.055   7.610 -0.8018  0.2931  0.8084
  129MOL   C31449210   3.260   6.003   7.902  0.2534  0.9670  0.6214
  129MOL   H31549211   3.286   6.230   7.882 -1.3560  0.8785 -0.3978
  129MOL   H31649212   3.405   6.309   7.707  0.4806 -0.0751 -0.3562
  129MOL   H31749213   3.451   6.295   7.455 -1.7587  0.3036 -1.7907
  129MOL   H31849214   3.447   6.066   7.253  2.8421  3.6867  1.6264
  129MOL   H31949215   3.282   6.080   7.210  1.9006 -0.2013 -1.0876
  129MOL   H32049216   3.374   6.232   7.254 -0.7945  0.1941  0.6732
  129MOL   H32149217   3.167   5.975   7.420  0.8713 -3.2380  3.6957
  129MOL   H32249218   3.122   5.984   7.656 -2.0511 -0.0810 -1.5245
  129MOL   H32349219   3.186   5.929   7.872  0.0666  1.5319 -0.3350
  129MOL   H32449220   3.259   6.027   8.008  1.1938  0.2833  0.7947
  129MOL   C32549221   3.401   5.952   7.885  0.0219 -0.1372  0.6474
  129MOL   C32649222   3.411   5.806   7.908 -0.0453  0.7710 -0.1678
  129MOL   C32749223   3.408   5.765   8.044 -0.1858 -0.6134 -0.4943
  129MOL   C32849224   3.424   5.629   8.078 -0.1955 -0.0223 -0.1583
  129MOL   C32949225   3.437   5.539   7.975  0.0909  0.4864 -0.5208
  129MOL   C33049226   3.424   5.397   8.018 -0.0660 -0.0566 -0.1756
  129MOL   C33149227   3.429   5.573   7.835 -0.2308 -0.1076  0.0766
  129MOL   C33249228   3.414   5.712   7.807  0.0119 -0.9338  0.2118
  129MOL   C33349229   3.500   6.048   7.965  0.6454  0.1452  0.2280
  129MOL   H33449230   3.421   5.971   7.779  1.0709 -0.4674  0.7828
  129MOL   H33549231   3.380   5.836   0.041  2.3709 -0.5624  0.4411
  129MOL   H33649232   3.428   5.609   0.104  2.0242  1.6850  0.1257
  129MOL   H33749233   3.413   5.332   7.931 -1.6531  1.6184 -1.2437
  129MOL   H33849234   3.512   5.378   8.080 -0.0033  1.6161  0.2728
  129MOL   H33949235   3.340   5.398   0.007 -0.2718 -2.8074 -0.3409
  129MOL   H34049236   3.445   5.498   7.759  1.0154  0.1507  0.0814
  129MOL   H34149237   3.442   5.740   7.707  0.6734 -1.3530  0.2733
  129MOL   H34249238   3.491   6.021   8.070 -0.7734 -1.0367 -0.1853
  129MOL   H34349239   3.462   6.149   7.946  0.8528 -0.2181 -2.2290
  129MOL   C34449240   3.653   6.040   7.931  0.5321 -0.3869 -0.1082
  129MOL   C34549241   3.734   6.139   8.025  0.2307  0.5043  0.2797
  129MOL   C34649242   3.865   6.101   8.060 -0.1344 -0.7141 -0.7194
  129MOL   C34749243   3.941   6.176   0.073  0.5702 -0.1670  0.0202
  129MOL   C34849244   3.889   6.295   0.133 -0.4647 -0.1451 -0.1377
  129MOL   C34949245   3.970   6.378   0.224 -0.6332 -0.1788 -0.4796
  129MOL   C35049246   3.759   6.334   0.098 -0.3633  0.4150 -0.0980
  129MOL   C35149247   3.685   6.255   0.005  0.1399  0.1771 -0.2886
  129MOL   C35249248   3.678   6.073   7.782  0.2023  0.5273  0.1125
  129MOL   H35349249   3.688   5.941   7.957 -1.3899 -1.1058 -0.1710
  129MOL   H35449250   3.905   6.015   8.009  0.4842 -0.5271 -0.5527
  129MOL   H35549251   4.036   6.133   0.101  0.5591 -0.1465  0.0878
  129MOL   H35649252   4.076   6.350   0.221 -0.7113 -0.7203  1.2547
  129MOL   H35749253   3.965   6.483   0.196  0.5949 -0.6901 -2.7909
  129MOL   H35849254   3.938   6.380   0.328  0.0006 -0.1445 -0.2810
  129MOL   H35949255   3.721   6.429   0.133  0.2445  1.2516 -1.6654
  129MOL   H36049256   3.586   6.291   8.060  0.8792  2.5575  0.0783
  129MOL   H36149257   3.770   6.132   7.779  1.0336 -0.7606 -0.4243
  129MOL   H36249258   3.603   6.143   7.747 -0.0046  1.2502  1.9832
  129MOL   C36349259   3.684   5.952   7.687  0.2087 -1.6524  0.5059
  129MOL   C36449260   3.804   5.849   7.708  0.1713  0.5597  0.4722
  129MOL   C36549261   3.934   5.900   7.746  0.3783  0.0865 -0.2345
  129MOL   C36649262   4.048   5.818   7.767 -0.9299  0.4029 -0.5244
  129MOL   C36749263   4.027   5.683   7.754  0.2456  0.1483  0.7845
  129MOL   C36849264   4.136   5.591   7.799 -1.0378  0.0077 -0.1050
  129MOL   C36949265   3.902   5.635   7.708  0.0033  0.3626 -0.3819
  129MOL   C37049266   3.793   5.712   7.687  0.1153 -0.0166 -0.5335
  129MOL   C37149267   3.685   6.004   7.540 -0.4349 -0.3816 -0.3104
  129MOL   H37249268   3.594   5.891   7.699 -1.0129  0.2902  1.5578
  129MOL   H37349269   3.951   6.006   7.761  0.0117  0.0361  0.5548
  129MOL   H37449270   4.147   5.847   7.797 -0.2957 -1.0767 -1.1676
  129MOL   H37549271   4.105   5.487   7.809 -2.8335  0.6054  0.6419
  129MOL   H37649272   4.202   5.590   7.712 -1.5524  0.8348 -0.5109
  129MOL   H37749273   4.201   5.620   7.882 -2.2076  2.4071  0.0191
  129MOL   H37849274   3.899   5.530   7.682 -0.0708  0.8434 -2.4179
  129MOL   H37949275   3.696   5.664   7.679 -0.0247  0.2019 -0.1502
  129MOL   H38049276   3.767   6.074   7.521 -0.8060  0.3715  0.8357
  129MOL   H38149277   3.597   6.066   7.523  0.4838  1.5513  1.7438
  129MOL   H38249278   3.673   5.931   7.460 -3.2201  0.7895 -1.0027
  130MOL     C149279   3.195   0.138   3.624  0.4493  0.6878 -0.2415
  130MOL     C249280   3.123   0.011   3.567 -0.2955 -0.2281  0.9966
  130MOL     C349281   3.196   7.977   3.525  0.2829 -0.3900 -0.0931
  130MOL     C449282   3.131   7.862   3.485  0.6129 -0.2569 -0.8584
  130MOL     C549283   2.991   7.863   3.474 -0.4685  0.3815  0.7244
  130MOL     C649284   2.921   7.746   3.398  0.2355 -0.2658 -0.1054
  130MOL     C749285   2.919   7.974   3.515  0.4808  0.9479 -0.1682
  130MOL     C849286   2.980   0.009   3.560  0.0868  0.1311  0.3941
  130MOL     C949287   3.148   0.169   3.764  0.2952  0.3588 -0.7083
  130MOL    H1049288   3.302   0.118   3.619  0.7612  2.3409 -0.4405
  130MOL    H1149289   3.303   7.973   3.538  0.0988 -1.5748  1.0798
  130MOL    H1249290   3.199   7.787   3.447  3.6733  2.4128 -0.9422
  130MOL    H1349291   2.813   7.754   3.386  0.0829  1.9561  2.2511
  130MOL    H1449292   2.966   7.734   3.300  0.0820 -0.3841 -0.1626
  130MOL    H1549293   2.931   7.652   3.454 -2.6111 -0.1015  0.7608
  130MOL    H1649294   2.812   7.967   3.499  0.4768  1.4031 -0.3307
  130MOL    H1749295   2.919   0.088   3.600 -0.0270 -0.1827  0.8389
  130MOL    H1849296   3.167   0.085   3.832  1.0227  2.0613  1.2603
  130MOL    H1949297   3.039   0.168   3.766  0.2733 -3.7087  2.1350
  130MOL    H2049298   3.178   0.223   3.559  1.5135  0.7320 -0.4830
  130MOL    C2149299   3.207   0.304   3.821 -0.1048 -0.3621  0.3580
  130MOL    C2249300   3.362   0.298   3.812 -0.6327  0.4684 -0.2655
  130MOL    C2349301   3.430   0.392   3.733 -0.3550 -0.2136  0.0057
  130MOL    C2449302   3.572   0.387   3.727  0.2203 -0.1138  0.0220
  130MOL    C2549303   3.642   0.289   3.801 -0.2150 -0.1148  0.8038
  130MOL    C2649304   3.797   0.294   3.808 -0.4823 -0.1869  0.0294
  130MOL    C2749305   3.569   0.182   3.867  0.1650 -0.1953  0.4766
  130MOL    C2849306   3.432   0.194   3.871  0.2197 -0.1522 -0.0171
  130MOL    C2949307   3.152   0.332   3.964  0.6958 -0.7374 -0.0553
  130MOL    H3049308   3.173   0.380   3.752  2.2822  1.2221  0.8556
  130MOL    H3149309   3.377   0.471   3.682  1.6136  0.6720 -0.7156
  130MOL    H3249310   3.630   0.470   3.689 -1.2381  0.4817 -0.9330
  130MOL    H3349311   3.857   0.316   3.720 -0.9846  1.7969  0.1675
  130MOL    H3449312   3.828   0.363   3.886 -0.1288 -1.4118  1.0035
  130MOL    H3549313   3.836   0.201   3.849  0.7364 -0.6416 -2.0641
  130MOL    H3649314   3.622   0.099   3.911  0.0231  0.1986  1.4069
  130MOL    H3749315   3.369   0.129   3.932  1.8140  0.7467  2.6638
  130MOL    H3849316   3.190   0.257   4.033 -1.7636 -1.5743  0.4671
  130MOL    H3949317   3.045   0.313   3.953  0.7893 -1.2738 -0.0446
  130MOL    C4049318   3.172   0.472   4.025 -0.3159 -0.6613  0.4111
  130MOL    C4149319   3.329   0.499   4.039  0.1188  0.2926  0.4937
  130MOL    C4249320   3.389   0.609   3.971  0.2247 -0.5503  0.3052
  130MOL    C4349321   3.527   0.638   3.985  0.5910  0.5037  0.3912
  130MOL    C4449322   3.611   0.555   4.061  0.0926 -0.9909 -0.1756
  130MOL    C4549323   3.757   0.594   4.071 -0.7204  0.2596 -0.0708
  130MOL    C4649324   3.552   0.446   4.126 -0.5195  0.0205  0.2709
  130MOL    C4749325   3.414   0.420   4.117 -0.1732  0.0239 -0.9143
  130MOL    C4849326   3.106   0.479   4.167 -0.4929 -0.0806  0.3206
  130MOL    H4949327   3.131   0.552   3.963  2.3883  2.8009  2.8369
  130MOL    H5049328   3.338   0.681   3.908  0.0030 -0.9069  0.0762
  130MOL    H5149329   3.564   0.730   3.942  0.2363  0.4197 -0.1006
  130MOL    H5249330   3.818   0.506   4.052  0.2675  1.2323 -1.5012
  130MOL    H5349331   3.785   0.663   3.991  1.2394 -1.2481 -0.7266
  130MOL    H5449332   3.789   0.639   4.165  1.6059 -1.5315  0.0414
  130MOL    H5549333   3.619   0.388   4.188  1.6935  0.7193 -1.3737
  130MOL    H5649334   3.369   0.339   4.174 -1.1704  0.9540 -0.3661
  130MOL    H5749335   3.153   0.549   4.237  0.2279  1.0053 -1.2150
  130MOL    H5849336   3.132   0.383   4.212 -2.0459 -0.3886  0.5971
  130MOL    C5949337   2.955   0.502   4.159  0.2708 -0.4307 -0.5158
  130MOL    C6049338   2.935   0.650   4.129 -0.2035  0.7042 -0.0921
  130MOL    C6149339   2.885   0.684   4.000 -0.0268  0.2694 -0.8476
  130MOL    C6249340   2.856   0.822   3.973  0.6827  0.2714 -0.0494
  130MOL    C6349341   2.881   0.919   4.078  0.0148 -0.1602 -0.4834
  130MOL    C6449342   2.854   1.061   4.044  0.5104 -0.6575 -0.3470
  130MOL    C6549343   2.928   0.879   4.202 -0.6804 -0.6210 -0.3928
  130MOL    C6649344   2.963   0.749   4.228  0.2846 -0.2673  0.2158
  130MOL    C6749345   2.871   0.452   4.274 -0.2320 -0.1287 -0.1955
  130MOL    H6849346   2.926   0.443   4.071  2.7697  0.3525 -1.9186
  130MOL    H6949347   2.880   0.607   3.925 -2.0179 -0.7517  0.2829
  130MOL    H7049348   2.821   0.857   3.878 -2.7702 -2.8292 -0.0442
  130MOL    H7149349   2.877   1.135   4.120  0.6624 -0.2159 -0.8159
  130MOL    H7249350   2.905   1.093   3.953  3.5639 -0.9112  1.2002
  130MOL    H7349351   2.747   1.052   4.026  0.5535  2.2457 -2.4947
  130MOL    H7449352   2.944   0.957   4.275 -1.1124  0.5437 -1.5102
  130MOL    H7549353   3.003   0.734   4.327  0.8407  0.8422  0.1758
  130MOL    H7649354   2.873   0.522   4.357 -0.4541 -0.3563 -0.0003
  130MOL    H7749355   2.916   0.359   4.309 -1.6896 -0.9746 -0.5402
  130MOL    C7849356   2.727   0.406   4.239 -0.5175  0.1242 -0.6059
  130MOL    C7949357   2.726   0.283   4.153  0.0519  1.1778  0.0171
  130MOL    C8049358   2.716   0.278   4.011  0.6268  0.3665 -0.0416
  130MOL    C8149359   2.713   0.158   3.940  0.7464  0.5564 -0.4641
  130MOL    C8249360   2.723   0.034   4.008  0.0528 -0.2912  0.0444
  130MOL    C8349361   2.747   7.987   3.932 -0.7521 -0.0829  0.1176
  130MOL    C8449362   2.731   0.034   4.148  0.1713 -0.0383 -0.1658
  130MOL    C8549363   2.734   0.159   4.219  0.6003  0.5426 -0.0910
  130MOL    C8649364   2.639   0.514   4.165  0.2364  0.3641  0.5695
  130MOL    H8749365   2.681   0.387   4.336  0.8178 -0.3049 -0.0375
  130MOL    H8849366   2.712   0.365   3.947  0.7146 -1.2873 -2.3714
  130MOL    H8949367   2.708   0.161   3.832 -0.4837 -0.6442 -0.4557
  130MOL    H9049368   2.664   7.935   3.884  1.5564 -2.7268 -1.2004
  130MOL    H9149369   2.810   8.018   3.848  0.9879  2.5076  2.2838
  130MOL    H9249370   2.797   7.909   3.990  1.0695  0.5891 -0.5262
  130MOL    H9349371   2.753   8.021   4.200 -2.5223 -0.2150  0.7045
  130MOL    H9449372   2.764   0.154   4.323 -0.6589  0.2723  0.2642
  130MOL    H9549373   2.549   0.456   4.144  0.5082  0.2446 -0.2946
  130MOL    H9649374   2.675   0.544   4.066 -3.2928 -0.5110 -1.0367
  130MOL    C9749375   2.599   0.650   4.232 -0.4178  0.5533 -0.2587
  130MOL    C9849376   2.586   0.636   4.384  0.2644 -0.5571 -0.2797
  130MOL    C9949377   2.485   0.557   4.445  0.4429  0.4468 -0.3243
  130MOL   C10049378   2.469   0.551   4.585  0.6847  0.2256  0.1153
  130MOL   C10149379   2.569   0.603   4.670  0.0204  0.1244 -0.3699
  130MOL   C10249380   2.568   0.568   4.817  0.3009 -0.1835 -0.0625
  130MOL   C10349381   2.679   0.672   4.612  0.7038 -0.5279  0.2153
  130MOL   C10449382   2.684   0.693   4.473  0.2515 -0.1440  0.3424
  130MOL   C10549383   2.472   0.715   4.167  0.0416  0.1829  0.7596
  130MOL   H10649384   2.683   0.720   4.221  2.6271 -3.1857 -2.0701
  130MOL   H10749385   2.421   0.495   4.384 -1.6999  0.8552  1.4446
  130MOL   H10849386   2.389   0.488   4.621 -1.1871  2.7712  0.5348
  130MOL   H10949387   2.526   0.647   4.879 -1.9141 -1.5947  0.2566
  130MOL   H11049388   2.520   0.474   4.843  0.0943  0.0170  0.2923
  130MOL   H11149389   2.668   0.554   4.860 -0.9492  0.0324  3.0661
  130MOL   H11249390   2.752   0.715   4.679 -0.3155 -0.8803  1.5743
  130MOL   H11349391   2.760   0.758   4.431 -1.9167  2.0835 -0.2395
  130MOL   H11449392   2.396   0.638   4.162 -0.7306  0.9591  0.4645
  130MOL   H11549393   2.501   0.733   4.063 -1.1019  0.9303  0.5655
  130MOL   C11649394   2.410   0.842   4.238  0.0776  0.0721 -0.1849
  130MOL   C11749395   2.265   0.876   4.181  0.1672 -0.0176  0.0210
  130MOL   C11849396   2.152   0.804   4.223  0.3521 -0.6240 -0.5692
  130MOL   C11949397   2.025   0.833   4.166 -0.2806 -0.8416  1.3081
  130MOL   C12049398   2.007   0.939   4.073 -0.5585 -0.7576 -0.2475
  130MOL   C12149399   1.867   0.961   4.022  0.3186  0.2754 -0.2843
  130MOL   C12249400   2.117   1.016   4.031  0.1780  0.4107 -0.0968
  130MOL   C12349401   2.246   0.980   4.084 -0.0033 -0.8498  0.0351
  130MOL   C12449402   2.504   0.965   4.247 -0.2864  0.5927 -0.3058
  130MOL   H12549403   2.397   0.807   4.340  0.6143  0.5381  0.0452
  130MOL   H12649404   2.173   0.720   4.288  4.0442  0.1709 -0.6020
  130MOL   H12749405   1.942   0.780   4.208 -1.2964 -0.0265  0.3480
  130MOL   H12849406   1.870   1.021   3.931 -0.1737  0.1813 -0.3666
  130MOL   H12949407   1.814   0.867   4.006 -1.2911  1.1194 -0.0809
  130MOL   H13049408   1.810   1.012   4.100 -0.2888  0.6626 -0.9792
  130MOL   H13149409   2.105   1.090   3.953 -0.8840  1.3039  0.8982
  130MOL   H13249410   2.333   1.030   4.044 -0.3377 -0.1634  0.1415
  130MOL   H13349411   2.531   1.004   4.148  1.3244  0.2059 -0.0346
  130MOL   H13449412   2.594   0.921   4.289 -1.3684 -2.6875 -1.3068
  130MOL   C13549413   2.450   1.076   4.345 -0.0637 -0.6823 -0.6257
  130MOL   C13649414   2.535   1.201   4.345  0.7027  0.1963 -0.3774
  130MOL   C13749415   2.479   1.326   4.392 -0.3932  0.1127 -0.2986
  130MOL   C13849416   2.554   1.441   4.401  0.0849  0.0173  0.0737
  130MOL   C13949417   2.696   1.434   4.368 -0.1094  0.0093 -0.3501
  130MOL   C14049418   2.782   1.558   4.371  0.0793 -0.4992  0.4051
  130MOL   C14149419   2.755   1.310   4.340  0.0482  0.1217  0.2463
  130MOL   C14249420   2.671   1.196   4.333 -0.3624  0.2884  0.3539
  130MOL   C14349421   2.426   1.022   4.494  0.0384 -0.2883  0.4139
  130MOL   H14449422   2.352   1.097   4.303 -1.7674  0.3788  3.5568
  130MOL   H14549423   2.375   1.329   4.421 -0.3067  1.6122 -0.0892
  130MOL   H14649424   2.519   1.534   4.443  1.3096  0.6192 -0.1809
  130MOL   H14749425   2.729   1.646   4.409  0.2559 -0.4922  0.6324
  130MOL   H14849426   2.876   1.541   4.423  0.9553  0.0552 -0.9675
  130MOL   H14949427   2.802   1.583   4.266 -1.1110 -1.0755  0.0257
  130MOL   H15049428   2.861   1.313   4.317 -0.1459  1.3647 -0.4904
  130MOL   H15149429   2.717   1.103   4.303  1.1985  0.8742  0.8737
  130MOL   H15249430   2.454   1.102   4.563  0.6975 -0.7376  0.6743
  130MOL   H15349431   2.489   0.934   4.504 -0.2433 -0.7370 -1.5217
  130MOL   C15449432   2.277   0.993   4.524  0.3879  0.0129  0.7677
  130MOL   C15549433   2.185   1.115   4.541 -0.2832 -0.1882 -0.8028
  130MOL   C15649434   2.211   1.206   4.647 -0.1583 -0.6804 -0.0448
  130MOL   C15749435   2.127   1.320   4.671  0.4648 -0.0350  0.4032
  130MOL   C15849436   2.023   1.347   4.579  0.2024  0.3356 -0.8993
  130MOL   C15949437   1.925   1.465   4.600  0.6103  0.3362 -0.3766
  130MOL   C16049438   2.006   1.252   4.473 -1.1009  0.3993 -0.2057
  130MOL   C16149439   2.084   1.142   4.448 -0.3354 -0.1673 -0.6047
  130MOL   C16249440   2.272   0.904   4.649 -0.1307 -0.1535  0.5594
  130MOL   H16349441   2.242   0.934   4.439  2.9178  1.1275 -1.1504
  130MOL   H16449442   2.292   1.180   4.714  0.5511  1.6203  0.0224
  130MOL   H16549443   2.148   1.395   4.746 -0.9155  1.0990 -0.3178
  130MOL   H16649444   1.822   1.428   4.597  0.2706  1.3196 -0.9569
  130MOL   H16749445   1.941   1.508   4.699 -0.1287  0.9152 -0.5035
  130MOL   H16849446   1.950   1.549   4.535 -1.2626  0.9571 -0.3224
  130MOL   H16949447   1.927   1.271   4.402 -0.0954  1.3110 -1.0957
  130MOL   H17049448   2.063   1.075   4.366  0.9653 -0.1573 -0.9625
  130MOL   H17149449   2.308   0.953   4.739 -0.3054  1.3396 -0.1607
  130MOL   H17249450   2.337   0.818   4.635 -1.8562 -1.2558 -0.8596
  130MOL   C17349451   2.139   0.832   4.691  0.4706  0.0748 -0.2361
  130MOL   C17449452   2.142   0.802   4.839 -0.1407 -0.8128  0.1660
  130MOL   C17549453   2.252   0.732   4.892 -0.1890 -0.0908 -0.5233
  130MOL   C17649454   2.263   0.725   5.031 -0.9383 -0.0249 -0.2851
  130MOL   C17749455   2.168   0.787   5.117 -0.2171  0.6736 -0.6986
  130MOL   C17849456   2.192   0.785   5.263  0.3336  0.3283 -0.2420
  130MOL   C17949457   2.062   0.858   5.065  0.3058 -0.3333  1.1001
  130MOL   C18049458   2.048   0.865   4.926  0.0988  0.1686 -0.3731
  130MOL   C18149459   2.108   0.706   4.605  0.1773 -0.2985  0.3990
  130MOL   H18249460   2.063   0.908   4.673  0.3841 -0.1287 -0.7540
  130MOL   H18349461   2.329   0.687   4.831  0.9873 -3.0234  2.8845
  130MOL   H18449462   2.342   0.671   5.082  0.7922  2.1612 -0.5349
  130MOL   H18549463   2.168   0.881   5.308  4.6139  0.0614  2.9070
  130MOL   H18649464   2.135   0.716   5.324  0.8943 -1.9141 -2.1369
  130MOL   H18749465   2.298   0.773   5.288  0.3558  1.7924  0.3756
  130MOL   H18849466   1.991   0.912   5.127  0.5921  1.3835 -0.0285
  130MOL   H18949467   1.968   0.922   4.881 -1.0795 -0.0056  1.4495
  130MOL   H19049468   2.156   0.625   4.660  2.5693  0.9247  0.1706
  130MOL   H19149469   2.161   0.709   4.510  0.2232  1.6131  0.4668
  130MOL   C19249470   1.953   0.680   4.599  0.3359 -0.2732 -0.0976
  130MOL   C19349471   1.920   0.531   4.579  0.1036  0.9961 -0.8766
  130MOL   C19449472   1.985   0.468   4.476 -0.0626 -0.3645  0.2802
  130MOL   C19549473   1.945   0.337   4.448 -0.5062 -0.6276  0.4019
  130MOL   C19649474   1.845   0.269   4.518 -0.4726 -0.1534  0.3753
  130MOL   C19749475   1.802   0.131   4.476  0.1692  0.6816  0.8259
  130MOL   C19849476   1.775   0.337   4.612  0.1147 -0.9022 -0.1970
  130MOL   C19949477   1.811   0.465   4.646 -1.0328 -0.3056 -0.0105
  130MOL   C20049478   1.866   0.774   4.512  0.4328  0.3782  0.4219
  130MOL   H20149479   1.916   0.698   4.700  0.2796 -0.7369 -0.0352
  130MOL   H20249480   2.050   0.525   4.412 -1.2585  0.7818  0.0598
  130MOL   H20349481   1.990   0.303   4.356 -0.9843  2.6079 -1.0889
  130MOL   H20449482   1.718   0.101   4.540  0.1270 -1.5885 -0.2376
  130MOL   H20549483   1.750   0.124   4.381  1.4300  0.0716  0.1755
  130MOL   H20649484   1.879   0.055   4.485 -0.7805 -0.3304  0.5038
  130MOL   H20749485   1.696   0.293   4.672 -0.4848  0.9541  0.3973
  130MOL   H20849486   1.767   0.499   4.739 -3.0414  0.3483 -1.1761
  130MOL   H20949487   1.888   0.742   4.410  0.9635  0.9280  0.3611
  130MOL   H21049488   1.903   0.876   4.519  2.2337 -0.0709 -1.8113
  130MOL   C21149489   1.712   0.767   4.519 -0.3907 -0.5859 -0.1218
  130MOL   C21249490   1.650   0.755   4.379  0.1586 -0.0130  0.2894
  130MOL   C21349491   1.590   0.866   4.316  0.2077 -0.8976 -0.7760
  130MOL   C21449492   1.558   0.866   4.180 -1.0611  0.2817 -0.2520
  130MOL   C21549493   1.575   0.748   4.100 -0.0606  1.0070  0.1644
  130MOL   C21649494   1.546   0.734   3.955 -0.4472  0.1036 -0.1235
  130MOL   C21749495   1.611   0.633   4.168  0.2380 -0.8372 -0.5129
  130MOL   C21849496   1.651   0.634   4.308 -0.2716 -0.0353  0.2957
  130MOL   C21949497   1.655   0.887   4.596 -0.3074  0.1518  0.6787
  130MOL   H22049498   1.680   0.678   4.573  0.5052 -2.0962 -2.0493
  130MOL   H22149499   1.574   0.960   4.367  1.2427 -1.5879  0.8792
  130MOL   H22249500   1.527   0.966   4.152 -1.3577  0.6402  1.3378
  130MOL   H22349501   1.441   0.728   3.926  0.2211 -2.1799 -2.3034
  130MOL   H22449502   1.593   0.820   3.907  1.1473 -0.7334 -0.0896
  130MOL   H22549503   1.614   0.656   3.919  0.3062  0.8968 -0.4326
  130MOL   H22649504   1.623   0.541   4.112  1.4094 -0.9655 -0.0701
  130MOL   H22749505   1.701   0.545   4.343  0.7499  0.6204  0.5127
  130MOL   H22849506   1.678   0.980   4.544  1.3402  0.2469  1.5298
  130MOL   H22949507   1.712   0.905   4.687 -1.1077 -0.4278  1.3078
  130MOL   C23049508   1.506   0.879   4.644  0.4171  0.2255  0.1638
  130MOL   C23149509   1.447   1.018   4.666  0.3440  0.5619  0.1672
  130MOL   C23249510   1.345   1.072   4.578 -0.2635  0.6909  0.3467
  130MOL   C23349511   1.288   1.195   4.603  0.2429  0.4736 -0.1962
  130MOL   C23449512   1.330   1.279   4.714  0.3506 -0.5614  0.4044
  130MOL   C23549513   1.260   1.410   4.762 -0.6358 -0.0543  0.7887
  130MOL   C23649514   1.425   1.221   4.790  0.1509 -0.1113 -0.4852
  130MOL   C23749515   1.490   1.095   4.774  1.1542  0.1307  0.5507
  130MOL   C23849516   1.498   0.786   4.763  0.3892  0.1337  0.1802
  130MOL   H23949517   1.448   0.820   4.573  1.1769 -1.5206  0.9710
  130MOL   H24049518   1.312   1.023   4.488  1.3039  0.8454 -0.3300
  130MOL   H24149519   1.204   1.227   4.542  0.4205 -0.3318 -0.8787
  130MOL   H24249520   1.179   1.386   4.831 -1.7247 -1.9240 -1.0784
  130MOL   H24349521   1.329   1.471   4.819 -1.5507  0.5143  1.2952
  130MOL   H24449522   1.223   1.472   4.680 -0.0797 -1.8243 -0.8674
  130MOL   H24549523   1.453   1.279   4.877  1.2453  0.6615 -1.3395
  130MOL   H24649524   1.563   1.051   4.842 -0.4282 -0.9177  1.6171
  130MOL   H24749525   1.561   0.825   4.843  0.1815  1.7654 -0.4299
  130MOL   H24849526   1.527   0.687   4.728 -0.9029  0.8359 -3.0092
  130MOL   C24949527   1.356   0.780   4.822 -0.0021 -0.0765 -0.0921
  130MOL   C25049528   1.362   0.686   4.945 -0.5984  0.3051 -0.4550
  130MOL   C25149529   1.394   0.547   4.940  0.2880  0.2445  0.0924
  130MOL   C25249530   1.393   0.467   5.052 -0.6784  0.4783 -0.5838
  130MOL   C25349531   1.342   0.518   5.175  0.0599  0.3987  0.2094
  130MOL   C25449532   1.344   0.430   5.300 -0.3931 -0.0653 -0.2263
  130MOL   C25549533   1.300   0.647   5.177  0.2132  0.3806  0.2736
  130MOL   C25649534   1.307   0.733   5.063 -0.6455  0.2386  0.2753
  130MOL   C25749535   1.250   0.727   4.724  0.2529 -1.2352  0.2154
  130MOL   H25849536   1.336   0.884   4.846  0.8711  0.0811 -0.0325
  130MOL   H25949537   1.425   0.507   4.844  0.8640  1.9938 -0.4697
  130MOL   H26049538   1.423   0.364   5.042  0.6626  0.9824 -1.9533
  130MOL   H26149539   1.390   0.332   5.292  2.0793  0.8441  1.7864
  130MOL   H26249540   1.396   0.478   5.383 -2.0160  0.4054  0.5418
  130MOL   H26349541   1.241   0.411   5.329  0.0338 -2.2956 -0.0791
  130MOL   H26449542   1.263   0.689   5.270  1.8452  0.1448  1.0397
  130MOL   H26549543   1.265   0.828   5.090  0.9328  0.9838  0.1649
  130MOL   H26649544   1.266   0.621   4.703  0.0299 -1.2248 -0.0175
  130MOL   H26749545   1.258   0.781   4.630  0.7237  0.2509  1.1026
  130MOL   C26849546   1.105   0.727   4.774  0.1477  0.3499  0.7101
  130MOL   C26949547   1.031   0.631   4.685 -0.9449  0.0781  0.2845
  130MOL   C27049548   0.995   0.667   4.555 -0.4350 -0.1365 -0.3034
  130MOL   C27149549   0.923   0.580   4.470  0.5111  0.3247 -0.0994
  130MOL   C27249550   0.886   0.454   4.524  0.3632 -0.5472  0.0490
  130MOL   C27349551   0.821   0.353   4.442 -0.4941  0.1374  0.7300
  130MOL   C27449552   0.918   0.426   4.661  0.0258 -0.9239 -0.2841
  130MOL   C27549553   0.994   0.513   4.734 -0.1043 -0.2267 -0.1901
  130MOL   C27649554   1.053   0.875   4.773 -0.2419  0.1805  0.3508
  130MOL   H27749555   1.113   0.677   4.870 -1.4001 -2.2304 -0.4606
  130MOL   H27849556   1.014   0.771   4.538  0.3247  0.7036  4.9148
  130MOL   H27949557   0.897   0.612   4.370 -2.1111  0.4601  0.5848
  130MOL   H28049558   0.864   0.260   4.479 -2.0642 -0.7370  0.3946
  130MOL   H28149559   0.713   0.360   4.441 -0.6350 -1.7264 -0.7556
  130MOL   H28249560   0.856   0.375   4.341 -0.0147 -0.2890  0.8016
  130MOL   H28349561   0.876   0.335   4.702  1.6469 -1.7169 -0.3365
  130MOL   H28449562   1.019   0.489   4.836  1.1399  1.7177 -0.0166
  130MOL   H28549563   1.071   0.928   4.680  1.7969  0.4224  0.8761
  130MOL   H28649564   1.126   0.920   4.839 -0.3522  0.3760  0.3394
  130MOL   C28749565   0.915   0.908   4.829  0.8568  0.3802 -0.2240
  130MOL   C28849566   0.930   1.052   4.886  0.1785  1.1481  0.1153
  130MOL   C28949567   0.883   1.171   4.821 -0.4844  0.4583 -0.1103
  130MOL   C29049568   0.894   1.301   4.880 -0.5183  0.4454 -0.2270
  130MOL   C29149569   0.952   1.316   5.006  0.0609  0.0949 -0.6207
  130MOL   C29249570   0.970   1.449   5.082 -0.2915 -0.4108  0.9170
  130MOL   C29349571   0.996   1.200   5.069 -0.6638 -0.2491 -0.6608
  130MOL   C29449572   0.976   1.073   5.016  0.0634 -0.0250  0.1168
  130MOL   C29549573   0.859   0.806   4.934  0.1599 -0.6848 -0.1424
  130MOL   H29649574   0.840   0.907   4.750  1.0273 -1.2139 -0.3850
  130MOL   H29749575   0.833   1.161   4.726  0.0270  0.4843 -0.3818
  130MOL   H29849576   0.850   1.389   4.836 -2.1147  0.5285  1.4917
  130MOL   H29949577   0.878   1.482   5.128 -0.6962 -1.3988  0.8356
  130MOL   H30049578   1.034   1.420   5.166 -0.8782 -0.2238  1.4273
  130MOL   H30149579   1.018   1.514   5.009  0.8013 -1.5568  0.5905
  130MOL   H30249580   1.034   1.206   5.170 -0.5301  0.6539 -0.7605
  130MOL   H30349581   1.006   0.987   5.074 -0.6350 -1.2664 -1.3527
  130MOL   H30449582   0.929   0.797   5.018  1.9578 -2.0798 -1.7340
  130MOL   H30549583   0.854   0.710   4.883 -1.2713  0.5487 -2.3785
  130MOL   C30649584   0.713   0.845   4.969 -0.5413  0.0997  0.8475
  130MOL   C30749585   0.710   0.949   5.084 -1.4071 -0.8521  0.2373
  130MOL   C30849586   0.657   1.078   5.057 -0.2714  0.7560 -0.8002
  130MOL   C30949587   0.648   1.174   5.155 -0.2165 -0.0585 -0.8267
  130MOL   C31049588   0.704   1.151   5.282 -0.2348 -0.1782 -0.1420
  130MOL   C31149589   0.692   1.251   5.397  0.0174 -0.4454 -0.6165
  130MOL   C31249590   0.766   1.027   5.303 -0.8281  0.0490  0.7602
  130MOL   C31349591   0.774   0.925   5.206  0.1489  0.5423 -0.6881
  130MOL   C31449592   0.647   0.716   5.018  0.1496 -0.7167  0.6787
  130MOL   H31549593   0.658   0.884   4.884  2.1558 -3.2389 -2.6280
  130MOL   H31649594   0.607   1.101   4.964 -0.7646  0.6784 -0.5556
  130MOL   H31749595   0.603   1.270   5.131  1.4542  1.1085  0.5635
  130MOL   H31849596   0.590   1.288   5.401  0.1122  0.0433 -2.4123
  130MOL   H31949597   0.717   1.203   5.491 -1.1627 -3.2944 -1.7139
  130MOL   H32049598   0.744   1.345   5.375 -0.2268 -0.4318 -1.1437
  130MOL   H32149599   0.810   1.018   5.402 -1.5925  0.8311  1.1803
  130MOL   H32249600   0.831   0.834   5.220 -0.5991 -0.1661 -2.0830
  130MOL   H32349601   0.561   0.749   5.076  1.2884 -0.3540  2.1951
  130MOL   H32449602   0.712   0.668   5.091  1.4264 -1.0308 -0.6399
  130MOL   C32549603   0.595   0.612   4.918 -0.5211 -0.4518  0.0249
  130MOL   C32649604   0.516   0.669   4.799 -0.4010  0.1867  0.9892
  130MOL   C32749605   0.583   0.665   4.673  0.8862 -0.0001  0.0974
  130MOL   C32849606   0.524   0.719   4.555 -0.6510 -0.0401 -0.2867
  130MOL   C32949607   0.403   0.787   4.564  0.5566 -0.4873  0.6916
  130MOL   C33049608   0.346   0.847   4.437  0.4380  0.1155  0.1097
  130MOL   C33149609   0.332   0.787   4.687 -0.6036  0.3424 -0.3107
  130MOL   C33249610   0.391   0.731   4.808 -0.2767 -0.3118  0.5107
  130MOL   C33349611   0.506   0.500   4.988 -1.0522 -0.0591  0.2239
  130MOL   H33449612   0.688   0.567   4.883  0.1830 -1.0210  2.4887
  130MOL   H33549613   0.684   0.625   4.673  0.6988 -0.4896  0.8727
  130MOL   H33649614   0.582   0.713   4.465  2.9051 -0.8471  1.9520
  130MOL   H33749615   0.401   0.935   4.404 -0.4624 -0.5140 -3.2106
  130MOL   H33849616   0.352   0.770   4.360  1.6034  0.1073  0.2005
  130MOL   H33949617   0.239   0.865   4.430  0.3489 -0.8208 -1.1923
  130MOL   H34049618   0.241   0.843   4.697 -0.8189  0.0966 -0.8504
  130MOL   H34149619   0.332   0.737   4.898 -0.0633  1.2112  0.5621
  130MOL   H34249620   0.489   0.423   4.914 -1.3614 -0.1285  0.3686
  130MOL   H34349621   0.411   0.545   5.016 -1.8531 -1.8291  0.3609
  130MOL   C34449622   0.576   0.433   5.109 -0.5947  0.3403 -0.3045
  130MOL   C34549623   0.712   0.376   5.064  0.0723  0.0463 -0.2686
  130MOL   C34649624   0.716   0.267   4.969  0.7287  0.1908  0.1864
  130MOL   C34749625   0.836   0.215   4.925  0.5004  0.2051  0.1238
  130MOL   C34849626   0.957   0.258   4.981 -0.8029  0.0107 -0.1077
  130MOL   C34949627   1.088   0.196   4.931  0.5968 -0.6982 -0.3309
  130MOL   C35049628   0.952   0.368   5.075  0.1235 -0.1878  0.1504
  130MOL   C35149629   0.831   0.426   5.116  0.4837 -0.2417  0.0452
  130MOL   C35249630   0.476   0.327   5.166  0.2514  0.9898 -0.6034
  130MOL   H35349631   0.577   0.510   5.187 -0.6503 -0.7412  0.7845
  130MOL   H35449632   0.625   0.225   4.929 -0.7858  0.5474  3.1217
  130MOL   H35549633   0.835   0.127   4.862 -0.4952  1.2102 -1.3118
  130MOL   H35649634   1.092   0.091   4.903  2.9041 -0.4172 -1.1346
  130MOL   H35749635   1.125   0.254   4.846  0.7159 -1.8953 -1.1102
  130MOL   H35849636   1.164   0.196   5.008  0.6983  1.4374 -0.3887
  130MOL   H35949637   1.043   0.405   5.121  0.6866  0.2487 -1.2638
  130MOL   H36049638   0.844   0.512   5.181  2.1412 -2.2363  2.4346
  130MOL   H36149639   0.441   0.261   5.086 -2.2458 -0.1066  1.3058
  130MOL   H36249640   0.390   0.371   5.217 -0.9377 -1.6002 -0.2553
  130MOL   C36349641   0.536   0.246   5.283  0.1165  1.0761 -0.2986
  130MOL   C36449642   0.427   0.140   5.312  0.4300  0.5575  1.0430
  130MOL   C36549643   0.336   0.145   5.420 -0.4441 -0.7387 -0.2290
  130MOL   C36649644   0.239   0.042   5.434 -0.1695 -0.5434 -0.1206
  130MOL   C36749645   0.250   8.009   5.351 -0.4666  0.2938 -1.0850
  130MOL   C36849646   0.144   7.899   5.367  0.1198 -0.3363  0.1533
  130MOL   C36949647   0.349   7.997   5.252 -0.4680  0.0407  0.2139
  130MOL   C37049648   0.434   0.028   5.228  0.4361 -0.1155  0.8083
  130MOL   C37149649   0.563   0.327   5.410 -0.0171  0.2220 -0.3924
  130MOL   H37249650   0.629   0.206   5.242  0.8229  1.8121  0.5516
  130MOL   H37349651   0.337   0.232   5.484  0.4548 -0.4135 -0.6727
  130MOL   H37449652   0.157   0.045   5.504 -0.6377 -1.2269 -0.6338
  130MOL   H37549653   0.179   7.811   5.420 -1.2796 -2.2696 -2.0115
  130MOL   H37649654   0.048   7.932   5.408  1.1408  3.6354 -0.4753
  130MOL   H37749655   0.119   7.861   5.267  0.8561  0.1483 -0.2219
  130MOL   H37849656   0.362   7.915   5.184  1.8668  1.5732 -1.2843
  130MOL   H37949657   0.507   0.026   5.148  0.0315  0.3782  0.4157
  130MOL   H38049658   0.636   0.404   5.384  0.0973  1.1806  2.5341
  130MOL   H38149659   0.614   0.272   5.489  0.8308 -0.6922 -1.5634
  130MOL   H38249660   0.481   0.391   5.442  1.3458  0.0826  3.6936
   8.07997   8.07997   8.07997
