;
; Gromacs include topology (itp) file.
; For Molecular Group XYZ
; Force field scheme: opls2005
; Produced from DL_FIELD v4.11
;


[ moleculetype ]
; name    nrexcl
XYZ    3

[ atoms ]
; nr   type   resnr   residu    atom    cgnr    charge    mass
    1        CT    1  MOL      C1     1  -0.0050000   12.0115
    2        CA    1  MOL      C2     2  -0.1150000   12.0115
    3        CA    1  MOL      C3     3  -0.1150000   12.0115
    4        CA    1  MOL      C4     4  -0.1150000   12.0115
    5        CA    1  MOL      C5     5  -0.1150000   12.0115
    6        CT    1  MOL      C6     6  -0.0650000   12.0115
    7        CA    1  MOL      C7     7  -0.1150000   12.0115
    8        CA    1  MOL      C8     8  -0.1150000   12.0115
    9        CT    1  MOL      C9     9  -0.1200000   12.0115
   10        HC    1  MOL     H10    10   0.0600000    1.0080
   11        HA    1  MOL     H11    11   0.1150000    1.0080
   12        HA    1  MOL     H12    12   0.1150000    1.0080
   13        HC    1  MOL     H13    13   0.0600000    1.0080
   14        HC    1  MOL     H14    14   0.0600000    1.0080
   15        HC    1  MOL     H15    15   0.0600000    1.0080
   16        HA    1  MOL     H16    16   0.1150000    1.0080
   17        HA    1  MOL     H17    17   0.1150000    1.0080
   18        HC    1  MOL     H18    18   0.0600000    1.0080
   19        HC    1  MOL     H19    19   0.0600000    1.0080
   20        HC    1  MOL     H20    20   0.0600000    1.0080
   21        CT    1  MOL     C21    21   0.0550000   12.0115
   22        CA    1  MOL     C22    22  -0.1150000   12.0115
   23        CA    1  MOL     C23    23  -0.1150000   12.0115
   24        CA    1  MOL     C24    24  -0.1150000   12.0115
   25        CA    1  MOL     C25    25  -0.1150000   12.0115
   26        CT    1  MOL     C26    26  -0.0650000   12.0115
   27        CA    1  MOL     C27    27  -0.1150000   12.0115
   28        CA    1  MOL     C28    28  -0.1150000   12.0115
   29        CT    1  MOL     C29    29  -0.1200000   12.0115
   30        HC    1  MOL     H30    30   0.0600000    1.0080
   31        HA    1  MOL     H31    31   0.1150000    1.0080
   32        HA    1  MOL     H32    32   0.1150000    1.0080
   33        HC    1  MOL     H33    33   0.0600000    1.0080
   34        HC    1  MOL     H34    34   0.0600000    1.0080
   35        HC    1  MOL     H35    35   0.0600000    1.0080
   36        HA    1  MOL     H36    36   0.1150000    1.0080
   37        HA    1  MOL     H37    37   0.1150000    1.0080
   38        HC    1  MOL     H38    38   0.0600000    1.0080
   39        HC    1  MOL     H39    39   0.0600000    1.0080
   40        CT    1  MOL     C40    40   0.0550000   12.0115
   41        CA    1  MOL     C41    41  -0.1150000   12.0115
   42        CA    1  MOL     C42    42  -0.1150000   12.0115
   43        CA    1  MOL     C43    43  -0.1150000   12.0115
   44        CA    1  MOL     C44    44  -0.1150000   12.0115
   45        CT    1  MOL     C45    45  -0.0650000   12.0115
   46        CA    1  MOL     C46    46  -0.1150000   12.0115
   47        CA    1  MOL     C47    47  -0.1150000   12.0115
   48        CT    1  MOL     C48    48  -0.1200000   12.0115
   49        HC    1  MOL     H49    49   0.0600000    1.0080
   50        HA    1  MOL     H50    50   0.1150000    1.0080
   51        HA    1  MOL     H51    51   0.1150000    1.0080
   52        HC    1  MOL     H52    52   0.0600000    1.0080
   53        HC    1  MOL     H53    53   0.0600000    1.0080
   54        HC    1  MOL     H54    54   0.0600000    1.0080
   55        HA    1  MOL     H55    55   0.1150000    1.0080
   56        HA    1  MOL     H56    56   0.1150000    1.0080
   57        HC    1  MOL     H57    57   0.0600000    1.0080
   58        HC    1  MOL     H58    58   0.0600000    1.0080
   59        CT    1  MOL     C59    59   0.0550000   12.0115
   60        CA    1  MOL     C60    60  -0.1150000   12.0115
   61        CA    1  MOL     C61    61  -0.1150000   12.0115
   62        CA    1  MOL     C62    62  -0.1150000   12.0115
   63        CA    1  MOL     C63    63  -0.1150000   12.0115
   64        CT    1  MOL     C64    64  -0.0650000   12.0115
   65        CA    1  MOL     C65    65  -0.1150000   12.0115
   66        CA    1  MOL     C66    66  -0.1150000   12.0115
   67        CT    1  MOL     C67    67  -0.1200000   12.0115
   68        HC    1  MOL     H68    68   0.0600000    1.0080
   69        HA    1  MOL     H69    69   0.1150000    1.0080
   70        HA    1  MOL     H70    70   0.1150000    1.0080
   71        HC    1  MOL     H71    71   0.0600000    1.0080
   72        HC    1  MOL     H72    72   0.0600000    1.0080
   73        HC    1  MOL     H73    73   0.0600000    1.0080
   74        HA    1  MOL     H74    74   0.1150000    1.0080
   75        HA    1  MOL     H75    75   0.1150000    1.0080
   76        HC    1  MOL     H76    76   0.0600000    1.0080
   77        HC    1  MOL     H77    77   0.0600000    1.0080
   78        CT    1  MOL     C78    78   0.0550000   12.0115
   79        CA    1  MOL     C79    79  -0.1150000   12.0115
   80        CA    1  MOL     C80    80  -0.1150000   12.0115
   81        CA    1  MOL     C81    81  -0.1150000   12.0115
   82        CA    1  MOL     C82    82  -0.1150000   12.0115
   83        CT    1  MOL     C83    83  -0.0650000   12.0115
   84        CA    1  MOL     C84    84  -0.1150000   12.0115
   85        CA    1  MOL     C85    85  -0.1150000   12.0115
   86        CT    1  MOL     C86    86  -0.1200000   12.0115
   87        HC    1  MOL     H87    87   0.0600000    1.0080
   88        HA    1  MOL     H88    88   0.1150000    1.0080
   89        HA    1  MOL     H89    89   0.1150000    1.0080
   90        HC    1  MOL     H90    90   0.0600000    1.0080
   91        HC    1  MOL     H91    91   0.0600000    1.0080
   92        HC    1  MOL     H92    92   0.0600000    1.0080
   93        HA    1  MOL     H93    93   0.1150000    1.0080
   94        HA    1  MOL     H94    94   0.1150000    1.0080
   95        HC    1  MOL     H95    95   0.0600000    1.0080
   96        HC    1  MOL     H96    96   0.0600000    1.0080
   97        CT    1  MOL     C97    97   0.0550000   12.0115
   98        CA    1  MOL     C98    98  -0.1150000   12.0115
   99        CA    1  MOL     C99    99  -0.1150000   12.0115
  100        CA    1  MOL    C100   100  -0.1150000   12.0115
  101        CA    1  MOL    C101   101  -0.1150000   12.0115
  102        CT    1  MOL    C102   102  -0.0650000   12.0115
  103        CA    1  MOL    C103   103  -0.1150000   12.0115
  104        CA    1  MOL    C104   104  -0.1150000   12.0115
  105        CT    1  MOL    C105   105  -0.1200000   12.0115
  106        HC    1  MOL    H106   106   0.0600000    1.0080
  107        HA    1  MOL    H107   107   0.1150000    1.0080
  108        HA    1  MOL    H108   108   0.1150000    1.0080
  109        HC    1  MOL    H109   109   0.0600000    1.0080
  110        HC    1  MOL    H110   110   0.0600000    1.0080
  111        HC    1  MOL    H111   111   0.0600000    1.0080
  112        HA    1  MOL    H112   112   0.1150000    1.0080
  113        HA    1  MOL    H113   113   0.1150000    1.0080
  114        HC    1  MOL    H114   114   0.0600000    1.0080
  115        HC    1  MOL    H115   115   0.0600000    1.0080
  116        CT    1  MOL    C116   116   0.0550000   12.0115
  117        CA    1  MOL    C117   117  -0.1150000   12.0115
  118        CA    1  MOL    C118   118  -0.1150000   12.0115
  119        CA    1  MOL    C119   119  -0.1150000   12.0115
  120        CA    1  MOL    C120   120  -0.1150000   12.0115
  121        CT    1  MOL    C121   121  -0.0650000   12.0115
  122        CA    1  MOL    C122   122  -0.1150000   12.0115
  123        CA    1  MOL    C123   123  -0.1150000   12.0115
  124        CT    1  MOL    C124   124  -0.1200000   12.0115
  125        HC    1  MOL    H125   125   0.0600000    1.0080
  126        HA    1  MOL    H126   126   0.1150000    1.0080
  127        HA    1  MOL    H127   127   0.1150000    1.0080
  128        HC    1  MOL    H128   128   0.0600000    1.0080
  129        HC    1  MOL    H129   129   0.0600000    1.0080
  130        HC    1  MOL    H130   130   0.0600000    1.0080
  131        HA    1  MOL    H131   131   0.1150000    1.0080
  132        HA    1  MOL    H132   132   0.1150000    1.0080
  133        HC    1  MOL    H133   133   0.0600000    1.0080
  134        HC    1  MOL    H134   134   0.0600000    1.0080
  135        CT    1  MOL    C135   135   0.0550000   12.0115
  136        CA    1  MOL    C136   136  -0.1150000   12.0115
  137        CA    1  MOL    C137   137  -0.1150000   12.0115
  138        CA    1  MOL    C138   138  -0.1150000   12.0115
  139        CA    1  MOL    C139   139  -0.1150000   12.0115
  140        CT    1  MOL    C140   140  -0.0650000   12.0115
  141        CA    1  MOL    C141   141  -0.1150000   12.0115
  142        CA    1  MOL    C142   142  -0.1150000   12.0115
  143        CT    1  MOL    C143   143  -0.1200000   12.0115
  144        HC    1  MOL    H144   144   0.0600000    1.0080
  145        HA    1  MOL    H145   145   0.1150000    1.0080
  146        HA    1  MOL    H146   146   0.1150000    1.0080
  147        HC    1  MOL    H147   147   0.0600000    1.0080
  148        HC    1  MOL    H148   148   0.0600000    1.0080
  149        HC    1  MOL    H149   149   0.0600000    1.0080
  150        HA    1  MOL    H150   150   0.1150000    1.0080
  151        HA    1  MOL    H151   151   0.1150000    1.0080
  152        HC    1  MOL    H152   152   0.0600000    1.0080
  153        HC    1  MOL    H153   153   0.0600000    1.0080
  154        CT    1  MOL    C154   154   0.0550000   12.0115
  155        CA    1  MOL    C155   155  -0.1150000   12.0115
  156        CA    1  MOL    C156   156  -0.1150000   12.0115
  157        CA    1  MOL    C157   157  -0.1150000   12.0115
  158        CA    1  MOL    C158   158  -0.1150000   12.0115
  159        CT    1  MOL    C159   159  -0.0650000   12.0115
  160        CA    1  MOL    C160   160  -0.1150000   12.0115
  161        CA    1  MOL    C161   161  -0.1150000   12.0115
  162        CT    1  MOL    C162   162  -0.1200000   12.0115
  163        HC    1  MOL    H163   163   0.0600000    1.0080
  164        HA    1  MOL    H164   164   0.1150000    1.0080
  165        HA    1  MOL    H165   165   0.1150000    1.0080
  166        HC    1  MOL    H166   166   0.0600000    1.0080
  167        HC    1  MOL    H167   167   0.0600000    1.0080
  168        HC    1  MOL    H168   168   0.0600000    1.0080
  169        HA    1  MOL    H169   169   0.1150000    1.0080
  170        HA    1  MOL    H170   170   0.1150000    1.0080
  171        HC    1  MOL    H171   171   0.0600000    1.0080
  172        HC    1  MOL    H172   172   0.0600000    1.0080
  173        CT    1  MOL    C173   173   0.0550000   12.0115
  174        CA    1  MOL    C174   174  -0.1150000   12.0115
  175        CA    1  MOL    C175   175  -0.1150000   12.0115
  176        CA    1  MOL    C176   176  -0.1150000   12.0115
  177        CA    1  MOL    C177   177  -0.1150000   12.0115
  178        CT    1  MOL    C178   178  -0.0650000   12.0115
  179        CA    1  MOL    C179   179  -0.1150000   12.0115
  180        CA    1  MOL    C180   180  -0.1150000   12.0115
  181        CT    1  MOL    C181   181  -0.1200000   12.0115
  182        HC    1  MOL    H182   182   0.0600000    1.0080
  183        HA    1  MOL    H183   183   0.1150000    1.0080
  184        HA    1  MOL    H184   184   0.1150000    1.0080
  185        HC    1  MOL    H185   185   0.0600000    1.0080
  186        HC    1  MOL    H186   186   0.0600000    1.0080
  187        HC    1  MOL    H187   187   0.0600000    1.0080
  188        HA    1  MOL    H188   188   0.1150000    1.0080
  189        HA    1  MOL    H189   189   0.1150000    1.0080
  190        HC    1  MOL    H190   190   0.0600000    1.0080
  191        HC    1  MOL    H191   191   0.0600000    1.0080
  192        CT    1  MOL    C192   192   0.0550000   12.0115
  193        CA    1  MOL    C193   193  -0.1150000   12.0115
  194        CA    1  MOL    C194   194  -0.1150000   12.0115
  195        CA    1  MOL    C195   195  -0.1150000   12.0115
  196        CA    1  MOL    C196   196  -0.1150000   12.0115
  197        CT    1  MOL    C197   197  -0.0650000   12.0115
  198        CA    1  MOL    C198   198  -0.1150000   12.0115
  199        CA    1  MOL    C199   199  -0.1150000   12.0115
  200        CT    1  MOL    C200   200  -0.1200000   12.0115
  201        HC    1  MOL    H201   201   0.0600000    1.0080
  202        HA    1  MOL    H202   202   0.1150000    1.0080
  203        HA    1  MOL    H203   203   0.1150000    1.0080
  204        HC    1  MOL    H204   204   0.0600000    1.0080
  205        HC    1  MOL    H205   205   0.0600000    1.0080
  206        HC    1  MOL    H206   206   0.0600000    1.0080
  207        HA    1  MOL    H207   207   0.1150000    1.0080
  208        HA    1  MOL    H208   208   0.1150000    1.0080
  209        HC    1  MOL    H209   209   0.0600000    1.0080
  210        HC    1  MOL    H210   210   0.0600000    1.0080
  211        CT    1  MOL    C211   211   0.0550000   12.0115
  212        CA    1  MOL    C212   212  -0.1150000   12.0115
  213        CA    1  MOL    C213   213  -0.1150000   12.0115
  214        CA    1  MOL    C214   214  -0.1150000   12.0115
  215        CA    1  MOL    C215   215  -0.1150000   12.0115
  216        CT    1  MOL    C216   216  -0.0650000   12.0115
  217        CA    1  MOL    C217   217  -0.1150000   12.0115
  218        CA    1  MOL    C218   218  -0.1150000   12.0115
  219        CT    1  MOL    C219   219  -0.1200000   12.0115
  220        HC    1  MOL    H220   220   0.0600000    1.0080
  221        HA    1  MOL    H221   221   0.1150000    1.0080
  222        HA    1  MOL    H222   222   0.1150000    1.0080
  223        HC    1  MOL    H223   223   0.0600000    1.0080
  224        HC    1  MOL    H224   224   0.0600000    1.0080
  225        HC    1  MOL    H225   225   0.0600000    1.0080
  226        HA    1  MOL    H226   226   0.1150000    1.0080
  227        HA    1  MOL    H227   227   0.1150000    1.0080
  228        HC    1  MOL    H228   228   0.0600000    1.0080
  229        HC    1  MOL    H229   229   0.0600000    1.0080
  230        CT    1  MOL    C230   230   0.0550000   12.0115
  231        CA    1  MOL    C231   231  -0.1150000   12.0115
  232        CA    1  MOL    C232   232  -0.1150000   12.0115
  233        CA    1  MOL    C233   233  -0.1150000   12.0115
  234        CA    1  MOL    C234   234  -0.1150000   12.0115
  235        CT    1  MOL    C235   235  -0.0650000   12.0115
  236        CA    1  MOL    C236   236  -0.1150000   12.0115
  237        CA    1  MOL    C237   237  -0.1150000   12.0115
  238        CT    1  MOL    C238   238  -0.1200000   12.0115
  239        HC    1  MOL    H239   239   0.0600000    1.0080
  240        HA    1  MOL    H240   240   0.1150000    1.0080
  241        HA    1  MOL    H241   241   0.1150000    1.0080
  242        HC    1  MOL    H242   242   0.0600000    1.0080
  243        HC    1  MOL    H243   243   0.0600000    1.0080
  244        HC    1  MOL    H244   244   0.0600000    1.0080
  245        HA    1  MOL    H245   245   0.1150000    1.0080
  246        HA    1  MOL    H246   246   0.1150000    1.0080
  247        HC    1  MOL    H247   247   0.0600000    1.0080
  248        HC    1  MOL    H248   248   0.0600000    1.0080
  249        CT    1  MOL    C249   249   0.0550000   12.0115
  250        CA    1  MOL    C250   250  -0.1150000   12.0115
  251        CA    1  MOL    C251   251  -0.1150000   12.0115
  252        CA    1  MOL    C252   252  -0.1150000   12.0115
  253        CA    1  MOL    C253   253  -0.1150000   12.0115
  254        CT    1  MOL    C254   254  -0.0650000   12.0115
  255        CA    1  MOL    C255   255  -0.1150000   12.0115
  256        CA    1  MOL    C256   256  -0.1150000   12.0115
  257        CT    1  MOL    C257   257  -0.1200000   12.0115
  258        HC    1  MOL    H258   258   0.0600000    1.0080
  259        HA    1  MOL    H259   259   0.1150000    1.0080
  260        HA    1  MOL    H260   260   0.1150000    1.0080
  261        HC    1  MOL    H261   261   0.0600000    1.0080
  262        HC    1  MOL    H262   262   0.0600000    1.0080
  263        HC    1  MOL    H263   263   0.0600000    1.0080
  264        HA    1  MOL    H264   264   0.1150000    1.0080
  265        HA    1  MOL    H265   265   0.1150000    1.0080
  266        HC    1  MOL    H266   266   0.0600000    1.0080
  267        HC    1  MOL    H267   267   0.0600000    1.0080
  268        CT    1  MOL    C268   268   0.0550000   12.0115
  269        CA    1  MOL    C269   269  -0.1150000   12.0115
  270        CA    1  MOL    C270   270  -0.1150000   12.0115
  271        CA    1  MOL    C271   271  -0.1150000   12.0115
  272        CA    1  MOL    C272   272  -0.1150000   12.0115
  273        CT    1  MOL    C273   273  -0.0650000   12.0115
  274        CA    1  MOL    C274   274  -0.1150000   12.0115
  275        CA    1  MOL    C275   275  -0.1150000   12.0115
  276        CT    1  MOL    C276   276  -0.1200000   12.0115
  277        HC    1  MOL    H277   277   0.0600000    1.0080
  278        HA    1  MOL    H278   278   0.1150000    1.0080
  279        HA    1  MOL    H279   279   0.1150000    1.0080
  280        HC    1  MOL    H280   280   0.0600000    1.0080
  281        HC    1  MOL    H281   281   0.0600000    1.0080
  282        HC    1  MOL    H282   282   0.0600000    1.0080
  283        HA    1  MOL    H283   283   0.1150000    1.0080
  284        HA    1  MOL    H284   284   0.1150000    1.0080
  285        HC    1  MOL    H285   285   0.0600000    1.0080
  286        HC    1  MOL    H286   286   0.0600000    1.0080
  287        CT    1  MOL    C287   287   0.0550000   12.0115
  288        CA    1  MOL    C288   288  -0.1150000   12.0115
  289        CA    1  MOL    C289   289  -0.1150000   12.0115
  290        CA    1  MOL    C290   290  -0.1150000   12.0115
  291        CA    1  MOL    C291   291  -0.1150000   12.0115
  292        CT    1  MOL    C292   292  -0.0650000   12.0115
  293        CA    1  MOL    C293   293  -0.1150000   12.0115
  294        CA    1  MOL    C294   294  -0.1150000   12.0115
  295        CT    1  MOL    C295   295  -0.1200000   12.0115
  296        HC    1  MOL    H296   296   0.0600000    1.0080
  297        HA    1  MOL    H297   297   0.1150000    1.0080
  298        HA    1  MOL    H298   298   0.1150000    1.0080
  299        HC    1  MOL    H299   299   0.0600000    1.0080
  300        HC    1  MOL    H300   300   0.0600000    1.0080
  301        HC    1  MOL    H301   301   0.0600000    1.0080
  302        HA    1  MOL    H302   302   0.1150000    1.0080
  303        HA    1  MOL    H303   303   0.1150000    1.0080
  304        HC    1  MOL    H304   304   0.0600000    1.0080
  305        HC    1  MOL    H305   305   0.0600000    1.0080
  306        CT    1  MOL    C306   306   0.0550000   12.0115
  307        CA    1  MOL    C307   307  -0.1150000   12.0115
  308        CA    1  MOL    C308   308  -0.1150000   12.0115
  309        CA    1  MOL    C309   309  -0.1150000   12.0115
  310        CA    1  MOL    C310   310  -0.1150000   12.0115
  311        CT    1  MOL    C311   311  -0.0650000   12.0115
  312        CA    1  MOL    C312   312  -0.1150000   12.0115
  313        CA    1  MOL    C313   313  -0.1150000   12.0115
  314        CT    1  MOL    C314   314  -0.1200000   12.0115
  315        HC    1  MOL    H315   315   0.0600000    1.0080
  316        HA    1  MOL    H316   316   0.1150000    1.0080
  317        HA    1  MOL    H317   317   0.1150000    1.0080
  318        HC    1  MOL    H318   318   0.0600000    1.0080
  319        HC    1  MOL    H319   319   0.0600000    1.0080
  320        HC    1  MOL    H320   320   0.0600000    1.0080
  321        HA    1  MOL    H321   321   0.1150000    1.0080
  322        HA    1  MOL    H322   322   0.1150000    1.0080
  323        HC    1  MOL    H323   323   0.0600000    1.0080
  324        HC    1  MOL    H324   324   0.0600000    1.0080
  325        CT    1  MOL    C325   325   0.0550000   12.0115
  326        CA    1  MOL    C326   326  -0.1150000   12.0115
  327        CA    1  MOL    C327   327  -0.1150000   12.0115
  328        CA    1  MOL    C328   328  -0.1150000   12.0115
  329        CA    1  MOL    C329   329  -0.1150000   12.0115
  330        CT    1  MOL    C330   330  -0.0650000   12.0115
  331        CA    1  MOL    C331   331  -0.1150000   12.0115
  332        CA    1  MOL    C332   332  -0.1150000   12.0115
  333        CT    1  MOL    C333   333  -0.1200000   12.0115
  334        HC    1  MOL    H334   334   0.0600000    1.0080
  335        HA    1  MOL    H335   335   0.1150000    1.0080
  336        HA    1  MOL    H336   336   0.1150000    1.0080
  337        HC    1  MOL    H337   337   0.0600000    1.0080
  338        HC    1  MOL    H338   338   0.0600000    1.0080
  339        HC    1  MOL    H339   339   0.0600000    1.0080
  340        HA    1  MOL    H340   340   0.1150000    1.0080
  341        HA    1  MOL    H341   341   0.1150000    1.0080
  342        HC    1  MOL    H342   342   0.0600000    1.0080
  343        HC    1  MOL    H343   343   0.0600000    1.0080
  344        CT    1  MOL    C344   344   0.0550000   12.0115
  345        CA    1  MOL    C345   345  -0.1150000   12.0115
  346        CA    1  MOL    C346   346  -0.1150000   12.0115
  347        CA    1  MOL    C347   347  -0.1150000   12.0115
  348        CA    1  MOL    C348   348  -0.1150000   12.0115
  349        CT    1  MOL    C349   349  -0.0650000   12.0115
  350        CA    1  MOL    C350   350  -0.1150000   12.0115
  351        CA    1  MOL    C351   351  -0.1150000   12.0115
  352        CT    1  MOL    C352   352  -0.1200000   12.0115
  353        HC    1  MOL    H353   353   0.0600000    1.0080
  354        HA    1  MOL    H354   354   0.1150000    1.0080
  355        HA    1  MOL    H355   355   0.1150000    1.0080
  356        HC    1  MOL    H356   356   0.0600000    1.0080
  357        HC    1  MOL    H357   357   0.0600000    1.0080
  358        HC    1  MOL    H358   358   0.0600000    1.0080
  359        HA    1  MOL    H359   359   0.1150000    1.0080
  360        HA    1  MOL    H360   360   0.1150000    1.0080
  361        HC    1  MOL    H361   361   0.0600000    1.0080
  362        HC    1  MOL    H362   362   0.0600000    1.0080
  363        CT    1  MOL    C363   363   0.0550000   12.0115
  364        CA    1  MOL    C364   364  -0.1150000   12.0115
  365        CA    1  MOL    C365   365  -0.1150000   12.0115
  366        CA    1  MOL    C366   366  -0.1150000   12.0115
  367        CA    1  MOL    C367   367  -0.1150000   12.0115
  368        CT    1  MOL    C368   368  -0.0650000   12.0115
  369        CA    1  MOL    C369   369  -0.1150000   12.0115
  370        CA    1  MOL    C370   370  -0.1150000   12.0115
  371        CT    1  MOL    C371   371  -0.1800000   12.0115
  372        HC    1  MOL    H372   372   0.0600000    1.0080
  373        HA    1  MOL    H373   373   0.1150000    1.0080
  374        HA    1  MOL    H374   374   0.1150000    1.0080
  375        HC    1  MOL    H375   375   0.0600000    1.0080
  376        HC    1  MOL    H376   376   0.0600000    1.0080
  377        HC    1  MOL    H377   377   0.0600000    1.0080
  378        HA    1  MOL    H378   378   0.1150000    1.0080
  379        HA    1  MOL    H379   379   0.1150000    1.0080
  380        HC    1  MOL    H380   380   0.0600000    1.0080
  381        HC    1  MOL    H381   381   0.0600000    1.0080
  382        HC    1  MOL    H382   382   0.0600000    1.0080

[ bonds ]
      1      2   1      0.1510 265265.6000
      1      9   1      0.1529 224262.4000
      1     10   1      0.1090 284512.0000
      1     20   1      0.1090 284512.0000
      2      3   1      0.1400 392459.2000
      2      8   1      0.1400 392459.2000
      3      4   1      0.1400 392459.2000
      3     11   1      0.1080 307105.6000
      4      5   1      0.1400 392459.2000
      4     12   1      0.1080 307105.6000
      5      6   1      0.1510 265265.6000
      5      7   1      0.1400 392459.2000
      6     13   1      0.1090 284512.0000
      6     14   1      0.1090 284512.0000
      6     15   1      0.1090 284512.0000
      7      8   1      0.1400 392459.2000
      7     16   1      0.1080 307105.6000
      8     17   1      0.1080 307105.6000
      9     18   1      0.1090 284512.0000
      9     19   1      0.1090 284512.0000
      9     21   1      0.1529 224262.4000
     21     22   1      0.1510 265265.6000
     21     29   1      0.1529 224262.4000
     21     30   1      0.1090 284512.0000
     22     23   1      0.1400 392459.2000
     22     28   1      0.1400 392459.2000
     23     24   1      0.1400 392459.2000
     23     31   1      0.1080 307105.6000
     24     25   1      0.1400 392459.2000
     24     32   1      0.1080 307105.6000
     25     26   1      0.1510 265265.6000
     25     27   1      0.1400 392459.2000
     26     33   1      0.1090 284512.0000
     26     34   1      0.1090 284512.0000
     26     35   1      0.1090 284512.0000
     27     28   1      0.1400 392459.2000
     27     36   1      0.1080 307105.6000
     28     37   1      0.1080 307105.6000
     29     38   1      0.1090 284512.0000
     29     39   1      0.1090 284512.0000
     29     40   1      0.1529 224262.4000
     40     41   1      0.1510 265265.6000
     40     48   1      0.1529 224262.4000
     40     49   1      0.1090 284512.0000
     41     42   1      0.1400 392459.2000
     41     47   1      0.1400 392459.2000
     42     43   1      0.1400 392459.2000
     42     50   1      0.1080 307105.6000
     43     44   1      0.1400 392459.2000
     43     51   1      0.1080 307105.6000
     44     45   1      0.1510 265265.6000
     44     46   1      0.1400 392459.2000
     45     52   1      0.1090 284512.0000
     45     53   1      0.1090 284512.0000
     45     54   1      0.1090 284512.0000
     46     47   1      0.1400 392459.2000
     46     55   1      0.1080 307105.6000
     47     56   1      0.1080 307105.6000
     48     57   1      0.1090 284512.0000
     48     58   1      0.1090 284512.0000
     48     59   1      0.1529 224262.4000
     59     60   1      0.1510 265265.6000
     59     67   1      0.1529 224262.4000
     59     68   1      0.1090 284512.0000
     60     61   1      0.1400 392459.2000
     60     66   1      0.1400 392459.2000
     61     62   1      0.1400 392459.2000
     61     69   1      0.1080 307105.6000
     62     63   1      0.1400 392459.2000
     62     70   1      0.1080 307105.6000
     63     64   1      0.1510 265265.6000
     63     65   1      0.1400 392459.2000
     64     71   1      0.1090 284512.0000
     64     72   1      0.1090 284512.0000
     64     73   1      0.1090 284512.0000
     65     66   1      0.1400 392459.2000
     65     74   1      0.1080 307105.6000
     66     75   1      0.1080 307105.6000
     67     76   1      0.1090 284512.0000
     67     77   1      0.1090 284512.0000
     67     78   1      0.1529 224262.4000
     78     79   1      0.1510 265265.6000
     78     86   1      0.1529 224262.4000
     78     87   1      0.1090 284512.0000
     79     80   1      0.1400 392459.2000
     79     85   1      0.1400 392459.2000
     80     81   1      0.1400 392459.2000
     80     88   1      0.1080 307105.6000
     81     82   1      0.1400 392459.2000
     81     89   1      0.1080 307105.6000
     82     83   1      0.1510 265265.6000
     82     84   1      0.1400 392459.2000
     83     90   1      0.1090 284512.0000
     83     91   1      0.1090 284512.0000
     83     92   1      0.1090 284512.0000
     84     85   1      0.1400 392459.2000
     84     93   1      0.1080 307105.6000
     85     94   1      0.1080 307105.6000
     86     95   1      0.1090 284512.0000
     86     96   1      0.1090 284512.0000
     86     97   1      0.1529 224262.4000
     97     98   1      0.1510 265265.6000
     97    105   1      0.1529 224262.4000
     97    106   1      0.1090 284512.0000
     98     99   1      0.1400 392459.2000
     98    104   1      0.1400 392459.2000
     99    100   1      0.1400 392459.2000
     99    107   1      0.1080 307105.6000
    100    101   1      0.1400 392459.2000
    100    108   1      0.1080 307105.6000
    101    102   1      0.1510 265265.6000
    101    103   1      0.1400 392459.2000
    102    109   1      0.1090 284512.0000
    102    110   1      0.1090 284512.0000
    102    111   1      0.1090 284512.0000
    103    104   1      0.1400 392459.2000
    103    112   1      0.1080 307105.6000
    104    113   1      0.1080 307105.6000
    105    114   1      0.1090 284512.0000
    105    115   1      0.1090 284512.0000
    105    116   1      0.1529 224262.4000
    116    117   1      0.1510 265265.6000
    116    124   1      0.1529 224262.4000
    116    125   1      0.1090 284512.0000
    117    118   1      0.1400 392459.2000
    117    123   1      0.1400 392459.2000
    118    119   1      0.1400 392459.2000
    118    126   1      0.1080 307105.6000
    119    120   1      0.1400 392459.2000
    119    127   1      0.1080 307105.6000
    120    121   1      0.1510 265265.6000
    120    122   1      0.1400 392459.2000
    121    128   1      0.1090 284512.0000
    121    129   1      0.1090 284512.0000
    121    130   1      0.1090 284512.0000
    122    123   1      0.1400 392459.2000
    122    131   1      0.1080 307105.6000
    123    132   1      0.1080 307105.6000
    124    133   1      0.1090 284512.0000
    124    134   1      0.1090 284512.0000
    124    135   1      0.1529 224262.4000
    135    136   1      0.1510 265265.6000
    135    143   1      0.1529 224262.4000
    135    144   1      0.1090 284512.0000
    136    137   1      0.1400 392459.2000
    136    142   1      0.1400 392459.2000
    137    138   1      0.1400 392459.2000
    137    145   1      0.1080 307105.6000
    138    139   1      0.1400 392459.2000
    138    146   1      0.1080 307105.6000
    139    140   1      0.1510 265265.6000
    139    141   1      0.1400 392459.2000
    140    147   1      0.1090 284512.0000
    140    148   1      0.1090 284512.0000
    140    149   1      0.1090 284512.0000
    141    142   1      0.1400 392459.2000
    141    150   1      0.1080 307105.6000
    142    151   1      0.1080 307105.6000
    143    152   1      0.1090 284512.0000
    143    153   1      0.1090 284512.0000
    143    154   1      0.1529 224262.4000
    154    155   1      0.1510 265265.6000
    154    162   1      0.1529 224262.4000
    154    163   1      0.1090 284512.0000
    155    156   1      0.1400 392459.2000
    155    161   1      0.1400 392459.2000
    156    157   1      0.1400 392459.2000
    156    164   1      0.1080 307105.6000
    157    158   1      0.1400 392459.2000
    157    165   1      0.1080 307105.6000
    158    159   1      0.1510 265265.6000
    158    160   1      0.1400 392459.2000
    159    166   1      0.1090 284512.0000
    159    167   1      0.1090 284512.0000
    159    168   1      0.1090 284512.0000
    160    161   1      0.1400 392459.2000
    160    169   1      0.1080 307105.6000
    161    170   1      0.1080 307105.6000
    162    171   1      0.1090 284512.0000
    162    172   1      0.1090 284512.0000
    162    173   1      0.1529 224262.4000
    173    174   1      0.1510 265265.6000
    173    181   1      0.1529 224262.4000
    173    182   1      0.1090 284512.0000
    174    175   1      0.1400 392459.2000
    174    180   1      0.1400 392459.2000
    175    176   1      0.1400 392459.2000
    175    183   1      0.1080 307105.6000
    176    177   1      0.1400 392459.2000
    176    184   1      0.1080 307105.6000
    177    178   1      0.1510 265265.6000
    177    179   1      0.1400 392459.2000
    178    185   1      0.1090 284512.0000
    178    186   1      0.1090 284512.0000
    178    187   1      0.1090 284512.0000
    179    180   1      0.1400 392459.2000
    179    188   1      0.1080 307105.6000
    180    189   1      0.1080 307105.6000
    181    190   1      0.1090 284512.0000
    181    191   1      0.1090 284512.0000
    181    192   1      0.1529 224262.4000
    192    193   1      0.1510 265265.6000
    192    200   1      0.1529 224262.4000
    192    201   1      0.1090 284512.0000
    193    194   1      0.1400 392459.2000
    193    199   1      0.1400 392459.2000
    194    195   1      0.1400 392459.2000
    194    202   1      0.1080 307105.6000
    195    196   1      0.1400 392459.2000
    195    203   1      0.1080 307105.6000
    196    197   1      0.1510 265265.6000
    196    198   1      0.1400 392459.2000
    197    204   1      0.1090 284512.0000
    197    205   1      0.1090 284512.0000
    197    206   1      0.1090 284512.0000
    198    199   1      0.1400 392459.2000
    198    207   1      0.1080 307105.6000
    199    208   1      0.1080 307105.6000
    200    209   1      0.1090 284512.0000
    200    210   1      0.1090 284512.0000
    200    211   1      0.1529 224262.4000
    211    212   1      0.1510 265265.6000
    211    219   1      0.1529 224262.4000
    211    220   1      0.1090 284512.0000
    212    213   1      0.1400 392459.2000
    212    218   1      0.1400 392459.2000
    213    214   1      0.1400 392459.2000
    213    221   1      0.1080 307105.6000
    214    215   1      0.1400 392459.2000
    214    222   1      0.1080 307105.6000
    215    216   1      0.1510 265265.6000
    215    217   1      0.1400 392459.2000
    216    223   1      0.1090 284512.0000
    216    224   1      0.1090 284512.0000
    216    225   1      0.1090 284512.0000
    217    218   1      0.1400 392459.2000
    217    226   1      0.1080 307105.6000
    218    227   1      0.1080 307105.6000
    219    228   1      0.1090 284512.0000
    219    229   1      0.1090 284512.0000
    219    230   1      0.1529 224262.4000
    230    231   1      0.1510 265265.6000
    230    238   1      0.1529 224262.4000
    230    239   1      0.1090 284512.0000
    231    232   1      0.1400 392459.2000
    231    237   1      0.1400 392459.2000
    232    233   1      0.1400 392459.2000
    232    240   1      0.1080 307105.6000
    233    234   1      0.1400 392459.2000
    233    241   1      0.1080 307105.6000
    234    235   1      0.1510 265265.6000
    234    236   1      0.1400 392459.2000
    235    242   1      0.1090 284512.0000
    235    243   1      0.1090 284512.0000
    235    244   1      0.1090 284512.0000
    236    237   1      0.1400 392459.2000
    236    245   1      0.1080 307105.6000
    237    246   1      0.1080 307105.6000
    238    247   1      0.1090 284512.0000
    238    248   1      0.1090 284512.0000
    238    249   1      0.1529 224262.4000
    249    250   1      0.1510 265265.6000
    249    257   1      0.1529 224262.4000
    249    258   1      0.1090 284512.0000
    250    251   1      0.1400 392459.2000
    250    256   1      0.1400 392459.2000
    251    252   1      0.1400 392459.2000
    251    259   1      0.1080 307105.6000
    252    253   1      0.1400 392459.2000
    252    260   1      0.1080 307105.6000
    253    254   1      0.1510 265265.6000
    253    255   1      0.1400 392459.2000
    254    261   1      0.1090 284512.0000
    254    262   1      0.1090 284512.0000
    254    263   1      0.1090 284512.0000
    255    256   1      0.1400 392459.2000
    255    264   1      0.1080 307105.6000
    256    265   1      0.1080 307105.6000
    257    266   1      0.1090 284512.0000
    257    267   1      0.1090 284512.0000
    257    268   1      0.1529 224262.4000
    268    269   1      0.1510 265265.6000
    268    276   1      0.1529 224262.4000
    268    277   1      0.1090 284512.0000
    269    270   1      0.1400 392459.2000
    269    275   1      0.1400 392459.2000
    270    271   1      0.1400 392459.2000
    270    278   1      0.1080 307105.6000
    271    272   1      0.1400 392459.2000
    271    279   1      0.1080 307105.6000
    272    273   1      0.1510 265265.6000
    272    274   1      0.1400 392459.2000
    273    280   1      0.1090 284512.0000
    273    281   1      0.1090 284512.0000
    273    282   1      0.1090 284512.0000
    274    275   1      0.1400 392459.2000
    274    283   1      0.1080 307105.6000
    275    284   1      0.1080 307105.6000
    276    285   1      0.1090 284512.0000
    276    286   1      0.1090 284512.0000
    276    287   1      0.1529 224262.4000
    287    288   1      0.1510 265265.6000
    287    295   1      0.1529 224262.4000
    287    296   1      0.1090 284512.0000
    288    289   1      0.1400 392459.2000
    288    294   1      0.1400 392459.2000
    289    290   1      0.1400 392459.2000
    289    297   1      0.1080 307105.6000
    290    291   1      0.1400 392459.2000
    290    298   1      0.1080 307105.6000
    291    292   1      0.1510 265265.6000
    291    293   1      0.1400 392459.2000
    292    299   1      0.1090 284512.0000
    292    300   1      0.1090 284512.0000
    292    301   1      0.1090 284512.0000
    293    294   1      0.1400 392459.2000
    293    302   1      0.1080 307105.6000
    294    303   1      0.1080 307105.6000
    295    304   1      0.1090 284512.0000
    295    305   1      0.1090 284512.0000
    295    306   1      0.1529 224262.4000
    306    307   1      0.1510 265265.6000
    306    314   1      0.1529 224262.4000
    306    315   1      0.1090 284512.0000
    307    308   1      0.1400 392459.2000
    307    313   1      0.1400 392459.2000
    308    309   1      0.1400 392459.2000
    308    316   1      0.1080 307105.6000
    309    310   1      0.1400 392459.2000
    309    317   1      0.1080 307105.6000
    310    311   1      0.1510 265265.6000
    310    312   1      0.1400 392459.2000
    311    318   1      0.1090 284512.0000
    311    319   1      0.1090 284512.0000
    311    320   1      0.1090 284512.0000
    312    313   1      0.1400 392459.2000
    312    321   1      0.1080 307105.6000
    313    322   1      0.1080 307105.6000
    314    323   1      0.1090 284512.0000
    314    324   1      0.1090 284512.0000
    314    325   1      0.1529 224262.4000
    325    326   1      0.1510 265265.6000
    325    333   1      0.1529 224262.4000
    325    334   1      0.1090 284512.0000
    326    327   1      0.1400 392459.2000
    326    332   1      0.1400 392459.2000
    327    328   1      0.1400 392459.2000
    327    335   1      0.1080 307105.6000
    328    329   1      0.1400 392459.2000
    328    336   1      0.1080 307105.6000
    329    330   1      0.1510 265265.6000
    329    331   1      0.1400 392459.2000
    330    337   1      0.1090 284512.0000
    330    338   1      0.1090 284512.0000
    330    339   1      0.1090 284512.0000
    331    332   1      0.1400 392459.2000
    331    340   1      0.1080 307105.6000
    332    341   1      0.1080 307105.6000
    333    342   1      0.1090 284512.0000
    333    343   1      0.1090 284512.0000
    333    344   1      0.1529 224262.4000
    344    345   1      0.1510 265265.6000
    344    352   1      0.1529 224262.4000
    344    353   1      0.1090 284512.0000
    345    346   1      0.1400 392459.2000
    345    351   1      0.1400 392459.2000
    346    347   1      0.1400 392459.2000
    346    354   1      0.1080 307105.6000
    347    348   1      0.1400 392459.2000
    347    355   1      0.1080 307105.6000
    348    349   1      0.1510 265265.6000
    348    350   1      0.1400 392459.2000
    349    356   1      0.1090 284512.0000
    349    357   1      0.1090 284512.0000
    349    358   1      0.1090 284512.0000
    350    351   1      0.1400 392459.2000
    350    359   1      0.1080 307105.6000
    351    360   1      0.1080 307105.6000
    352    361   1      0.1090 284512.0000
    352    362   1      0.1090 284512.0000
    352    363   1      0.1529 224262.4000
    363    364   1      0.1510 265265.6000
    363    371   1      0.1529 224262.4000
    363    372   1      0.1090 284512.0000
    364    365   1      0.1400 392459.2000
    364    370   1      0.1400 392459.2000
    365    366   1      0.1400 392459.2000
    365    373   1      0.1080 307105.6000
    366    367   1      0.1400 392459.2000
    366    374   1      0.1080 307105.6000
    367    368   1      0.1510 265265.6000
    367    369   1      0.1400 392459.2000
    368    375   1      0.1090 284512.0000
    368    376   1      0.1090 284512.0000
    368    377   1      0.1090 284512.0000
    369    370   1      0.1400 392459.2000
    369    378   1      0.1080 307105.6000
    370    379   1      0.1080 307105.6000
    371    380   1      0.1090 284512.0000
    371    381   1      0.1090 284512.0000
    371    382   1      0.1090 284512.0000

[ pairs ]
; ai   aj   funct   fudge_QQ  charge_i   charge_j   c6    c12
      9      3   2   0.50000    -0.1200000   -0.1150000   1.091018e-03  2.092768e-06
      9      8   2   0.50000    -0.1200000   -0.1150000   1.091018e-03  2.092768e-06
     10      3   2   0.50000     0.0600000   -0.1150000   2.680627e-04  1.873879e-07
     10      8   2   0.50000     0.0600000   -0.1150000   2.680627e-04  1.873879e-07
     20      3   2   0.50000     0.0600000   -0.1150000   2.680627e-04  1.873879e-07
     20      8   2   0.50000     0.0600000   -0.1150000   2.680627e-04  1.873879e-07
      2     18   2   0.50000    -0.1150000    0.0600000   2.680627e-04  1.873879e-07
      2     19   2   0.50000    -0.1150000    0.0600000   2.680627e-04  1.873879e-07
      2     21   2   0.50000    -0.1150000    0.0550000   1.091018e-03  2.092768e-06
     10     18   2   0.50000     0.0600000    0.0600000   6.128906e-05  1.496315e-08
     10     19   2   0.50000     0.0600000    0.0600000   6.128906e-05  1.496315e-08
     10     21   2   0.50000     0.0600000    0.0550000   2.494471e-04  1.671101e-07
     20     18   2   0.50000     0.0600000    0.0600000   6.128906e-05  1.496315e-08
     20     19   2   0.50000     0.0600000    0.0600000   6.128906e-05  1.496315e-08
     20     21   2   0.50000     0.0600000    0.0550000   2.494471e-04  1.671101e-07
      1      4   2   0.50000    -0.0050000   -0.1150000   1.091018e-03  2.092768e-06
      1     11   2   0.50000    -0.0050000    0.1150000   2.262583e-04  1.374848e-07
      8      4   2   0.50000    -0.1150000   -0.1150000   1.172438e-03  2.346713e-06
      8     11   2   0.50000    -0.1150000    0.1150000   2.431434e-04  1.541678e-07
      1      7   2   0.50000    -0.0050000   -0.1150000   1.091018e-03  2.092768e-06
      1     17   2   0.50000    -0.0050000    0.1150000   2.262583e-04  1.374848e-07
      3      7   2   0.50000    -0.1150000   -0.1150000   1.172438e-03  2.346713e-06
      3     17   2   0.50000    -0.1150000    0.1150000   2.431434e-04  1.541678e-07
      2      5   2   0.50000    -0.1150000   -0.1150000   1.172438e-03  2.346713e-06
      2     12   2   0.50000    -0.1150000    0.1150000   2.431434e-04  1.541678e-07
     11      5   2   0.50000     0.1150000   -0.1150000   2.431434e-04  1.541678e-07
     11     12   2   0.50000     0.1150000    0.1150000   5.042375e-05  1.012808e-08
      3      6   2   0.50000    -0.1150000   -0.0650000   1.091018e-03  2.092768e-06
     12      6   2   0.50000     0.1150000   -0.0650000   2.262583e-04  1.374848e-07
     12      7   2   0.50000     0.1150000   -0.1150000   2.431434e-04  1.541678e-07
      4     13   2   0.50000    -0.1150000    0.0600000   2.680627e-04  1.873879e-07
      4     14   2   0.50000    -0.1150000    0.0600000   2.680627e-04  1.873879e-07
      4     15   2   0.50000    -0.1150000    0.0600000   2.680627e-04  1.873879e-07
      7     13   2   0.50000    -0.1150000    0.0600000   2.680627e-04  1.873879e-07
      7     14   2   0.50000    -0.1150000    0.0600000   2.680627e-04  1.873879e-07
      7     15   2   0.50000    -0.1150000    0.0600000   2.680627e-04  1.873879e-07
      4     16   2   0.50000    -0.1150000    0.1150000   2.431434e-04  1.541678e-07
      6      8   2   0.50000    -0.0650000   -0.1150000   1.091018e-03  2.092768e-06
      6     16   2   0.50000    -0.0650000    0.1150000   2.262583e-04  1.374848e-07
      5     17   2   0.50000    -0.1150000    0.1150000   2.431434e-04  1.541678e-07
     16      2   2   0.50000     0.1150000   -0.1150000   2.431434e-04  1.541678e-07
     16     17   2   0.50000     0.1150000    0.1150000   5.042375e-05  1.012808e-08
      1     22   2   0.50000    -0.0050000   -0.1150000   1.091018e-03  2.092768e-06
      1     29   2   0.50000    -0.0050000   -0.1200000   1.015252e-03  1.866303e-06
      1     30   2   0.50000    -0.0050000    0.0600000   2.494471e-04  1.671101e-07
     18     22   2   0.50000     0.0600000   -0.1150000   2.680627e-04  1.873879e-07
     18     29   2   0.50000     0.0600000   -0.1200000   2.494471e-04  1.671101e-07
     18     30   2   0.50000     0.0600000    0.0600000   6.128906e-05  1.496315e-08
     19     22   2   0.50000     0.0600000   -0.1150000   2.680627e-04  1.873879e-07
     19     29   2   0.50000     0.0600000   -0.1200000   2.494471e-04  1.671101e-07
     19     30   2   0.50000     0.0600000    0.0600000   6.128906e-05  1.496315e-08
      9     23   2   0.50000    -0.1200000   -0.1150000   1.091018e-03  2.092768e-06
      9     28   2   0.50000    -0.1200000   -0.1150000   1.091018e-03  2.092768e-06
     29     23   2   0.50000    -0.1200000   -0.1150000   1.091018e-03  2.092768e-06
     29     28   2   0.50000    -0.1200000   -0.1150000   1.091018e-03  2.092768e-06
     30     23   2   0.50000     0.0600000   -0.1150000   2.680627e-04  1.873879e-07
     30     28   2   0.50000     0.0600000   -0.1150000   2.680627e-04  1.873879e-07
      9     38   2   0.50000    -0.1200000    0.0600000   2.494471e-04  1.671101e-07
      9     39   2   0.50000    -0.1200000    0.0600000   2.494471e-04  1.671101e-07
      9     40   2   0.50000    -0.1200000    0.0550000   1.015252e-03  1.866303e-06
     22     38   2   0.50000    -0.1150000    0.0600000   2.680627e-04  1.873879e-07
     22     39   2   0.50000    -0.1150000    0.0600000   2.680627e-04  1.873879e-07
     22     40   2   0.50000    -0.1150000    0.0550000   1.091018e-03  2.092768e-06
     30     38   2   0.50000     0.0600000    0.0600000   6.128906e-05  1.496315e-08
     30     39   2   0.50000     0.0600000    0.0600000   6.128906e-05  1.496315e-08
     30     40   2   0.50000     0.0600000    0.0550000   2.494471e-04  1.671101e-07
     21     24   2   0.50000     0.0550000   -0.1150000   1.091018e-03  2.092768e-06
     21     31   2   0.50000     0.0550000    0.1150000   2.262583e-04  1.374848e-07
     28     24   2   0.50000    -0.1150000   -0.1150000   1.172438e-03  2.346713e-06
     28     31   2   0.50000    -0.1150000    0.1150000   2.431434e-04  1.541678e-07
     21     27   2   0.50000     0.0550000   -0.1150000   1.091018e-03  2.092768e-06
     21     37   2   0.50000     0.0550000    0.1150000   2.262583e-04  1.374848e-07
     23     27   2   0.50000    -0.1150000   -0.1150000   1.172438e-03  2.346713e-06
     23     37   2   0.50000    -0.1150000    0.1150000   2.431434e-04  1.541678e-07
     22     25   2   0.50000    -0.1150000   -0.1150000   1.172438e-03  2.346713e-06
     22     32   2   0.50000    -0.1150000    0.1150000   2.431434e-04  1.541678e-07
     31     25   2   0.50000     0.1150000   -0.1150000   2.431434e-04  1.541678e-07
     31     32   2   0.50000     0.1150000    0.1150000   5.042375e-05  1.012808e-08
     23     26   2   0.50000    -0.1150000   -0.0650000   1.091018e-03  2.092768e-06
     32     26   2   0.50000     0.1150000   -0.0650000   2.262583e-04  1.374848e-07
     32     27   2   0.50000     0.1150000   -0.1150000   2.431434e-04  1.541678e-07
     24     33   2   0.50000    -0.1150000    0.0600000   2.680627e-04  1.873879e-07
     24     34   2   0.50000    -0.1150000    0.0600000   2.680627e-04  1.873879e-07
     24     35   2   0.50000    -0.1150000    0.0600000   2.680627e-04  1.873879e-07
     27     33   2   0.50000    -0.1150000    0.0600000   2.680627e-04  1.873879e-07
     27     34   2   0.50000    -0.1150000    0.0600000   2.680627e-04  1.873879e-07
     27     35   2   0.50000    -0.1150000    0.0600000   2.680627e-04  1.873879e-07
     24     36   2   0.50000    -0.1150000    0.1150000   2.431434e-04  1.541678e-07
     26     28   2   0.50000    -0.0650000   -0.1150000   1.091018e-03  2.092768e-06
     26     36   2   0.50000    -0.0650000    0.1150000   2.262583e-04  1.374848e-07
     25     37   2   0.50000    -0.1150000    0.1150000   2.431434e-04  1.541678e-07
     36     22   2   0.50000     0.1150000   -0.1150000   2.431434e-04  1.541678e-07
     36     37   2   0.50000     0.1150000    0.1150000   5.042375e-05  1.012808e-08
     21     41   2   0.50000     0.0550000   -0.1150000   1.091018e-03  2.092768e-06
     21     48   2   0.50000     0.0550000   -0.1200000   1.015252e-03  1.866303e-06
     21     49   2   0.50000     0.0550000    0.0600000   2.494471e-04  1.671101e-07
     38     41   2   0.50000     0.0600000   -0.1150000   2.680627e-04  1.873879e-07
     38     48   2   0.50000     0.0600000   -0.1200000   2.494471e-04  1.671101e-07
     38     49   2   0.50000     0.0600000    0.0600000   6.128906e-05  1.496315e-08
     39     41   2   0.50000     0.0600000   -0.1150000   2.680627e-04  1.873879e-07
     39     48   2   0.50000     0.0600000   -0.1200000   2.494471e-04  1.671101e-07
     39     49   2   0.50000     0.0600000    0.0600000   6.128906e-05  1.496315e-08
     29     42   2   0.50000    -0.1200000   -0.1150000   1.091018e-03  2.092768e-06
     29     47   2   0.50000    -0.1200000   -0.1150000   1.091018e-03  2.092768e-06
     48     42   2   0.50000    -0.1200000   -0.1150000   1.091018e-03  2.092768e-06
     48     47   2   0.50000    -0.1200000   -0.1150000   1.091018e-03  2.092768e-06
     49     42   2   0.50000     0.0600000   -0.1150000   2.680627e-04  1.873879e-07
     49     47   2   0.50000     0.0600000   -0.1150000   2.680627e-04  1.873879e-07
     29     57   2   0.50000    -0.1200000    0.0600000   2.494471e-04  1.671101e-07
     29     58   2   0.50000    -0.1200000    0.0600000   2.494471e-04  1.671101e-07
     29     59   2   0.50000    -0.1200000    0.0550000   1.015252e-03  1.866303e-06
     41     57   2   0.50000    -0.1150000    0.0600000   2.680627e-04  1.873879e-07
     41     58   2   0.50000    -0.1150000    0.0600000   2.680627e-04  1.873879e-07
     41     59   2   0.50000    -0.1150000    0.0550000   1.091018e-03  2.092768e-06
     49     57   2   0.50000     0.0600000    0.0600000   6.128906e-05  1.496315e-08
     49     58   2   0.50000     0.0600000    0.0600000   6.128906e-05  1.496315e-08
     49     59   2   0.50000     0.0600000    0.0550000   2.494471e-04  1.671101e-07
     40     43   2   0.50000     0.0550000   -0.1150000   1.091018e-03  2.092768e-06
     40     50   2   0.50000     0.0550000    0.1150000   2.262583e-04  1.374848e-07
     47     43   2   0.50000    -0.1150000   -0.1150000   1.172438e-03  2.346713e-06
     47     50   2   0.50000    -0.1150000    0.1150000   2.431434e-04  1.541678e-07
     40     46   2   0.50000     0.0550000   -0.1150000   1.091018e-03  2.092768e-06
     40     56   2   0.50000     0.0550000    0.1150000   2.262583e-04  1.374848e-07
     42     46   2   0.50000    -0.1150000   -0.1150000   1.172438e-03  2.346713e-06
     42     56   2   0.50000    -0.1150000    0.1150000   2.431434e-04  1.541678e-07
     41     44   2   0.50000    -0.1150000   -0.1150000   1.172438e-03  2.346713e-06
     41     51   2   0.50000    -0.1150000    0.1150000   2.431434e-04  1.541678e-07
     50     44   2   0.50000     0.1150000   -0.1150000   2.431434e-04  1.541678e-07
     50     51   2   0.50000     0.1150000    0.1150000   5.042375e-05  1.012808e-08
     42     45   2   0.50000    -0.1150000   -0.0650000   1.091018e-03  2.092768e-06
     51     45   2   0.50000     0.1150000   -0.0650000   2.262583e-04  1.374848e-07
     51     46   2   0.50000     0.1150000   -0.1150000   2.431434e-04  1.541678e-07
     43     52   2   0.50000    -0.1150000    0.0600000   2.680627e-04  1.873879e-07
     43     53   2   0.50000    -0.1150000    0.0600000   2.680627e-04  1.873879e-07
     43     54   2   0.50000    -0.1150000    0.0600000   2.680627e-04  1.873879e-07
     46     52   2   0.50000    -0.1150000    0.0600000   2.680627e-04  1.873879e-07
     46     53   2   0.50000    -0.1150000    0.0600000   2.680627e-04  1.873879e-07
     46     54   2   0.50000    -0.1150000    0.0600000   2.680627e-04  1.873879e-07
     43     55   2   0.50000    -0.1150000    0.1150000   2.431434e-04  1.541678e-07
     45     47   2   0.50000    -0.0650000   -0.1150000   1.091018e-03  2.092768e-06
     45     55   2   0.50000    -0.0650000    0.1150000   2.262583e-04  1.374848e-07
     44     56   2   0.50000    -0.1150000    0.1150000   2.431434e-04  1.541678e-07
     55     41   2   0.50000     0.1150000   -0.1150000   2.431434e-04  1.541678e-07
     55     56   2   0.50000     0.1150000    0.1150000   5.042375e-05  1.012808e-08
     40     60   2   0.50000     0.0550000   -0.1150000   1.091018e-03  2.092768e-06
     40     67   2   0.50000     0.0550000   -0.1200000   1.015252e-03  1.866303e-06
     40     68   2   0.50000     0.0550000    0.0600000   2.494471e-04  1.671101e-07
     57     60   2   0.50000     0.0600000   -0.1150000   2.680627e-04  1.873879e-07
     57     67   2   0.50000     0.0600000   -0.1200000   2.494471e-04  1.671101e-07
     57     68   2   0.50000     0.0600000    0.0600000   6.128906e-05  1.496315e-08
     58     60   2   0.50000     0.0600000   -0.1150000   2.680627e-04  1.873879e-07
     58     67   2   0.50000     0.0600000   -0.1200000   2.494471e-04  1.671101e-07
     58     68   2   0.50000     0.0600000    0.0600000   6.128906e-05  1.496315e-08
     48     61   2   0.50000    -0.1200000   -0.1150000   1.091018e-03  2.092768e-06
     48     66   2   0.50000    -0.1200000   -0.1150000   1.091018e-03  2.092768e-06
     67     61   2   0.50000    -0.1200000   -0.1150000   1.091018e-03  2.092768e-06
     67     66   2   0.50000    -0.1200000   -0.1150000   1.091018e-03  2.092768e-06
     68     61   2   0.50000     0.0600000   -0.1150000   2.680627e-04  1.873879e-07
     68     66   2   0.50000     0.0600000   -0.1150000   2.680627e-04  1.873879e-07
     48     76   2   0.50000    -0.1200000    0.0600000   2.494471e-04  1.671101e-07
     48     77   2   0.50000    -0.1200000    0.0600000   2.494471e-04  1.671101e-07
     48     78   2   0.50000    -0.1200000    0.0550000   1.015252e-03  1.866303e-06
     60     76   2   0.50000    -0.1150000    0.0600000   2.680627e-04  1.873879e-07
     60     77   2   0.50000    -0.1150000    0.0600000   2.680627e-04  1.873879e-07
     60     78   2   0.50000    -0.1150000    0.0550000   1.091018e-03  2.092768e-06
     68     76   2   0.50000     0.0600000    0.0600000   6.128906e-05  1.496315e-08
     68     77   2   0.50000     0.0600000    0.0600000   6.128906e-05  1.496315e-08
     68     78   2   0.50000     0.0600000    0.0550000   2.494471e-04  1.671101e-07
     59     62   2   0.50000     0.0550000   -0.1150000   1.091018e-03  2.092768e-06
     59     69   2   0.50000     0.0550000    0.1150000   2.262583e-04  1.374848e-07
     66     62   2   0.50000    -0.1150000   -0.1150000   1.172438e-03  2.346713e-06
     66     69   2   0.50000    -0.1150000    0.1150000   2.431434e-04  1.541678e-07
     59     65   2   0.50000     0.0550000   -0.1150000   1.091018e-03  2.092768e-06
     59     75   2   0.50000     0.0550000    0.1150000   2.262583e-04  1.374848e-07
     61     65   2   0.50000    -0.1150000   -0.1150000   1.172438e-03  2.346713e-06
     61     75   2   0.50000    -0.1150000    0.1150000   2.431434e-04  1.541678e-07
     60     63   2   0.50000    -0.1150000   -0.1150000   1.172438e-03  2.346713e-06
     60     70   2   0.50000    -0.1150000    0.1150000   2.431434e-04  1.541678e-07
     69     63   2   0.50000     0.1150000   -0.1150000   2.431434e-04  1.541678e-07
     69     70   2   0.50000     0.1150000    0.1150000   5.042375e-05  1.012808e-08
     61     64   2   0.50000    -0.1150000   -0.0650000   1.091018e-03  2.092768e-06
     70     64   2   0.50000     0.1150000   -0.0650000   2.262583e-04  1.374848e-07
     70     65   2   0.50000     0.1150000   -0.1150000   2.431434e-04  1.541678e-07
     62     71   2   0.50000    -0.1150000    0.0600000   2.680627e-04  1.873879e-07
     62     72   2   0.50000    -0.1150000    0.0600000   2.680627e-04  1.873879e-07
     62     73   2   0.50000    -0.1150000    0.0600000   2.680627e-04  1.873879e-07
     65     71   2   0.50000    -0.1150000    0.0600000   2.680627e-04  1.873879e-07
     65     72   2   0.50000    -0.1150000    0.0600000   2.680627e-04  1.873879e-07
     65     73   2   0.50000    -0.1150000    0.0600000   2.680627e-04  1.873879e-07
     62     74   2   0.50000    -0.1150000    0.1150000   2.431434e-04  1.541678e-07
     64     66   2   0.50000    -0.0650000   -0.1150000   1.091018e-03  2.092768e-06
     64     74   2   0.50000    -0.0650000    0.1150000   2.262583e-04  1.374848e-07
     63     75   2   0.50000    -0.1150000    0.1150000   2.431434e-04  1.541678e-07
     74     60   2   0.50000     0.1150000   -0.1150000   2.431434e-04  1.541678e-07
     74     75   2   0.50000     0.1150000    0.1150000   5.042375e-05  1.012808e-08
     59     79   2   0.50000     0.0550000   -0.1150000   1.091018e-03  2.092768e-06
     59     86   2   0.50000     0.0550000   -0.1200000   1.015252e-03  1.866303e-06
     59     87   2   0.50000     0.0550000    0.0600000   2.494471e-04  1.671101e-07
     76     79   2   0.50000     0.0600000   -0.1150000   2.680627e-04  1.873879e-07
     76     86   2   0.50000     0.0600000   -0.1200000   2.494471e-04  1.671101e-07
     76     87   2   0.50000     0.0600000    0.0600000   6.128906e-05  1.496315e-08
     77     79   2   0.50000     0.0600000   -0.1150000   2.680627e-04  1.873879e-07
     77     86   2   0.50000     0.0600000   -0.1200000   2.494471e-04  1.671101e-07
     77     87   2   0.50000     0.0600000    0.0600000   6.128906e-05  1.496315e-08
     67     80   2   0.50000    -0.1200000   -0.1150000   1.091018e-03  2.092768e-06
     67     85   2   0.50000    -0.1200000   -0.1150000   1.091018e-03  2.092768e-06
     86     80   2   0.50000    -0.1200000   -0.1150000   1.091018e-03  2.092768e-06
     86     85   2   0.50000    -0.1200000   -0.1150000   1.091018e-03  2.092768e-06
     87     80   2   0.50000     0.0600000   -0.1150000   2.680627e-04  1.873879e-07
     87     85   2   0.50000     0.0600000   -0.1150000   2.680627e-04  1.873879e-07
     67     95   2   0.50000    -0.1200000    0.0600000   2.494471e-04  1.671101e-07
     67     96   2   0.50000    -0.1200000    0.0600000   2.494471e-04  1.671101e-07
     67     97   2   0.50000    -0.1200000    0.0550000   1.015252e-03  1.866303e-06
     79     95   2   0.50000    -0.1150000    0.0600000   2.680627e-04  1.873879e-07
     79     96   2   0.50000    -0.1150000    0.0600000   2.680627e-04  1.873879e-07
     79     97   2   0.50000    -0.1150000    0.0550000   1.091018e-03  2.092768e-06
     87     95   2   0.50000     0.0600000    0.0600000   6.128906e-05  1.496315e-08
     87     96   2   0.50000     0.0600000    0.0600000   6.128906e-05  1.496315e-08
     87     97   2   0.50000     0.0600000    0.0550000   2.494471e-04  1.671101e-07
     78     81   2   0.50000     0.0550000   -0.1150000   1.091018e-03  2.092768e-06
     78     88   2   0.50000     0.0550000    0.1150000   2.262583e-04  1.374848e-07
     85     81   2   0.50000    -0.1150000   -0.1150000   1.172438e-03  2.346713e-06
     85     88   2   0.50000    -0.1150000    0.1150000   2.431434e-04  1.541678e-07
     78     84   2   0.50000     0.0550000   -0.1150000   1.091018e-03  2.092768e-06
     78     94   2   0.50000     0.0550000    0.1150000   2.262583e-04  1.374848e-07
     80     84   2   0.50000    -0.1150000   -0.1150000   1.172438e-03  2.346713e-06
     80     94   2   0.50000    -0.1150000    0.1150000   2.431434e-04  1.541678e-07
     79     82   2   0.50000    -0.1150000   -0.1150000   1.172438e-03  2.346713e-06
     79     89   2   0.50000    -0.1150000    0.1150000   2.431434e-04  1.541678e-07
     88     82   2   0.50000     0.1150000   -0.1150000   2.431434e-04  1.541678e-07
     88     89   2   0.50000     0.1150000    0.1150000   5.042375e-05  1.012808e-08
     80     83   2   0.50000    -0.1150000   -0.0650000   1.091018e-03  2.092768e-06
     89     83   2   0.50000     0.1150000   -0.0650000   2.262583e-04  1.374848e-07
     89     84   2   0.50000     0.1150000   -0.1150000   2.431434e-04  1.541678e-07
     81     90   2   0.50000    -0.1150000    0.0600000   2.680627e-04  1.873879e-07
     81     91   2   0.50000    -0.1150000    0.0600000   2.680627e-04  1.873879e-07
     81     92   2   0.50000    -0.1150000    0.0600000   2.680627e-04  1.873879e-07
     84     90   2   0.50000    -0.1150000    0.0600000   2.680627e-04  1.873879e-07
     84     91   2   0.50000    -0.1150000    0.0600000   2.680627e-04  1.873879e-07
     84     92   2   0.50000    -0.1150000    0.0600000   2.680627e-04  1.873879e-07
     81     93   2   0.50000    -0.1150000    0.1150000   2.431434e-04  1.541678e-07
     83     85   2   0.50000    -0.0650000   -0.1150000   1.091018e-03  2.092768e-06
     83     93   2   0.50000    -0.0650000    0.1150000   2.262583e-04  1.374848e-07
     82     94   2   0.50000    -0.1150000    0.1150000   2.431434e-04  1.541678e-07
     93     79   2   0.50000     0.1150000   -0.1150000   2.431434e-04  1.541678e-07
     93     94   2   0.50000     0.1150000    0.1150000   5.042375e-05  1.012808e-08
     78     98   2   0.50000     0.0550000   -0.1150000   1.091018e-03  2.092768e-06
     78    105   2   0.50000     0.0550000   -0.1200000   1.015252e-03  1.866303e-06
     78    106   2   0.50000     0.0550000    0.0600000   2.494471e-04  1.671101e-07
     95     98   2   0.50000     0.0600000   -0.1150000   2.680627e-04  1.873879e-07
     95    105   2   0.50000     0.0600000   -0.1200000   2.494471e-04  1.671101e-07
     95    106   2   0.50000     0.0600000    0.0600000   6.128906e-05  1.496315e-08
     96     98   2   0.50000     0.0600000   -0.1150000   2.680627e-04  1.873879e-07
     96    105   2   0.50000     0.0600000   -0.1200000   2.494471e-04  1.671101e-07
     96    106   2   0.50000     0.0600000    0.0600000   6.128906e-05  1.496315e-08
     86     99   2   0.50000    -0.1200000   -0.1150000   1.091018e-03  2.092768e-06
     86    104   2   0.50000    -0.1200000   -0.1150000   1.091018e-03  2.092768e-06
    105     99   2   0.50000    -0.1200000   -0.1150000   1.091018e-03  2.092768e-06
    105    104   2   0.50000    -0.1200000   -0.1150000   1.091018e-03  2.092768e-06
    106     99   2   0.50000     0.0600000   -0.1150000   2.680627e-04  1.873879e-07
    106    104   2   0.50000     0.0600000   -0.1150000   2.680627e-04  1.873879e-07
     86    114   2   0.50000    -0.1200000    0.0600000   2.494471e-04  1.671101e-07
     86    115   2   0.50000    -0.1200000    0.0600000   2.494471e-04  1.671101e-07
     86    116   2   0.50000    -0.1200000    0.0550000   1.015252e-03  1.866303e-06
     98    114   2   0.50000    -0.1150000    0.0600000   2.680627e-04  1.873879e-07
     98    115   2   0.50000    -0.1150000    0.0600000   2.680627e-04  1.873879e-07
     98    116   2   0.50000    -0.1150000    0.0550000   1.091018e-03  2.092768e-06
    106    114   2   0.50000     0.0600000    0.0600000   6.128906e-05  1.496315e-08
    106    115   2   0.50000     0.0600000    0.0600000   6.128906e-05  1.496315e-08
    106    116   2   0.50000     0.0600000    0.0550000   2.494471e-04  1.671101e-07
     97    100   2   0.50000     0.0550000   -0.1150000   1.091018e-03  2.092768e-06
     97    107   2   0.50000     0.0550000    0.1150000   2.262583e-04  1.374848e-07
    104    100   2   0.50000    -0.1150000   -0.1150000   1.172438e-03  2.346713e-06
    104    107   2   0.50000    -0.1150000    0.1150000   2.431434e-04  1.541678e-07
     97    103   2   0.50000     0.0550000   -0.1150000   1.091018e-03  2.092768e-06
     97    113   2   0.50000     0.0550000    0.1150000   2.262583e-04  1.374848e-07
     99    103   2   0.50000    -0.1150000   -0.1150000   1.172438e-03  2.346713e-06
     99    113   2   0.50000    -0.1150000    0.1150000   2.431434e-04  1.541678e-07
     98    101   2   0.50000    -0.1150000   -0.1150000   1.172438e-03  2.346713e-06
     98    108   2   0.50000    -0.1150000    0.1150000   2.431434e-04  1.541678e-07
    107    101   2   0.50000     0.1150000   -0.1150000   2.431434e-04  1.541678e-07
    107    108   2   0.50000     0.1150000    0.1150000   5.042375e-05  1.012808e-08
     99    102   2   0.50000    -0.1150000   -0.0650000   1.091018e-03  2.092768e-06
    108    102   2   0.50000     0.1150000   -0.0650000   2.262583e-04  1.374848e-07
    108    103   2   0.50000     0.1150000   -0.1150000   2.431434e-04  1.541678e-07
    100    109   2   0.50000    -0.1150000    0.0600000   2.680627e-04  1.873879e-07
    100    110   2   0.50000    -0.1150000    0.0600000   2.680627e-04  1.873879e-07
    100    111   2   0.50000    -0.1150000    0.0600000   2.680627e-04  1.873879e-07
    103    109   2   0.50000    -0.1150000    0.0600000   2.680627e-04  1.873879e-07
    103    110   2   0.50000    -0.1150000    0.0600000   2.680627e-04  1.873879e-07
    103    111   2   0.50000    -0.1150000    0.0600000   2.680627e-04  1.873879e-07
    100    112   2   0.50000    -0.1150000    0.1150000   2.431434e-04  1.541678e-07
    102    104   2   0.50000    -0.0650000   -0.1150000   1.091018e-03  2.092768e-06
    102    112   2   0.50000    -0.0650000    0.1150000   2.262583e-04  1.374848e-07
    101    113   2   0.50000    -0.1150000    0.1150000   2.431434e-04  1.541678e-07
    112     98   2   0.50000     0.1150000   -0.1150000   2.431434e-04  1.541678e-07
    112    113   2   0.50000     0.1150000    0.1150000   5.042375e-05  1.012808e-08
     97    117   2   0.50000     0.0550000   -0.1150000   1.091018e-03  2.092768e-06
     97    124   2   0.50000     0.0550000   -0.1200000   1.015252e-03  1.866303e-06
     97    125   2   0.50000     0.0550000    0.0600000   2.494471e-04  1.671101e-07
    114    117   2   0.50000     0.0600000   -0.1150000   2.680627e-04  1.873879e-07
    114    124   2   0.50000     0.0600000   -0.1200000   2.494471e-04  1.671101e-07
    114    125   2   0.50000     0.0600000    0.0600000   6.128906e-05  1.496315e-08
    115    117   2   0.50000     0.0600000   -0.1150000   2.680627e-04  1.873879e-07
    115    124   2   0.50000     0.0600000   -0.1200000   2.494471e-04  1.671101e-07
    115    125   2   0.50000     0.0600000    0.0600000   6.128906e-05  1.496315e-08
    105    118   2   0.50000    -0.1200000   -0.1150000   1.091018e-03  2.092768e-06
    105    123   2   0.50000    -0.1200000   -0.1150000   1.091018e-03  2.092768e-06
    124    118   2   0.50000    -0.1200000   -0.1150000   1.091018e-03  2.092768e-06
    124    123   2   0.50000    -0.1200000   -0.1150000   1.091018e-03  2.092768e-06
    125    118   2   0.50000     0.0600000   -0.1150000   2.680627e-04  1.873879e-07
    125    123   2   0.50000     0.0600000   -0.1150000   2.680627e-04  1.873879e-07
    105    133   2   0.50000    -0.1200000    0.0600000   2.494471e-04  1.671101e-07
    105    134   2   0.50000    -0.1200000    0.0600000   2.494471e-04  1.671101e-07
    105    135   2   0.50000    -0.1200000    0.0550000   1.015252e-03  1.866303e-06
    117    133   2   0.50000    -0.1150000    0.0600000   2.680627e-04  1.873879e-07
    117    134   2   0.50000    -0.1150000    0.0600000   2.680627e-04  1.873879e-07
    117    135   2   0.50000    -0.1150000    0.0550000   1.091018e-03  2.092768e-06
    125    133   2   0.50000     0.0600000    0.0600000   6.128906e-05  1.496315e-08
    125    134   2   0.50000     0.0600000    0.0600000   6.128906e-05  1.496315e-08
    125    135   2   0.50000     0.0600000    0.0550000   2.494471e-04  1.671101e-07
    116    119   2   0.50000     0.0550000   -0.1150000   1.091018e-03  2.092768e-06
    116    126   2   0.50000     0.0550000    0.1150000   2.262583e-04  1.374848e-07
    123    119   2   0.50000    -0.1150000   -0.1150000   1.172438e-03  2.346713e-06
    123    126   2   0.50000    -0.1150000    0.1150000   2.431434e-04  1.541678e-07
    116    122   2   0.50000     0.0550000   -0.1150000   1.091018e-03  2.092768e-06
    116    132   2   0.50000     0.0550000    0.1150000   2.262583e-04  1.374848e-07
    118    122   2   0.50000    -0.1150000   -0.1150000   1.172438e-03  2.346713e-06
    118    132   2   0.50000    -0.1150000    0.1150000   2.431434e-04  1.541678e-07
    117    120   2   0.50000    -0.1150000   -0.1150000   1.172438e-03  2.346713e-06
    117    127   2   0.50000    -0.1150000    0.1150000   2.431434e-04  1.541678e-07
    126    120   2   0.50000     0.1150000   -0.1150000   2.431434e-04  1.541678e-07
    126    127   2   0.50000     0.1150000    0.1150000   5.042375e-05  1.012808e-08
    118    121   2   0.50000    -0.1150000   -0.0650000   1.091018e-03  2.092768e-06
    127    121   2   0.50000     0.1150000   -0.0650000   2.262583e-04  1.374848e-07
    127    122   2   0.50000     0.1150000   -0.1150000   2.431434e-04  1.541678e-07
    119    128   2   0.50000    -0.1150000    0.0600000   2.680627e-04  1.873879e-07
    119    129   2   0.50000    -0.1150000    0.0600000   2.680627e-04  1.873879e-07
    119    130   2   0.50000    -0.1150000    0.0600000   2.680627e-04  1.873879e-07
    122    128   2   0.50000    -0.1150000    0.0600000   2.680627e-04  1.873879e-07
    122    129   2   0.50000    -0.1150000    0.0600000   2.680627e-04  1.873879e-07
    122    130   2   0.50000    -0.1150000    0.0600000   2.680627e-04  1.873879e-07
    119    131   2   0.50000    -0.1150000    0.1150000   2.431434e-04  1.541678e-07
    121    123   2   0.50000    -0.0650000   -0.1150000   1.091018e-03  2.092768e-06
    121    131   2   0.50000    -0.0650000    0.1150000   2.262583e-04  1.374848e-07
    120    132   2   0.50000    -0.1150000    0.1150000   2.431434e-04  1.541678e-07
    131    117   2   0.50000     0.1150000   -0.1150000   2.431434e-04  1.541678e-07
    131    132   2   0.50000     0.1150000    0.1150000   5.042375e-05  1.012808e-08
    116    136   2   0.50000     0.0550000   -0.1150000   1.091018e-03  2.092768e-06
    116    143   2   0.50000     0.0550000   -0.1200000   1.015252e-03  1.866303e-06
    116    144   2   0.50000     0.0550000    0.0600000   2.494471e-04  1.671101e-07
    133    136   2   0.50000     0.0600000   -0.1150000   2.680627e-04  1.873879e-07
    133    143   2   0.50000     0.0600000   -0.1200000   2.494471e-04  1.671101e-07
    133    144   2   0.50000     0.0600000    0.0600000   6.128906e-05  1.496315e-08
    134    136   2   0.50000     0.0600000   -0.1150000   2.680627e-04  1.873879e-07
    134    143   2   0.50000     0.0600000   -0.1200000   2.494471e-04  1.671101e-07
    134    144   2   0.50000     0.0600000    0.0600000   6.128906e-05  1.496315e-08
    124    137   2   0.50000    -0.1200000   -0.1150000   1.091018e-03  2.092768e-06
    124    142   2   0.50000    -0.1200000   -0.1150000   1.091018e-03  2.092768e-06
    143    137   2   0.50000    -0.1200000   -0.1150000   1.091018e-03  2.092768e-06
    143    142   2   0.50000    -0.1200000   -0.1150000   1.091018e-03  2.092768e-06
    144    137   2   0.50000     0.0600000   -0.1150000   2.680627e-04  1.873879e-07
    144    142   2   0.50000     0.0600000   -0.1150000   2.680627e-04  1.873879e-07
    124    152   2   0.50000    -0.1200000    0.0600000   2.494471e-04  1.671101e-07
    124    153   2   0.50000    -0.1200000    0.0600000   2.494471e-04  1.671101e-07
    124    154   2   0.50000    -0.1200000    0.0550000   1.015252e-03  1.866303e-06
    136    152   2   0.50000    -0.1150000    0.0600000   2.680627e-04  1.873879e-07
    136    153   2   0.50000    -0.1150000    0.0600000   2.680627e-04  1.873879e-07
    136    154   2   0.50000    -0.1150000    0.0550000   1.091018e-03  2.092768e-06
    144    152   2   0.50000     0.0600000    0.0600000   6.128906e-05  1.496315e-08
    144    153   2   0.50000     0.0600000    0.0600000   6.128906e-05  1.496315e-08
    144    154   2   0.50000     0.0600000    0.0550000   2.494471e-04  1.671101e-07
    135    138   2   0.50000     0.0550000   -0.1150000   1.091018e-03  2.092768e-06
    135    145   2   0.50000     0.0550000    0.1150000   2.262583e-04  1.374848e-07
    142    138   2   0.50000    -0.1150000   -0.1150000   1.172438e-03  2.346713e-06
    142    145   2   0.50000    -0.1150000    0.1150000   2.431434e-04  1.541678e-07
    135    141   2   0.50000     0.0550000   -0.1150000   1.091018e-03  2.092768e-06
    135    151   2   0.50000     0.0550000    0.1150000   2.262583e-04  1.374848e-07
    137    141   2   0.50000    -0.1150000   -0.1150000   1.172438e-03  2.346713e-06
    137    151   2   0.50000    -0.1150000    0.1150000   2.431434e-04  1.541678e-07
    136    139   2   0.50000    -0.1150000   -0.1150000   1.172438e-03  2.346713e-06
    136    146   2   0.50000    -0.1150000    0.1150000   2.431434e-04  1.541678e-07
    145    139   2   0.50000     0.1150000   -0.1150000   2.431434e-04  1.541678e-07
    145    146   2   0.50000     0.1150000    0.1150000   5.042375e-05  1.012808e-08
    137    140   2   0.50000    -0.1150000   -0.0650000   1.091018e-03  2.092768e-06
    146    140   2   0.50000     0.1150000   -0.0650000   2.262583e-04  1.374848e-07
    146    141   2   0.50000     0.1150000   -0.1150000   2.431434e-04  1.541678e-07
    138    147   2   0.50000    -0.1150000    0.0600000   2.680627e-04  1.873879e-07
    138    148   2   0.50000    -0.1150000    0.0600000   2.680627e-04  1.873879e-07
    138    149   2   0.50000    -0.1150000    0.0600000   2.680627e-04  1.873879e-07
    141    147   2   0.50000    -0.1150000    0.0600000   2.680627e-04  1.873879e-07
    141    148   2   0.50000    -0.1150000    0.0600000   2.680627e-04  1.873879e-07
    141    149   2   0.50000    -0.1150000    0.0600000   2.680627e-04  1.873879e-07
    138    150   2   0.50000    -0.1150000    0.1150000   2.431434e-04  1.541678e-07
    140    142   2   0.50000    -0.0650000   -0.1150000   1.091018e-03  2.092768e-06
    140    150   2   0.50000    -0.0650000    0.1150000   2.262583e-04  1.374848e-07
    139    151   2   0.50000    -0.1150000    0.1150000   2.431434e-04  1.541678e-07
    150    136   2   0.50000     0.1150000   -0.1150000   2.431434e-04  1.541678e-07
    150    151   2   0.50000     0.1150000    0.1150000   5.042375e-05  1.012808e-08
    135    155   2   0.50000     0.0550000   -0.1150000   1.091018e-03  2.092768e-06
    135    162   2   0.50000     0.0550000   -0.1200000   1.015252e-03  1.866303e-06
    135    163   2   0.50000     0.0550000    0.0600000   2.494471e-04  1.671101e-07
    152    155   2   0.50000     0.0600000   -0.1150000   2.680627e-04  1.873879e-07
    152    162   2   0.50000     0.0600000   -0.1200000   2.494471e-04  1.671101e-07
    152    163   2   0.50000     0.0600000    0.0600000   6.128906e-05  1.496315e-08
    153    155   2   0.50000     0.0600000   -0.1150000   2.680627e-04  1.873879e-07
    153    162   2   0.50000     0.0600000   -0.1200000   2.494471e-04  1.671101e-07
    153    163   2   0.50000     0.0600000    0.0600000   6.128906e-05  1.496315e-08
    143    156   2   0.50000    -0.1200000   -0.1150000   1.091018e-03  2.092768e-06
    143    161   2   0.50000    -0.1200000   -0.1150000   1.091018e-03  2.092768e-06
    162    156   2   0.50000    -0.1200000   -0.1150000   1.091018e-03  2.092768e-06
    162    161   2   0.50000    -0.1200000   -0.1150000   1.091018e-03  2.092768e-06
    163    156   2   0.50000     0.0600000   -0.1150000   2.680627e-04  1.873879e-07
    163    161   2   0.50000     0.0600000   -0.1150000   2.680627e-04  1.873879e-07
    143    171   2   0.50000    -0.1200000    0.0600000   2.494471e-04  1.671101e-07
    143    172   2   0.50000    -0.1200000    0.0600000   2.494471e-04  1.671101e-07
    143    173   2   0.50000    -0.1200000    0.0550000   1.015252e-03  1.866303e-06
    155    171   2   0.50000    -0.1150000    0.0600000   2.680627e-04  1.873879e-07
    155    172   2   0.50000    -0.1150000    0.0600000   2.680627e-04  1.873879e-07
    155    173   2   0.50000    -0.1150000    0.0550000   1.091018e-03  2.092768e-06
    163    171   2   0.50000     0.0600000    0.0600000   6.128906e-05  1.496315e-08
    163    172   2   0.50000     0.0600000    0.0600000   6.128906e-05  1.496315e-08
    163    173   2   0.50000     0.0600000    0.0550000   2.494471e-04  1.671101e-07
    154    157   2   0.50000     0.0550000   -0.1150000   1.091018e-03  2.092768e-06
    154    164   2   0.50000     0.0550000    0.1150000   2.262583e-04  1.374848e-07
    161    157   2   0.50000    -0.1150000   -0.1150000   1.172438e-03  2.346713e-06
    161    164   2   0.50000    -0.1150000    0.1150000   2.431434e-04  1.541678e-07
    154    160   2   0.50000     0.0550000   -0.1150000   1.091018e-03  2.092768e-06
    154    170   2   0.50000     0.0550000    0.1150000   2.262583e-04  1.374848e-07
    156    160   2   0.50000    -0.1150000   -0.1150000   1.172438e-03  2.346713e-06
    156    170   2   0.50000    -0.1150000    0.1150000   2.431434e-04  1.541678e-07
    155    158   2   0.50000    -0.1150000   -0.1150000   1.172438e-03  2.346713e-06
    155    165   2   0.50000    -0.1150000    0.1150000   2.431434e-04  1.541678e-07
    164    158   2   0.50000     0.1150000   -0.1150000   2.431434e-04  1.541678e-07
    164    165   2   0.50000     0.1150000    0.1150000   5.042375e-05  1.012808e-08
    156    159   2   0.50000    -0.1150000   -0.0650000   1.091018e-03  2.092768e-06
    165    159   2   0.50000     0.1150000   -0.0650000   2.262583e-04  1.374848e-07
    165    160   2   0.50000     0.1150000   -0.1150000   2.431434e-04  1.541678e-07
    157    166   2   0.50000    -0.1150000    0.0600000   2.680627e-04  1.873879e-07
    157    167   2   0.50000    -0.1150000    0.0600000   2.680627e-04  1.873879e-07
    157    168   2   0.50000    -0.1150000    0.0600000   2.680627e-04  1.873879e-07
    160    166   2   0.50000    -0.1150000    0.0600000   2.680627e-04  1.873879e-07
    160    167   2   0.50000    -0.1150000    0.0600000   2.680627e-04  1.873879e-07
    160    168   2   0.50000    -0.1150000    0.0600000   2.680627e-04  1.873879e-07
    157    169   2   0.50000    -0.1150000    0.1150000   2.431434e-04  1.541678e-07
    159    161   2   0.50000    -0.0650000   -0.1150000   1.091018e-03  2.092768e-06
    159    169   2   0.50000    -0.0650000    0.1150000   2.262583e-04  1.374848e-07
    158    170   2   0.50000    -0.1150000    0.1150000   2.431434e-04  1.541678e-07
    169    155   2   0.50000     0.1150000   -0.1150000   2.431434e-04  1.541678e-07
    169    170   2   0.50000     0.1150000    0.1150000   5.042375e-05  1.012808e-08
    154    174   2   0.50000     0.0550000   -0.1150000   1.091018e-03  2.092768e-06
    154    181   2   0.50000     0.0550000   -0.1200000   1.015252e-03  1.866303e-06
    154    182   2   0.50000     0.0550000    0.0600000   2.494471e-04  1.671101e-07
    171    174   2   0.50000     0.0600000   -0.1150000   2.680627e-04  1.873879e-07
    171    181   2   0.50000     0.0600000   -0.1200000   2.494471e-04  1.671101e-07
    171    182   2   0.50000     0.0600000    0.0600000   6.128906e-05  1.496315e-08
    172    174   2   0.50000     0.0600000   -0.1150000   2.680627e-04  1.873879e-07
    172    181   2   0.50000     0.0600000   -0.1200000   2.494471e-04  1.671101e-07
    172    182   2   0.50000     0.0600000    0.0600000   6.128906e-05  1.496315e-08
    162    175   2   0.50000    -0.1200000   -0.1150000   1.091018e-03  2.092768e-06
    162    180   2   0.50000    -0.1200000   -0.1150000   1.091018e-03  2.092768e-06
    181    175   2   0.50000    -0.1200000   -0.1150000   1.091018e-03  2.092768e-06
    181    180   2   0.50000    -0.1200000   -0.1150000   1.091018e-03  2.092768e-06
    182    175   2   0.50000     0.0600000   -0.1150000   2.680627e-04  1.873879e-07
    182    180   2   0.50000     0.0600000   -0.1150000   2.680627e-04  1.873879e-07
    162    190   2   0.50000    -0.1200000    0.0600000   2.494471e-04  1.671101e-07
    162    191   2   0.50000    -0.1200000    0.0600000   2.494471e-04  1.671101e-07
    162    192   2   0.50000    -0.1200000    0.0550000   1.015252e-03  1.866303e-06
    174    190   2   0.50000    -0.1150000    0.0600000   2.680627e-04  1.873879e-07
    174    191   2   0.50000    -0.1150000    0.0600000   2.680627e-04  1.873879e-07
    174    192   2   0.50000    -0.1150000    0.0550000   1.091018e-03  2.092768e-06
    182    190   2   0.50000     0.0600000    0.0600000   6.128906e-05  1.496315e-08
    182    191   2   0.50000     0.0600000    0.0600000   6.128906e-05  1.496315e-08
    182    192   2   0.50000     0.0600000    0.0550000   2.494471e-04  1.671101e-07
    173    176   2   0.50000     0.0550000   -0.1150000   1.091018e-03  2.092768e-06
    173    183   2   0.50000     0.0550000    0.1150000   2.262583e-04  1.374848e-07
    180    176   2   0.50000    -0.1150000   -0.1150000   1.172438e-03  2.346713e-06
    180    183   2   0.50000    -0.1150000    0.1150000   2.431434e-04  1.541678e-07
    173    179   2   0.50000     0.0550000   -0.1150000   1.091018e-03  2.092768e-06
    173    189   2   0.50000     0.0550000    0.1150000   2.262583e-04  1.374848e-07
    175    179   2   0.50000    -0.1150000   -0.1150000   1.172438e-03  2.346713e-06
    175    189   2   0.50000    -0.1150000    0.1150000   2.431434e-04  1.541678e-07
    174    177   2   0.50000    -0.1150000   -0.1150000   1.172438e-03  2.346713e-06
    174    184   2   0.50000    -0.1150000    0.1150000   2.431434e-04  1.541678e-07
    183    177   2   0.50000     0.1150000   -0.1150000   2.431434e-04  1.541678e-07
    183    184   2   0.50000     0.1150000    0.1150000   5.042375e-05  1.012808e-08
    175    178   2   0.50000    -0.1150000   -0.0650000   1.091018e-03  2.092768e-06
    184    178   2   0.50000     0.1150000   -0.0650000   2.262583e-04  1.374848e-07
    184    179   2   0.50000     0.1150000   -0.1150000   2.431434e-04  1.541678e-07
    176    185   2   0.50000    -0.1150000    0.0600000   2.680627e-04  1.873879e-07
    176    186   2   0.50000    -0.1150000    0.0600000   2.680627e-04  1.873879e-07
    176    187   2   0.50000    -0.1150000    0.0600000   2.680627e-04  1.873879e-07
    179    185   2   0.50000    -0.1150000    0.0600000   2.680627e-04  1.873879e-07
    179    186   2   0.50000    -0.1150000    0.0600000   2.680627e-04  1.873879e-07
    179    187   2   0.50000    -0.1150000    0.0600000   2.680627e-04  1.873879e-07
    176    188   2   0.50000    -0.1150000    0.1150000   2.431434e-04  1.541678e-07
    178    180   2   0.50000    -0.0650000   -0.1150000   1.091018e-03  2.092768e-06
    178    188   2   0.50000    -0.0650000    0.1150000   2.262583e-04  1.374848e-07
    177    189   2   0.50000    -0.1150000    0.1150000   2.431434e-04  1.541678e-07
    188    174   2   0.50000     0.1150000   -0.1150000   2.431434e-04  1.541678e-07
    188    189   2   0.50000     0.1150000    0.1150000   5.042375e-05  1.012808e-08
    173    193   2   0.50000     0.0550000   -0.1150000   1.091018e-03  2.092768e-06
    173    200   2   0.50000     0.0550000   -0.1200000   1.015252e-03  1.866303e-06
    173    201   2   0.50000     0.0550000    0.0600000   2.494471e-04  1.671101e-07
    190    193   2   0.50000     0.0600000   -0.1150000   2.680627e-04  1.873879e-07
    190    200   2   0.50000     0.0600000   -0.1200000   2.494471e-04  1.671101e-07
    190    201   2   0.50000     0.0600000    0.0600000   6.128906e-05  1.496315e-08
    191    193   2   0.50000     0.0600000   -0.1150000   2.680627e-04  1.873879e-07
    191    200   2   0.50000     0.0600000   -0.1200000   2.494471e-04  1.671101e-07
    191    201   2   0.50000     0.0600000    0.0600000   6.128906e-05  1.496315e-08
    181    194   2   0.50000    -0.1200000   -0.1150000   1.091018e-03  2.092768e-06
    181    199   2   0.50000    -0.1200000   -0.1150000   1.091018e-03  2.092768e-06
    200    194   2   0.50000    -0.1200000   -0.1150000   1.091018e-03  2.092768e-06
    200    199   2   0.50000    -0.1200000   -0.1150000   1.091018e-03  2.092768e-06
    201    194   2   0.50000     0.0600000   -0.1150000   2.680627e-04  1.873879e-07
    201    199   2   0.50000     0.0600000   -0.1150000   2.680627e-04  1.873879e-07
    181    209   2   0.50000    -0.1200000    0.0600000   2.494471e-04  1.671101e-07
    181    210   2   0.50000    -0.1200000    0.0600000   2.494471e-04  1.671101e-07
    181    211   2   0.50000    -0.1200000    0.0550000   1.015252e-03  1.866303e-06
    193    209   2   0.50000    -0.1150000    0.0600000   2.680627e-04  1.873879e-07
    193    210   2   0.50000    -0.1150000    0.0600000   2.680627e-04  1.873879e-07
    193    211   2   0.50000    -0.1150000    0.0550000   1.091018e-03  2.092768e-06
    201    209   2   0.50000     0.0600000    0.0600000   6.128906e-05  1.496315e-08
    201    210   2   0.50000     0.0600000    0.0600000   6.128906e-05  1.496315e-08
    201    211   2   0.50000     0.0600000    0.0550000   2.494471e-04  1.671101e-07
    192    195   2   0.50000     0.0550000   -0.1150000   1.091018e-03  2.092768e-06
    192    202   2   0.50000     0.0550000    0.1150000   2.262583e-04  1.374848e-07
    199    195   2   0.50000    -0.1150000   -0.1150000   1.172438e-03  2.346713e-06
    199    202   2   0.50000    -0.1150000    0.1150000   2.431434e-04  1.541678e-07
    192    198   2   0.50000     0.0550000   -0.1150000   1.091018e-03  2.092768e-06
    192    208   2   0.50000     0.0550000    0.1150000   2.262583e-04  1.374848e-07
    194    198   2   0.50000    -0.1150000   -0.1150000   1.172438e-03  2.346713e-06
    194    208   2   0.50000    -0.1150000    0.1150000   2.431434e-04  1.541678e-07
    193    196   2   0.50000    -0.1150000   -0.1150000   1.172438e-03  2.346713e-06
    193    203   2   0.50000    -0.1150000    0.1150000   2.431434e-04  1.541678e-07
    202    196   2   0.50000     0.1150000   -0.1150000   2.431434e-04  1.541678e-07
    202    203   2   0.50000     0.1150000    0.1150000   5.042375e-05  1.012808e-08
    194    197   2   0.50000    -0.1150000   -0.0650000   1.091018e-03  2.092768e-06
    203    197   2   0.50000     0.1150000   -0.0650000   2.262583e-04  1.374848e-07
    203    198   2   0.50000     0.1150000   -0.1150000   2.431434e-04  1.541678e-07
    195    204   2   0.50000    -0.1150000    0.0600000   2.680627e-04  1.873879e-07
    195    205   2   0.50000    -0.1150000    0.0600000   2.680627e-04  1.873879e-07
    195    206   2   0.50000    -0.1150000    0.0600000   2.680627e-04  1.873879e-07
    198    204   2   0.50000    -0.1150000    0.0600000   2.680627e-04  1.873879e-07
    198    205   2   0.50000    -0.1150000    0.0600000   2.680627e-04  1.873879e-07
    198    206   2   0.50000    -0.1150000    0.0600000   2.680627e-04  1.873879e-07
    195    207   2   0.50000    -0.1150000    0.1150000   2.431434e-04  1.541678e-07
    197    199   2   0.50000    -0.0650000   -0.1150000   1.091018e-03  2.092768e-06
    197    207   2   0.50000    -0.0650000    0.1150000   2.262583e-04  1.374848e-07
    196    208   2   0.50000    -0.1150000    0.1150000   2.431434e-04  1.541678e-07
    207    193   2   0.50000     0.1150000   -0.1150000   2.431434e-04  1.541678e-07
    207    208   2   0.50000     0.1150000    0.1150000   5.042375e-05  1.012808e-08
    192    212   2   0.50000     0.0550000   -0.1150000   1.091018e-03  2.092768e-06
    192    219   2   0.50000     0.0550000   -0.1200000   1.015252e-03  1.866303e-06
    192    220   2   0.50000     0.0550000    0.0600000   2.494471e-04  1.671101e-07
    209    212   2   0.50000     0.0600000   -0.1150000   2.680627e-04  1.873879e-07
    209    219   2   0.50000     0.0600000   -0.1200000   2.494471e-04  1.671101e-07
    209    220   2   0.50000     0.0600000    0.0600000   6.128906e-05  1.496315e-08
    210    212   2   0.50000     0.0600000   -0.1150000   2.680627e-04  1.873879e-07
    210    219   2   0.50000     0.0600000   -0.1200000   2.494471e-04  1.671101e-07
    210    220   2   0.50000     0.0600000    0.0600000   6.128906e-05  1.496315e-08
    200    213   2   0.50000    -0.1200000   -0.1150000   1.091018e-03  2.092768e-06
    200    218   2   0.50000    -0.1200000   -0.1150000   1.091018e-03  2.092768e-06
    219    213   2   0.50000    -0.1200000   -0.1150000   1.091018e-03  2.092768e-06
    219    218   2   0.50000    -0.1200000   -0.1150000   1.091018e-03  2.092768e-06
    220    213   2   0.50000     0.0600000   -0.1150000   2.680627e-04  1.873879e-07
    220    218   2   0.50000     0.0600000   -0.1150000   2.680627e-04  1.873879e-07
    200    228   2   0.50000    -0.1200000    0.0600000   2.494471e-04  1.671101e-07
    200    229   2   0.50000    -0.1200000    0.0600000   2.494471e-04  1.671101e-07
    200    230   2   0.50000    -0.1200000    0.0550000   1.015252e-03  1.866303e-06
    212    228   2   0.50000    -0.1150000    0.0600000   2.680627e-04  1.873879e-07
    212    229   2   0.50000    -0.1150000    0.0600000   2.680627e-04  1.873879e-07
    212    230   2   0.50000    -0.1150000    0.0550000   1.091018e-03  2.092768e-06
    220    228   2   0.50000     0.0600000    0.0600000   6.128906e-05  1.496315e-08
    220    229   2   0.50000     0.0600000    0.0600000   6.128906e-05  1.496315e-08
    220    230   2   0.50000     0.0600000    0.0550000   2.494471e-04  1.671101e-07
    211    214   2   0.50000     0.0550000   -0.1150000   1.091018e-03  2.092768e-06
    211    221   2   0.50000     0.0550000    0.1150000   2.262583e-04  1.374848e-07
    218    214   2   0.50000    -0.1150000   -0.1150000   1.172438e-03  2.346713e-06
    218    221   2   0.50000    -0.1150000    0.1150000   2.431434e-04  1.541678e-07
    211    217   2   0.50000     0.0550000   -0.1150000   1.091018e-03  2.092768e-06
    211    227   2   0.50000     0.0550000    0.1150000   2.262583e-04  1.374848e-07
    213    217   2   0.50000    -0.1150000   -0.1150000   1.172438e-03  2.346713e-06
    213    227   2   0.50000    -0.1150000    0.1150000   2.431434e-04  1.541678e-07
    212    215   2   0.50000    -0.1150000   -0.1150000   1.172438e-03  2.346713e-06
    212    222   2   0.50000    -0.1150000    0.1150000   2.431434e-04  1.541678e-07
    221    215   2   0.50000     0.1150000   -0.1150000   2.431434e-04  1.541678e-07
    221    222   2   0.50000     0.1150000    0.1150000   5.042375e-05  1.012808e-08
    213    216   2   0.50000    -0.1150000   -0.0650000   1.091018e-03  2.092768e-06
    222    216   2   0.50000     0.1150000   -0.0650000   2.262583e-04  1.374848e-07
    222    217   2   0.50000     0.1150000   -0.1150000   2.431434e-04  1.541678e-07
    214    223   2   0.50000    -0.1150000    0.0600000   2.680627e-04  1.873879e-07
    214    224   2   0.50000    -0.1150000    0.0600000   2.680627e-04  1.873879e-07
    214    225   2   0.50000    -0.1150000    0.0600000   2.680627e-04  1.873879e-07
    217    223   2   0.50000    -0.1150000    0.0600000   2.680627e-04  1.873879e-07
    217    224   2   0.50000    -0.1150000    0.0600000   2.680627e-04  1.873879e-07
    217    225   2   0.50000    -0.1150000    0.0600000   2.680627e-04  1.873879e-07
    214    226   2   0.50000    -0.1150000    0.1150000   2.431434e-04  1.541678e-07
    216    218   2   0.50000    -0.0650000   -0.1150000   1.091018e-03  2.092768e-06
    216    226   2   0.50000    -0.0650000    0.1150000   2.262583e-04  1.374848e-07
    215    227   2   0.50000    -0.1150000    0.1150000   2.431434e-04  1.541678e-07
    226    212   2   0.50000     0.1150000   -0.1150000   2.431434e-04  1.541678e-07
    226    227   2   0.50000     0.1150000    0.1150000   5.042375e-05  1.012808e-08
    211    231   2   0.50000     0.0550000   -0.1150000   1.091018e-03  2.092768e-06
    211    238   2   0.50000     0.0550000   -0.1200000   1.015252e-03  1.866303e-06
    211    239   2   0.50000     0.0550000    0.0600000   2.494471e-04  1.671101e-07
    228    231   2   0.50000     0.0600000   -0.1150000   2.680627e-04  1.873879e-07
    228    238   2   0.50000     0.0600000   -0.1200000   2.494471e-04  1.671101e-07
    228    239   2   0.50000     0.0600000    0.0600000   6.128906e-05  1.496315e-08
    229    231   2   0.50000     0.0600000   -0.1150000   2.680627e-04  1.873879e-07
    229    238   2   0.50000     0.0600000   -0.1200000   2.494471e-04  1.671101e-07
    229    239   2   0.50000     0.0600000    0.0600000   6.128906e-05  1.496315e-08
    219    232   2   0.50000    -0.1200000   -0.1150000   1.091018e-03  2.092768e-06
    219    237   2   0.50000    -0.1200000   -0.1150000   1.091018e-03  2.092768e-06
    238    232   2   0.50000    -0.1200000   -0.1150000   1.091018e-03  2.092768e-06
    238    237   2   0.50000    -0.1200000   -0.1150000   1.091018e-03  2.092768e-06
    239    232   2   0.50000     0.0600000   -0.1150000   2.680627e-04  1.873879e-07
    239    237   2   0.50000     0.0600000   -0.1150000   2.680627e-04  1.873879e-07
    219    247   2   0.50000    -0.1200000    0.0600000   2.494471e-04  1.671101e-07
    219    248   2   0.50000    -0.1200000    0.0600000   2.494471e-04  1.671101e-07
    219    249   2   0.50000    -0.1200000    0.0550000   1.015252e-03  1.866303e-06
    231    247   2   0.50000    -0.1150000    0.0600000   2.680627e-04  1.873879e-07
    231    248   2   0.50000    -0.1150000    0.0600000   2.680627e-04  1.873879e-07
    231    249   2   0.50000    -0.1150000    0.0550000   1.091018e-03  2.092768e-06
    239    247   2   0.50000     0.0600000    0.0600000   6.128906e-05  1.496315e-08
    239    248   2   0.50000     0.0600000    0.0600000   6.128906e-05  1.496315e-08
    239    249   2   0.50000     0.0600000    0.0550000   2.494471e-04  1.671101e-07
    230    233   2   0.50000     0.0550000   -0.1150000   1.091018e-03  2.092768e-06
    230    240   2   0.50000     0.0550000    0.1150000   2.262583e-04  1.374848e-07
    237    233   2   0.50000    -0.1150000   -0.1150000   1.172438e-03  2.346713e-06
    237    240   2   0.50000    -0.1150000    0.1150000   2.431434e-04  1.541678e-07
    230    236   2   0.50000     0.0550000   -0.1150000   1.091018e-03  2.092768e-06
    230    246   2   0.50000     0.0550000    0.1150000   2.262583e-04  1.374848e-07
    232    236   2   0.50000    -0.1150000   -0.1150000   1.172438e-03  2.346713e-06
    232    246   2   0.50000    -0.1150000    0.1150000   2.431434e-04  1.541678e-07
    231    234   2   0.50000    -0.1150000   -0.1150000   1.172438e-03  2.346713e-06
    231    241   2   0.50000    -0.1150000    0.1150000   2.431434e-04  1.541678e-07
    240    234   2   0.50000     0.1150000   -0.1150000   2.431434e-04  1.541678e-07
    240    241   2   0.50000     0.1150000    0.1150000   5.042375e-05  1.012808e-08
    232    235   2   0.50000    -0.1150000   -0.0650000   1.091018e-03  2.092768e-06
    241    235   2   0.50000     0.1150000   -0.0650000   2.262583e-04  1.374848e-07
    241    236   2   0.50000     0.1150000   -0.1150000   2.431434e-04  1.541678e-07
    233    242   2   0.50000    -0.1150000    0.0600000   2.680627e-04  1.873879e-07
    233    243   2   0.50000    -0.1150000    0.0600000   2.680627e-04  1.873879e-07
    233    244   2   0.50000    -0.1150000    0.0600000   2.680627e-04  1.873879e-07
    236    242   2   0.50000    -0.1150000    0.0600000   2.680627e-04  1.873879e-07
    236    243   2   0.50000    -0.1150000    0.0600000   2.680627e-04  1.873879e-07
    236    244   2   0.50000    -0.1150000    0.0600000   2.680627e-04  1.873879e-07
    233    245   2   0.50000    -0.1150000    0.1150000   2.431434e-04  1.541678e-07
    235    237   2   0.50000    -0.0650000   -0.1150000   1.091018e-03  2.092768e-06
    235    245   2   0.50000    -0.0650000    0.1150000   2.262583e-04  1.374848e-07
    234    246   2   0.50000    -0.1150000    0.1150000   2.431434e-04  1.541678e-07
    245    231   2   0.50000     0.1150000   -0.1150000   2.431434e-04  1.541678e-07
    245    246   2   0.50000     0.1150000    0.1150000   5.042375e-05  1.012808e-08
    230    250   2   0.50000     0.0550000   -0.1150000   1.091018e-03  2.092768e-06
    230    257   2   0.50000     0.0550000   -0.1200000   1.015252e-03  1.866303e-06
    230    258   2   0.50000     0.0550000    0.0600000   2.494471e-04  1.671101e-07
    247    250   2   0.50000     0.0600000   -0.1150000   2.680627e-04  1.873879e-07
    247    257   2   0.50000     0.0600000   -0.1200000   2.494471e-04  1.671101e-07
    247    258   2   0.50000     0.0600000    0.0600000   6.128906e-05  1.496315e-08
    248    250   2   0.50000     0.0600000   -0.1150000   2.680627e-04  1.873879e-07
    248    257   2   0.50000     0.0600000   -0.1200000   2.494471e-04  1.671101e-07
    248    258   2   0.50000     0.0600000    0.0600000   6.128906e-05  1.496315e-08
    238    251   2   0.50000    -0.1200000   -0.1150000   1.091018e-03  2.092768e-06
    238    256   2   0.50000    -0.1200000   -0.1150000   1.091018e-03  2.092768e-06
    257    251   2   0.50000    -0.1200000   -0.1150000   1.091018e-03  2.092768e-06
    257    256   2   0.50000    -0.1200000   -0.1150000   1.091018e-03  2.092768e-06
    258    251   2   0.50000     0.0600000   -0.1150000   2.680627e-04  1.873879e-07
    258    256   2   0.50000     0.0600000   -0.1150000   2.680627e-04  1.873879e-07
    238    266   2   0.50000    -0.1200000    0.0600000   2.494471e-04  1.671101e-07
    238    267   2   0.50000    -0.1200000    0.0600000   2.494471e-04  1.671101e-07
    238    268   2   0.50000    -0.1200000    0.0550000   1.015252e-03  1.866303e-06
    250    266   2   0.50000    -0.1150000    0.0600000   2.680627e-04  1.873879e-07
    250    267   2   0.50000    -0.1150000    0.0600000   2.680627e-04  1.873879e-07
    250    268   2   0.50000    -0.1150000    0.0550000   1.091018e-03  2.092768e-06
    258    266   2   0.50000     0.0600000    0.0600000   6.128906e-05  1.496315e-08
    258    267   2   0.50000     0.0600000    0.0600000   6.128906e-05  1.496315e-08
    258    268   2   0.50000     0.0600000    0.0550000   2.494471e-04  1.671101e-07
    249    252   2   0.50000     0.0550000   -0.1150000   1.091018e-03  2.092768e-06
    249    259   2   0.50000     0.0550000    0.1150000   2.262583e-04  1.374848e-07
    256    252   2   0.50000    -0.1150000   -0.1150000   1.172438e-03  2.346713e-06
    256    259   2   0.50000    -0.1150000    0.1150000   2.431434e-04  1.541678e-07
    249    255   2   0.50000     0.0550000   -0.1150000   1.091018e-03  2.092768e-06
    249    265   2   0.50000     0.0550000    0.1150000   2.262583e-04  1.374848e-07
    251    255   2   0.50000    -0.1150000   -0.1150000   1.172438e-03  2.346713e-06
    251    265   2   0.50000    -0.1150000    0.1150000   2.431434e-04  1.541678e-07
    250    253   2   0.50000    -0.1150000   -0.1150000   1.172438e-03  2.346713e-06
    250    260   2   0.50000    -0.1150000    0.1150000   2.431434e-04  1.541678e-07
    259    253   2   0.50000     0.1150000   -0.1150000   2.431434e-04  1.541678e-07
    259    260   2   0.50000     0.1150000    0.1150000   5.042375e-05  1.012808e-08
    251    254   2   0.50000    -0.1150000   -0.0650000   1.091018e-03  2.092768e-06
    260    254   2   0.50000     0.1150000   -0.0650000   2.262583e-04  1.374848e-07
    260    255   2   0.50000     0.1150000   -0.1150000   2.431434e-04  1.541678e-07
    252    261   2   0.50000    -0.1150000    0.0600000   2.680627e-04  1.873879e-07
    252    262   2   0.50000    -0.1150000    0.0600000   2.680627e-04  1.873879e-07
    252    263   2   0.50000    -0.1150000    0.0600000   2.680627e-04  1.873879e-07
    255    261   2   0.50000    -0.1150000    0.0600000   2.680627e-04  1.873879e-07
    255    262   2   0.50000    -0.1150000    0.0600000   2.680627e-04  1.873879e-07
    255    263   2   0.50000    -0.1150000    0.0600000   2.680627e-04  1.873879e-07
    252    264   2   0.50000    -0.1150000    0.1150000   2.431434e-04  1.541678e-07
    254    256   2   0.50000    -0.0650000   -0.1150000   1.091018e-03  2.092768e-06
    254    264   2   0.50000    -0.0650000    0.1150000   2.262583e-04  1.374848e-07
    253    265   2   0.50000    -0.1150000    0.1150000   2.431434e-04  1.541678e-07
    264    250   2   0.50000     0.1150000   -0.1150000   2.431434e-04  1.541678e-07
    264    265   2   0.50000     0.1150000    0.1150000   5.042375e-05  1.012808e-08
    249    269   2   0.50000     0.0550000   -0.1150000   1.091018e-03  2.092768e-06
    249    276   2   0.50000     0.0550000   -0.1200000   1.015252e-03  1.866303e-06
    249    277   2   0.50000     0.0550000    0.0600000   2.494471e-04  1.671101e-07
    266    269   2   0.50000     0.0600000   -0.1150000   2.680627e-04  1.873879e-07
    266    276   2   0.50000     0.0600000   -0.1200000   2.494471e-04  1.671101e-07
    266    277   2   0.50000     0.0600000    0.0600000   6.128906e-05  1.496315e-08
    267    269   2   0.50000     0.0600000   -0.1150000   2.680627e-04  1.873879e-07
    267    276   2   0.50000     0.0600000   -0.1200000   2.494471e-04  1.671101e-07
    267    277   2   0.50000     0.0600000    0.0600000   6.128906e-05  1.496315e-08
    257    270   2   0.50000    -0.1200000   -0.1150000   1.091018e-03  2.092768e-06
    257    275   2   0.50000    -0.1200000   -0.1150000   1.091018e-03  2.092768e-06
    276    270   2   0.50000    -0.1200000   -0.1150000   1.091018e-03  2.092768e-06
    276    275   2   0.50000    -0.1200000   -0.1150000   1.091018e-03  2.092768e-06
    277    270   2   0.50000     0.0600000   -0.1150000   2.680627e-04  1.873879e-07
    277    275   2   0.50000     0.0600000   -0.1150000   2.680627e-04  1.873879e-07
    257    285   2   0.50000    -0.1200000    0.0600000   2.494471e-04  1.671101e-07
    257    286   2   0.50000    -0.1200000    0.0600000   2.494471e-04  1.671101e-07
    257    287   2   0.50000    -0.1200000    0.0550000   1.015252e-03  1.866303e-06
    269    285   2   0.50000    -0.1150000    0.0600000   2.680627e-04  1.873879e-07
    269    286   2   0.50000    -0.1150000    0.0600000   2.680627e-04  1.873879e-07
    269    287   2   0.50000    -0.1150000    0.0550000   1.091018e-03  2.092768e-06
    277    285   2   0.50000     0.0600000    0.0600000   6.128906e-05  1.496315e-08
    277    286   2   0.50000     0.0600000    0.0600000   6.128906e-05  1.496315e-08
    277    287   2   0.50000     0.0600000    0.0550000   2.494471e-04  1.671101e-07
    268    271   2   0.50000     0.0550000   -0.1150000   1.091018e-03  2.092768e-06
    268    278   2   0.50000     0.0550000    0.1150000   2.262583e-04  1.374848e-07
    275    271   2   0.50000    -0.1150000   -0.1150000   1.172438e-03  2.346713e-06
    275    278   2   0.50000    -0.1150000    0.1150000   2.431434e-04  1.541678e-07
    268    274   2   0.50000     0.0550000   -0.1150000   1.091018e-03  2.092768e-06
    268    284   2   0.50000     0.0550000    0.1150000   2.262583e-04  1.374848e-07
    270    274   2   0.50000    -0.1150000   -0.1150000   1.172438e-03  2.346713e-06
    270    284   2   0.50000    -0.1150000    0.1150000   2.431434e-04  1.541678e-07
    269    272   2   0.50000    -0.1150000   -0.1150000   1.172438e-03  2.346713e-06
    269    279   2   0.50000    -0.1150000    0.1150000   2.431434e-04  1.541678e-07
    278    272   2   0.50000     0.1150000   -0.1150000   2.431434e-04  1.541678e-07
    278    279   2   0.50000     0.1150000    0.1150000   5.042375e-05  1.012808e-08
    270    273   2   0.50000    -0.1150000   -0.0650000   1.091018e-03  2.092768e-06
    279    273   2   0.50000     0.1150000   -0.0650000   2.262583e-04  1.374848e-07
    279    274   2   0.50000     0.1150000   -0.1150000   2.431434e-04  1.541678e-07
    271    280   2   0.50000    -0.1150000    0.0600000   2.680627e-04  1.873879e-07
    271    281   2   0.50000    -0.1150000    0.0600000   2.680627e-04  1.873879e-07
    271    282   2   0.50000    -0.1150000    0.0600000   2.680627e-04  1.873879e-07
    274    280   2   0.50000    -0.1150000    0.0600000   2.680627e-04  1.873879e-07
    274    281   2   0.50000    -0.1150000    0.0600000   2.680627e-04  1.873879e-07
    274    282   2   0.50000    -0.1150000    0.0600000   2.680627e-04  1.873879e-07
    271    283   2   0.50000    -0.1150000    0.1150000   2.431434e-04  1.541678e-07
    273    275   2   0.50000    -0.0650000   -0.1150000   1.091018e-03  2.092768e-06
    273    283   2   0.50000    -0.0650000    0.1150000   2.262583e-04  1.374848e-07
    272    284   2   0.50000    -0.1150000    0.1150000   2.431434e-04  1.541678e-07
    283    269   2   0.50000     0.1150000   -0.1150000   2.431434e-04  1.541678e-07
    283    284   2   0.50000     0.1150000    0.1150000   5.042375e-05  1.012808e-08
    268    288   2   0.50000     0.0550000   -0.1150000   1.091018e-03  2.092768e-06
    268    295   2   0.50000     0.0550000   -0.1200000   1.015252e-03  1.866303e-06
    268    296   2   0.50000     0.0550000    0.0600000   2.494471e-04  1.671101e-07
    285    288   2   0.50000     0.0600000   -0.1150000   2.680627e-04  1.873879e-07
    285    295   2   0.50000     0.0600000   -0.1200000   2.494471e-04  1.671101e-07
    285    296   2   0.50000     0.0600000    0.0600000   6.128906e-05  1.496315e-08
    286    288   2   0.50000     0.0600000   -0.1150000   2.680627e-04  1.873879e-07
    286    295   2   0.50000     0.0600000   -0.1200000   2.494471e-04  1.671101e-07
    286    296   2   0.50000     0.0600000    0.0600000   6.128906e-05  1.496315e-08
    276    289   2   0.50000    -0.1200000   -0.1150000   1.091018e-03  2.092768e-06
    276    294   2   0.50000    -0.1200000   -0.1150000   1.091018e-03  2.092768e-06
    295    289   2   0.50000    -0.1200000   -0.1150000   1.091018e-03  2.092768e-06
    295    294   2   0.50000    -0.1200000   -0.1150000   1.091018e-03  2.092768e-06
    296    289   2   0.50000     0.0600000   -0.1150000   2.680627e-04  1.873879e-07
    296    294   2   0.50000     0.0600000   -0.1150000   2.680627e-04  1.873879e-07
    276    304   2   0.50000    -0.1200000    0.0600000   2.494471e-04  1.671101e-07
    276    305   2   0.50000    -0.1200000    0.0600000   2.494471e-04  1.671101e-07
    276    306   2   0.50000    -0.1200000    0.0550000   1.015252e-03  1.866303e-06
    288    304   2   0.50000    -0.1150000    0.0600000   2.680627e-04  1.873879e-07
    288    305   2   0.50000    -0.1150000    0.0600000   2.680627e-04  1.873879e-07
    288    306   2   0.50000    -0.1150000    0.0550000   1.091018e-03  2.092768e-06
    296    304   2   0.50000     0.0600000    0.0600000   6.128906e-05  1.496315e-08
    296    305   2   0.50000     0.0600000    0.0600000   6.128906e-05  1.496315e-08
    296    306   2   0.50000     0.0600000    0.0550000   2.494471e-04  1.671101e-07
    287    290   2   0.50000     0.0550000   -0.1150000   1.091018e-03  2.092768e-06
    287    297   2   0.50000     0.0550000    0.1150000   2.262583e-04  1.374848e-07
    294    290   2   0.50000    -0.1150000   -0.1150000   1.172438e-03  2.346713e-06
    294    297   2   0.50000    -0.1150000    0.1150000   2.431434e-04  1.541678e-07
    287    293   2   0.50000     0.0550000   -0.1150000   1.091018e-03  2.092768e-06
    287    303   2   0.50000     0.0550000    0.1150000   2.262583e-04  1.374848e-07
    289    293   2   0.50000    -0.1150000   -0.1150000   1.172438e-03  2.346713e-06
    289    303   2   0.50000    -0.1150000    0.1150000   2.431434e-04  1.541678e-07
    288    291   2   0.50000    -0.1150000   -0.1150000   1.172438e-03  2.346713e-06
    288    298   2   0.50000    -0.1150000    0.1150000   2.431434e-04  1.541678e-07
    297    291   2   0.50000     0.1150000   -0.1150000   2.431434e-04  1.541678e-07
    297    298   2   0.50000     0.1150000    0.1150000   5.042375e-05  1.012808e-08
    289    292   2   0.50000    -0.1150000   -0.0650000   1.091018e-03  2.092768e-06
    298    292   2   0.50000     0.1150000   -0.0650000   2.262583e-04  1.374848e-07
    298    293   2   0.50000     0.1150000   -0.1150000   2.431434e-04  1.541678e-07
    290    299   2   0.50000    -0.1150000    0.0600000   2.680627e-04  1.873879e-07
    290    300   2   0.50000    -0.1150000    0.0600000   2.680627e-04  1.873879e-07
    290    301   2   0.50000    -0.1150000    0.0600000   2.680627e-04  1.873879e-07
    293    299   2   0.50000    -0.1150000    0.0600000   2.680627e-04  1.873879e-07
    293    300   2   0.50000    -0.1150000    0.0600000   2.680627e-04  1.873879e-07
    293    301   2   0.50000    -0.1150000    0.0600000   2.680627e-04  1.873879e-07
    290    302   2   0.50000    -0.1150000    0.1150000   2.431434e-04  1.541678e-07
    292    294   2   0.50000    -0.0650000   -0.1150000   1.091018e-03  2.092768e-06
    292    302   2   0.50000    -0.0650000    0.1150000   2.262583e-04  1.374848e-07
    291    303   2   0.50000    -0.1150000    0.1150000   2.431434e-04  1.541678e-07
    302    288   2   0.50000     0.1150000   -0.1150000   2.431434e-04  1.541678e-07
    302    303   2   0.50000     0.1150000    0.1150000   5.042375e-05  1.012808e-08
    287    307   2   0.50000     0.0550000   -0.1150000   1.091018e-03  2.092768e-06
    287    314   2   0.50000     0.0550000   -0.1200000   1.015252e-03  1.866303e-06
    287    315   2   0.50000     0.0550000    0.0600000   2.494471e-04  1.671101e-07
    304    307   2   0.50000     0.0600000   -0.1150000   2.680627e-04  1.873879e-07
    304    314   2   0.50000     0.0600000   -0.1200000   2.494471e-04  1.671101e-07
    304    315   2   0.50000     0.0600000    0.0600000   6.128906e-05  1.496315e-08
    305    307   2   0.50000     0.0600000   -0.1150000   2.680627e-04  1.873879e-07
    305    314   2   0.50000     0.0600000   -0.1200000   2.494471e-04  1.671101e-07
    305    315   2   0.50000     0.0600000    0.0600000   6.128906e-05  1.496315e-08
    295    308   2   0.50000    -0.1200000   -0.1150000   1.091018e-03  2.092768e-06
    295    313   2   0.50000    -0.1200000   -0.1150000   1.091018e-03  2.092768e-06
    314    308   2   0.50000    -0.1200000   -0.1150000   1.091018e-03  2.092768e-06
    314    313   2   0.50000    -0.1200000   -0.1150000   1.091018e-03  2.092768e-06
    315    308   2   0.50000     0.0600000   -0.1150000   2.680627e-04  1.873879e-07
    315    313   2   0.50000     0.0600000   -0.1150000   2.680627e-04  1.873879e-07
    295    323   2   0.50000    -0.1200000    0.0600000   2.494471e-04  1.671101e-07
    295    324   2   0.50000    -0.1200000    0.0600000   2.494471e-04  1.671101e-07
    295    325   2   0.50000    -0.1200000    0.0550000   1.015252e-03  1.866303e-06
    307    323   2   0.50000    -0.1150000    0.0600000   2.680627e-04  1.873879e-07
    307    324   2   0.50000    -0.1150000    0.0600000   2.680627e-04  1.873879e-07
    307    325   2   0.50000    -0.1150000    0.0550000   1.091018e-03  2.092768e-06
    315    323   2   0.50000     0.0600000    0.0600000   6.128906e-05  1.496315e-08
    315    324   2   0.50000     0.0600000    0.0600000   6.128906e-05  1.496315e-08
    315    325   2   0.50000     0.0600000    0.0550000   2.494471e-04  1.671101e-07
    306    309   2   0.50000     0.0550000   -0.1150000   1.091018e-03  2.092768e-06
    306    316   2   0.50000     0.0550000    0.1150000   2.262583e-04  1.374848e-07
    313    309   2   0.50000    -0.1150000   -0.1150000   1.172438e-03  2.346713e-06
    313    316   2   0.50000    -0.1150000    0.1150000   2.431434e-04  1.541678e-07
    306    312   2   0.50000     0.0550000   -0.1150000   1.091018e-03  2.092768e-06
    306    322   2   0.50000     0.0550000    0.1150000   2.262583e-04  1.374848e-07
    308    312   2   0.50000    -0.1150000   -0.1150000   1.172438e-03  2.346713e-06
    308    322   2   0.50000    -0.1150000    0.1150000   2.431434e-04  1.541678e-07
    307    310   2   0.50000    -0.1150000   -0.1150000   1.172438e-03  2.346713e-06
    307    317   2   0.50000    -0.1150000    0.1150000   2.431434e-04  1.541678e-07
    316    310   2   0.50000     0.1150000   -0.1150000   2.431434e-04  1.541678e-07
    316    317   2   0.50000     0.1150000    0.1150000   5.042375e-05  1.012808e-08
    308    311   2   0.50000    -0.1150000   -0.0650000   1.091018e-03  2.092768e-06
    317    311   2   0.50000     0.1150000   -0.0650000   2.262583e-04  1.374848e-07
    317    312   2   0.50000     0.1150000   -0.1150000   2.431434e-04  1.541678e-07
    309    318   2   0.50000    -0.1150000    0.0600000   2.680627e-04  1.873879e-07
    309    319   2   0.50000    -0.1150000    0.0600000   2.680627e-04  1.873879e-07
    309    320   2   0.50000    -0.1150000    0.0600000   2.680627e-04  1.873879e-07
    312    318   2   0.50000    -0.1150000    0.0600000   2.680627e-04  1.873879e-07
    312    319   2   0.50000    -0.1150000    0.0600000   2.680627e-04  1.873879e-07
    312    320   2   0.50000    -0.1150000    0.0600000   2.680627e-04  1.873879e-07
    309    321   2   0.50000    -0.1150000    0.1150000   2.431434e-04  1.541678e-07
    311    313   2   0.50000    -0.0650000   -0.1150000   1.091018e-03  2.092768e-06
    311    321   2   0.50000    -0.0650000    0.1150000   2.262583e-04  1.374848e-07
    310    322   2   0.50000    -0.1150000    0.1150000   2.431434e-04  1.541678e-07
    321    307   2   0.50000     0.1150000   -0.1150000   2.431434e-04  1.541678e-07
    321    322   2   0.50000     0.1150000    0.1150000   5.042375e-05  1.012808e-08
    306    326   2   0.50000     0.0550000   -0.1150000   1.091018e-03  2.092768e-06
    306    333   2   0.50000     0.0550000   -0.1200000   1.015252e-03  1.866303e-06
    306    334   2   0.50000     0.0550000    0.0600000   2.494471e-04  1.671101e-07
    323    326   2   0.50000     0.0600000   -0.1150000   2.680627e-04  1.873879e-07
    323    333   2   0.50000     0.0600000   -0.1200000   2.494471e-04  1.671101e-07
    323    334   2   0.50000     0.0600000    0.0600000   6.128906e-05  1.496315e-08
    324    326   2   0.50000     0.0600000   -0.1150000   2.680627e-04  1.873879e-07
    324    333   2   0.50000     0.0600000   -0.1200000   2.494471e-04  1.671101e-07
    324    334   2   0.50000     0.0600000    0.0600000   6.128906e-05  1.496315e-08
    314    327   2   0.50000    -0.1200000   -0.1150000   1.091018e-03  2.092768e-06
    314    332   2   0.50000    -0.1200000   -0.1150000   1.091018e-03  2.092768e-06
    333    327   2   0.50000    -0.1200000   -0.1150000   1.091018e-03  2.092768e-06
    333    332   2   0.50000    -0.1200000   -0.1150000   1.091018e-03  2.092768e-06
    334    327   2   0.50000     0.0600000   -0.1150000   2.680627e-04  1.873879e-07
    334    332   2   0.50000     0.0600000   -0.1150000   2.680627e-04  1.873879e-07
    314    342   2   0.50000    -0.1200000    0.0600000   2.494471e-04  1.671101e-07
    314    343   2   0.50000    -0.1200000    0.0600000   2.494471e-04  1.671101e-07
    314    344   2   0.50000    -0.1200000    0.0550000   1.015252e-03  1.866303e-06
    326    342   2   0.50000    -0.1150000    0.0600000   2.680627e-04  1.873879e-07
    326    343   2   0.50000    -0.1150000    0.0600000   2.680627e-04  1.873879e-07
    326    344   2   0.50000    -0.1150000    0.0550000   1.091018e-03  2.092768e-06
    334    342   2   0.50000     0.0600000    0.0600000   6.128906e-05  1.496315e-08
    334    343   2   0.50000     0.0600000    0.0600000   6.128906e-05  1.496315e-08
    334    344   2   0.50000     0.0600000    0.0550000   2.494471e-04  1.671101e-07
    325    328   2   0.50000     0.0550000   -0.1150000   1.091018e-03  2.092768e-06
    325    335   2   0.50000     0.0550000    0.1150000   2.262583e-04  1.374848e-07
    332    328   2   0.50000    -0.1150000   -0.1150000   1.172438e-03  2.346713e-06
    332    335   2   0.50000    -0.1150000    0.1150000   2.431434e-04  1.541678e-07
    325    331   2   0.50000     0.0550000   -0.1150000   1.091018e-03  2.092768e-06
    325    341   2   0.50000     0.0550000    0.1150000   2.262583e-04  1.374848e-07
    327    331   2   0.50000    -0.1150000   -0.1150000   1.172438e-03  2.346713e-06
    327    341   2   0.50000    -0.1150000    0.1150000   2.431434e-04  1.541678e-07
    326    329   2   0.50000    -0.1150000   -0.1150000   1.172438e-03  2.346713e-06
    326    336   2   0.50000    -0.1150000    0.1150000   2.431434e-04  1.541678e-07
    335    329   2   0.50000     0.1150000   -0.1150000   2.431434e-04  1.541678e-07
    335    336   2   0.50000     0.1150000    0.1150000   5.042375e-05  1.012808e-08
    327    330   2   0.50000    -0.1150000   -0.0650000   1.091018e-03  2.092768e-06
    336    330   2   0.50000     0.1150000   -0.0650000   2.262583e-04  1.374848e-07
    336    331   2   0.50000     0.1150000   -0.1150000   2.431434e-04  1.541678e-07
    328    337   2   0.50000    -0.1150000    0.0600000   2.680627e-04  1.873879e-07
    328    338   2   0.50000    -0.1150000    0.0600000   2.680627e-04  1.873879e-07
    328    339   2   0.50000    -0.1150000    0.0600000   2.680627e-04  1.873879e-07
    331    337   2   0.50000    -0.1150000    0.0600000   2.680627e-04  1.873879e-07
    331    338   2   0.50000    -0.1150000    0.0600000   2.680627e-04  1.873879e-07
    331    339   2   0.50000    -0.1150000    0.0600000   2.680627e-04  1.873879e-07
    328    340   2   0.50000    -0.1150000    0.1150000   2.431434e-04  1.541678e-07
    330    332   2   0.50000    -0.0650000   -0.1150000   1.091018e-03  2.092768e-06
    330    340   2   0.50000    -0.0650000    0.1150000   2.262583e-04  1.374848e-07
    329    341   2   0.50000    -0.1150000    0.1150000   2.431434e-04  1.541678e-07
    340    326   2   0.50000     0.1150000   -0.1150000   2.431434e-04  1.541678e-07
    340    341   2   0.50000     0.1150000    0.1150000   5.042375e-05  1.012808e-08
    325    345   2   0.50000     0.0550000   -0.1150000   1.091018e-03  2.092768e-06
    325    352   2   0.50000     0.0550000   -0.1200000   1.015252e-03  1.866303e-06
    325    353   2   0.50000     0.0550000    0.0600000   2.494471e-04  1.671101e-07
    342    345   2   0.50000     0.0600000   -0.1150000   2.680627e-04  1.873879e-07
    342    352   2   0.50000     0.0600000   -0.1200000   2.494471e-04  1.671101e-07
    342    353   2   0.50000     0.0600000    0.0600000   6.128906e-05  1.496315e-08
    343    345   2   0.50000     0.0600000   -0.1150000   2.680627e-04  1.873879e-07
    343    352   2   0.50000     0.0600000   -0.1200000   2.494471e-04  1.671101e-07
    343    353   2   0.50000     0.0600000    0.0600000   6.128906e-05  1.496315e-08
    333    346   2   0.50000    -0.1200000   -0.1150000   1.091018e-03  2.092768e-06
    333    351   2   0.50000    -0.1200000   -0.1150000   1.091018e-03  2.092768e-06
    352    346   2   0.50000    -0.1200000   -0.1150000   1.091018e-03  2.092768e-06
    352    351   2   0.50000    -0.1200000   -0.1150000   1.091018e-03  2.092768e-06
    353    346   2   0.50000     0.0600000   -0.1150000   2.680627e-04  1.873879e-07
    353    351   2   0.50000     0.0600000   -0.1150000   2.680627e-04  1.873879e-07
    333    361   2   0.50000    -0.1200000    0.0600000   2.494471e-04  1.671101e-07
    333    362   2   0.50000    -0.1200000    0.0600000   2.494471e-04  1.671101e-07
    333    363   2   0.50000    -0.1200000    0.0550000   1.015252e-03  1.866303e-06
    345    361   2   0.50000    -0.1150000    0.0600000   2.680627e-04  1.873879e-07
    345    362   2   0.50000    -0.1150000    0.0600000   2.680627e-04  1.873879e-07
    345    363   2   0.50000    -0.1150000    0.0550000   1.091018e-03  2.092768e-06
    353    361   2   0.50000     0.0600000    0.0600000   6.128906e-05  1.496315e-08
    353    362   2   0.50000     0.0600000    0.0600000   6.128906e-05  1.496315e-08
    353    363   2   0.50000     0.0600000    0.0550000   2.494471e-04  1.671101e-07
    344    347   2   0.50000     0.0550000   -0.1150000   1.091018e-03  2.092768e-06
    344    354   2   0.50000     0.0550000    0.1150000   2.262583e-04  1.374848e-07
    351    347   2   0.50000    -0.1150000   -0.1150000   1.172438e-03  2.346713e-06
    351    354   2   0.50000    -0.1150000    0.1150000   2.431434e-04  1.541678e-07
    344    350   2   0.50000     0.0550000   -0.1150000   1.091018e-03  2.092768e-06
    344    360   2   0.50000     0.0550000    0.1150000   2.262583e-04  1.374848e-07
    346    350   2   0.50000    -0.1150000   -0.1150000   1.172438e-03  2.346713e-06
    346    360   2   0.50000    -0.1150000    0.1150000   2.431434e-04  1.541678e-07
    345    348   2   0.50000    -0.1150000   -0.1150000   1.172438e-03  2.346713e-06
    345    355   2   0.50000    -0.1150000    0.1150000   2.431434e-04  1.541678e-07
    354    348   2   0.50000     0.1150000   -0.1150000   2.431434e-04  1.541678e-07
    354    355   2   0.50000     0.1150000    0.1150000   5.042375e-05  1.012808e-08
    346    349   2   0.50000    -0.1150000   -0.0650000   1.091018e-03  2.092768e-06
    355    349   2   0.50000     0.1150000   -0.0650000   2.262583e-04  1.374848e-07
    355    350   2   0.50000     0.1150000   -0.1150000   2.431434e-04  1.541678e-07
    347    356   2   0.50000    -0.1150000    0.0600000   2.680627e-04  1.873879e-07
    347    357   2   0.50000    -0.1150000    0.0600000   2.680627e-04  1.873879e-07
    347    358   2   0.50000    -0.1150000    0.0600000   2.680627e-04  1.873879e-07
    350    356   2   0.50000    -0.1150000    0.0600000   2.680627e-04  1.873879e-07
    350    357   2   0.50000    -0.1150000    0.0600000   2.680627e-04  1.873879e-07
    350    358   2   0.50000    -0.1150000    0.0600000   2.680627e-04  1.873879e-07
    347    359   2   0.50000    -0.1150000    0.1150000   2.431434e-04  1.541678e-07
    349    351   2   0.50000    -0.0650000   -0.1150000   1.091018e-03  2.092768e-06
    349    359   2   0.50000    -0.0650000    0.1150000   2.262583e-04  1.374848e-07
    348    360   2   0.50000    -0.1150000    0.1150000   2.431434e-04  1.541678e-07
    359    345   2   0.50000     0.1150000   -0.1150000   2.431434e-04  1.541678e-07
    359    360   2   0.50000     0.1150000    0.1150000   5.042375e-05  1.012808e-08
    344    364   2   0.50000     0.0550000   -0.1150000   1.091018e-03  2.092768e-06
    344    371   2   0.50000     0.0550000   -0.1800000   1.015252e-03  1.866303e-06
    344    372   2   0.50000     0.0550000    0.0600000   2.494471e-04  1.671101e-07
    361    364   2   0.50000     0.0600000   -0.1150000   2.680627e-04  1.873879e-07
    361    371   2   0.50000     0.0600000   -0.1800000   2.494471e-04  1.671101e-07
    361    372   2   0.50000     0.0600000    0.0600000   6.128906e-05  1.496315e-08
    362    364   2   0.50000     0.0600000   -0.1150000   2.680627e-04  1.873879e-07
    362    371   2   0.50000     0.0600000   -0.1800000   2.494471e-04  1.671101e-07
    362    372   2   0.50000     0.0600000    0.0600000   6.128906e-05  1.496315e-08
    352    365   2   0.50000    -0.1200000   -0.1150000   1.091018e-03  2.092768e-06
    352    370   2   0.50000    -0.1200000   -0.1150000   1.091018e-03  2.092768e-06
    371    365   2   0.50000    -0.1800000   -0.1150000   1.091018e-03  2.092768e-06
    371    370   2   0.50000    -0.1800000   -0.1150000   1.091018e-03  2.092768e-06
    372    365   2   0.50000     0.0600000   -0.1150000   2.680627e-04  1.873879e-07
    372    370   2   0.50000     0.0600000   -0.1150000   2.680627e-04  1.873879e-07
    352    380   2   0.50000    -0.1200000    0.0600000   2.494471e-04  1.671101e-07
    352    381   2   0.50000    -0.1200000    0.0600000   2.494471e-04  1.671101e-07
    352    382   2   0.50000    -0.1200000    0.0600000   2.494471e-04  1.671101e-07
    364    380   2   0.50000    -0.1150000    0.0600000   2.680627e-04  1.873879e-07
    364    381   2   0.50000    -0.1150000    0.0600000   2.680627e-04  1.873879e-07
    364    382   2   0.50000    -0.1150000    0.0600000   2.680627e-04  1.873879e-07
    372    380   2   0.50000     0.0600000    0.0600000   6.128906e-05  1.496315e-08
    372    381   2   0.50000     0.0600000    0.0600000   6.128906e-05  1.496315e-08
    372    382   2   0.50000     0.0600000    0.0600000   6.128906e-05  1.496315e-08
    363    366   2   0.50000     0.0550000   -0.1150000   1.091018e-03  2.092768e-06
    363    373   2   0.50000     0.0550000    0.1150000   2.262583e-04  1.374848e-07
    370    366   2   0.50000    -0.1150000   -0.1150000   1.172438e-03  2.346713e-06
    370    373   2   0.50000    -0.1150000    0.1150000   2.431434e-04  1.541678e-07
    363    369   2   0.50000     0.0550000   -0.1150000   1.091018e-03  2.092768e-06
    363    379   2   0.50000     0.0550000    0.1150000   2.262583e-04  1.374848e-07
    365    369   2   0.50000    -0.1150000   -0.1150000   1.172438e-03  2.346713e-06
    365    379   2   0.50000    -0.1150000    0.1150000   2.431434e-04  1.541678e-07
    364    367   2   0.50000    -0.1150000   -0.1150000   1.172438e-03  2.346713e-06
    364    374   2   0.50000    -0.1150000    0.1150000   2.431434e-04  1.541678e-07
    373    367   2   0.50000     0.1150000   -0.1150000   2.431434e-04  1.541678e-07
    373    374   2   0.50000     0.1150000    0.1150000   5.042375e-05  1.012808e-08
    365    368   2   0.50000    -0.1150000   -0.0650000   1.091018e-03  2.092768e-06
    374    368   2   0.50000     0.1150000   -0.0650000   2.262583e-04  1.374848e-07
    374    369   2   0.50000     0.1150000   -0.1150000   2.431434e-04  1.541678e-07
    366    375   2   0.50000    -0.1150000    0.0600000   2.680627e-04  1.873879e-07
    366    376   2   0.50000    -0.1150000    0.0600000   2.680627e-04  1.873879e-07
    366    377   2   0.50000    -0.1150000    0.0600000   2.680627e-04  1.873879e-07
    369    375   2   0.50000    -0.1150000    0.0600000   2.680627e-04  1.873879e-07
    369    376   2   0.50000    -0.1150000    0.0600000   2.680627e-04  1.873879e-07
    369    377   2   0.50000    -0.1150000    0.0600000   2.680627e-04  1.873879e-07
    366    378   2   0.50000    -0.1150000    0.1150000   2.431434e-04  1.541678e-07
    368    370   2   0.50000    -0.0650000   -0.1150000   1.091018e-03  2.092768e-06
    368    378   2   0.50000    -0.0650000    0.1150000   2.262583e-04  1.374848e-07
    367    379   2   0.50000    -0.1150000    0.1150000   2.431434e-04  1.541678e-07
    378    364   2   0.50000     0.1150000   -0.1150000   2.431434e-04  1.541678e-07
    378    379   2   0.50000     0.1150000    0.1150000   5.042375e-05  1.012808e-08

[ angles ]
; ai  aj  ak
      2      1      9   1    112.1750    585.7600
      2      1     10   1    109.5000    292.8800
      2      1     20   1    109.5000    292.8800
      9      1     10   1    110.7000    313.8000
      9      1     20   1    110.7000    313.8000
     10      1     20   1    107.8000    276.1440
      1      2      3   1    120.0000    585.7600
      1      2      8   1    120.0000    585.7600
      3      2      8   1    120.0000    527.1840
      2      3      4   1    120.0000    527.1840
      2      3     11   1    120.0000    292.8800
      4      3     11   1    120.0000    292.8800
      3      4      5   1    120.0000    527.1840
      3      4     12   1    120.0000    292.8800
      5      4     12   1    120.0000    292.8800
      4      5      6   1    120.0000    585.7600
      4      5      7   1    120.0000    527.1840
      6      5      7   1    120.0000    585.7600
      5      6     13   1    109.5000    292.8800
      5      6     14   1    109.5000    292.8800
      5      6     15   1    109.5000    292.8800
     13      6     14   1    107.8000    276.1440
     13      6     15   1    107.8000    276.1440
     14      6     15   1    107.8000    276.1440
      5      7      8   1    120.0000    527.1840
      5      7     16   1    120.0000    292.8800
      8      7     16   1    120.0000    292.8800
      2      8      7   1    120.0000    527.1840
      2      8     17   1    120.0000    292.8800
      7      8     17   1    120.0000    292.8800
      1      9     18   1    110.7000    313.8000
      1      9     19   1    110.7000    313.8000
      1      9     21   1    112.7000    488.2728
     18      9     19   1    107.8000    276.1440
     18      9     21   1    110.7000    313.8000
     19      9     21   1    110.7000    313.8000
      9     21     22   1    112.1750    585.7600
      9     21     29   1    112.7000    488.2728
      9     21     30   1    110.7000    313.8000
     22     21     29   1    112.1750    585.7600
     22     21     30   1    109.5000    292.8800
     29     21     30   1    110.7000    313.8000
     21     22     23   1    120.0000    585.7600
     21     22     28   1    120.0000    585.7600
     23     22     28   1    120.0000    527.1840
     22     23     24   1    120.0000    527.1840
     22     23     31   1    120.0000    292.8800
     24     23     31   1    120.0000    292.8800
     23     24     25   1    120.0000    527.1840
     23     24     32   1    120.0000    292.8800
     25     24     32   1    120.0000    292.8800
     24     25     26   1    120.0000    585.7600
     24     25     27   1    120.0000    527.1840
     26     25     27   1    120.0000    585.7600
     25     26     33   1    109.5000    292.8800
     25     26     34   1    109.5000    292.8800
     25     26     35   1    109.5000    292.8800
     33     26     34   1    107.8000    276.1440
     33     26     35   1    107.8000    276.1440
     34     26     35   1    107.8000    276.1440
     25     27     28   1    120.0000    527.1840
     25     27     36   1    120.0000    292.8800
     28     27     36   1    120.0000    292.8800
     22     28     27   1    120.0000    527.1840
     22     28     37   1    120.0000    292.8800
     27     28     37   1    120.0000    292.8800
     21     29     38   1    110.7000    313.8000
     21     29     39   1    110.7000    313.8000
     21     29     40   1    112.7000    488.2728
     38     29     39   1    107.8000    276.1440
     38     29     40   1    110.7000    313.8000
     39     29     40   1    110.7000    313.8000
     29     40     41   1    112.1750    585.7600
     29     40     48   1    112.7000    488.2728
     29     40     49   1    110.7000    313.8000
     41     40     48   1    112.1750    585.7600
     41     40     49   1    109.5000    292.8800
     48     40     49   1    110.7000    313.8000
     40     41     42   1    120.0000    585.7600
     40     41     47   1    120.0000    585.7600
     42     41     47   1    120.0000    527.1840
     41     42     43   1    120.0000    527.1840
     41     42     50   1    120.0000    292.8800
     43     42     50   1    120.0000    292.8800
     42     43     44   1    120.0000    527.1840
     42     43     51   1    120.0000    292.8800
     44     43     51   1    120.0000    292.8800
     43     44     45   1    120.0000    585.7600
     43     44     46   1    120.0000    527.1840
     45     44     46   1    120.0000    585.7600
     44     45     52   1    109.5000    292.8800
     44     45     53   1    109.5000    292.8800
     44     45     54   1    109.5000    292.8800
     52     45     53   1    107.8000    276.1440
     52     45     54   1    107.8000    276.1440
     53     45     54   1    107.8000    276.1440
     44     46     47   1    120.0000    527.1840
     44     46     55   1    120.0000    292.8800
     47     46     55   1    120.0000    292.8800
     41     47     46   1    120.0000    527.1840
     41     47     56   1    120.0000    292.8800
     46     47     56   1    120.0000    292.8800
     40     48     57   1    110.7000    313.8000
     40     48     58   1    110.7000    313.8000
     40     48     59   1    112.7000    488.2728
     57     48     58   1    107.8000    276.1440
     57     48     59   1    110.7000    313.8000
     58     48     59   1    110.7000    313.8000
     48     59     60   1    112.1750    585.7600
     48     59     67   1    112.7000    488.2728
     48     59     68   1    110.7000    313.8000
     60     59     67   1    112.1750    585.7600
     60     59     68   1    109.5000    292.8800
     67     59     68   1    110.7000    313.8000
     59     60     61   1    120.0000    585.7600
     59     60     66   1    120.0000    585.7600
     61     60     66   1    120.0000    527.1840
     60     61     62   1    120.0000    527.1840
     60     61     69   1    120.0000    292.8800
     62     61     69   1    120.0000    292.8800
     61     62     63   1    120.0000    527.1840
     61     62     70   1    120.0000    292.8800
     63     62     70   1    120.0000    292.8800
     62     63     64   1    120.0000    585.7600
     62     63     65   1    120.0000    527.1840
     64     63     65   1    120.0000    585.7600
     63     64     71   1    109.5000    292.8800
     63     64     72   1    109.5000    292.8800
     63     64     73   1    109.5000    292.8800
     71     64     72   1    107.8000    276.1440
     71     64     73   1    107.8000    276.1440
     72     64     73   1    107.8000    276.1440
     63     65     66   1    120.0000    527.1840
     63     65     74   1    120.0000    292.8800
     66     65     74   1    120.0000    292.8800
     60     66     65   1    120.0000    527.1840
     60     66     75   1    120.0000    292.8800
     65     66     75   1    120.0000    292.8800
     59     67     76   1    110.7000    313.8000
     59     67     77   1    110.7000    313.8000
     59     67     78   1    112.7000    488.2728
     76     67     77   1    107.8000    276.1440
     76     67     78   1    110.7000    313.8000
     77     67     78   1    110.7000    313.8000
     67     78     79   1    112.1750    585.7600
     67     78     86   1    112.7000    488.2728
     67     78     87   1    110.7000    313.8000
     79     78     86   1    112.1750    585.7600
     79     78     87   1    109.5000    292.8800
     86     78     87   1    110.7000    313.8000
     78     79     80   1    120.0000    585.7600
     78     79     85   1    120.0000    585.7600
     80     79     85   1    120.0000    527.1840
     79     80     81   1    120.0000    527.1840
     79     80     88   1    120.0000    292.8800
     81     80     88   1    120.0000    292.8800
     80     81     82   1    120.0000    527.1840
     80     81     89   1    120.0000    292.8800
     82     81     89   1    120.0000    292.8800
     81     82     83   1    120.0000    585.7600
     81     82     84   1    120.0000    527.1840
     83     82     84   1    120.0000    585.7600
     82     83     90   1    109.5000    292.8800
     82     83     91   1    109.5000    292.8800
     82     83     92   1    109.5000    292.8800
     90     83     91   1    107.8000    276.1440
     90     83     92   1    107.8000    276.1440
     91     83     92   1    107.8000    276.1440
     82     84     85   1    120.0000    527.1840
     82     84     93   1    120.0000    292.8800
     85     84     93   1    120.0000    292.8800
     79     85     84   1    120.0000    527.1840
     79     85     94   1    120.0000    292.8800
     84     85     94   1    120.0000    292.8800
     78     86     95   1    110.7000    313.8000
     78     86     96   1    110.7000    313.8000
     78     86     97   1    112.7000    488.2728
     95     86     96   1    107.8000    276.1440
     95     86     97   1    110.7000    313.8000
     96     86     97   1    110.7000    313.8000
     86     97     98   1    112.1750    585.7600
     86     97    105   1    112.7000    488.2728
     86     97    106   1    110.7000    313.8000
     98     97    105   1    112.1750    585.7600
     98     97    106   1    109.5000    292.8800
    105     97    106   1    110.7000    313.8000
     97     98     99   1    120.0000    585.7600
     97     98    104   1    120.0000    585.7600
     99     98    104   1    120.0000    527.1840
     98     99    100   1    120.0000    527.1840
     98     99    107   1    120.0000    292.8800
    100     99    107   1    120.0000    292.8800
     99    100    101   1    120.0000    527.1840
     99    100    108   1    120.0000    292.8800
    101    100    108   1    120.0000    292.8800
    100    101    102   1    120.0000    585.7600
    100    101    103   1    120.0000    527.1840
    102    101    103   1    120.0000    585.7600
    101    102    109   1    109.5000    292.8800
    101    102    110   1    109.5000    292.8800
    101    102    111   1    109.5000    292.8800
    109    102    110   1    107.8000    276.1440
    109    102    111   1    107.8000    276.1440
    110    102    111   1    107.8000    276.1440
    101    103    104   1    120.0000    527.1840
    101    103    112   1    120.0000    292.8800
    104    103    112   1    120.0000    292.8800
     98    104    103   1    120.0000    527.1840
     98    104    113   1    120.0000    292.8800
    103    104    113   1    120.0000    292.8800
     97    105    114   1    110.7000    313.8000
     97    105    115   1    110.7000    313.8000
     97    105    116   1    112.7000    488.2728
    114    105    115   1    107.8000    276.1440
    114    105    116   1    110.7000    313.8000
    115    105    116   1    110.7000    313.8000
    105    116    117   1    112.1750    585.7600
    105    116    124   1    112.7000    488.2728
    105    116    125   1    110.7000    313.8000
    117    116    124   1    112.1750    585.7600
    117    116    125   1    109.5000    292.8800
    124    116    125   1    110.7000    313.8000
    116    117    118   1    120.0000    585.7600
    116    117    123   1    120.0000    585.7600
    118    117    123   1    120.0000    527.1840
    117    118    119   1    120.0000    527.1840
    117    118    126   1    120.0000    292.8800
    119    118    126   1    120.0000    292.8800
    118    119    120   1    120.0000    527.1840
    118    119    127   1    120.0000    292.8800
    120    119    127   1    120.0000    292.8800
    119    120    121   1    120.0000    585.7600
    119    120    122   1    120.0000    527.1840
    121    120    122   1    120.0000    585.7600
    120    121    128   1    109.5000    292.8800
    120    121    129   1    109.5000    292.8800
    120    121    130   1    109.5000    292.8800
    128    121    129   1    107.8000    276.1440
    128    121    130   1    107.8000    276.1440
    129    121    130   1    107.8000    276.1440
    120    122    123   1    120.0000    527.1840
    120    122    131   1    120.0000    292.8800
    123    122    131   1    120.0000    292.8800
    117    123    122   1    120.0000    527.1840
    117    123    132   1    120.0000    292.8800
    122    123    132   1    120.0000    292.8800
    116    124    133   1    110.7000    313.8000
    116    124    134   1    110.7000    313.8000
    116    124    135   1    112.7000    488.2728
    133    124    134   1    107.8000    276.1440
    133    124    135   1    110.7000    313.8000
    134    124    135   1    110.7000    313.8000
    124    135    136   1    112.1750    585.7600
    124    135    143   1    112.7000    488.2728
    124    135    144   1    110.7000    313.8000
    136    135    143   1    112.1750    585.7600
    136    135    144   1    109.5000    292.8800
    143    135    144   1    110.7000    313.8000
    135    136    137   1    120.0000    585.7600
    135    136    142   1    120.0000    585.7600
    137    136    142   1    120.0000    527.1840
    136    137    138   1    120.0000    527.1840
    136    137    145   1    120.0000    292.8800
    138    137    145   1    120.0000    292.8800
    137    138    139   1    120.0000    527.1840
    137    138    146   1    120.0000    292.8800
    139    138    146   1    120.0000    292.8800
    138    139    140   1    120.0000    585.7600
    138    139    141   1    120.0000    527.1840
    140    139    141   1    120.0000    585.7600
    139    140    147   1    109.5000    292.8800
    139    140    148   1    109.5000    292.8800
    139    140    149   1    109.5000    292.8800
    147    140    148   1    107.8000    276.1440
    147    140    149   1    107.8000    276.1440
    148    140    149   1    107.8000    276.1440
    139    141    142   1    120.0000    527.1840
    139    141    150   1    120.0000    292.8800
    142    141    150   1    120.0000    292.8800
    136    142    141   1    120.0000    527.1840
    136    142    151   1    120.0000    292.8800
    141    142    151   1    120.0000    292.8800
    135    143    152   1    110.7000    313.8000
    135    143    153   1    110.7000    313.8000
    135    143    154   1    112.7000    488.2728
    152    143    153   1    107.8000    276.1440
    152    143    154   1    110.7000    313.8000
    153    143    154   1    110.7000    313.8000
    143    154    155   1    112.1750    585.7600
    143    154    162   1    112.7000    488.2728
    143    154    163   1    110.7000    313.8000
    155    154    162   1    112.1750    585.7600
    155    154    163   1    109.5000    292.8800
    162    154    163   1    110.7000    313.8000
    154    155    156   1    120.0000    585.7600
    154    155    161   1    120.0000    585.7600
    156    155    161   1    120.0000    527.1840
    155    156    157   1    120.0000    527.1840
    155    156    164   1    120.0000    292.8800
    157    156    164   1    120.0000    292.8800
    156    157    158   1    120.0000    527.1840
    156    157    165   1    120.0000    292.8800
    158    157    165   1    120.0000    292.8800
    157    158    159   1    120.0000    585.7600
    157    158    160   1    120.0000    527.1840
    159    158    160   1    120.0000    585.7600
    158    159    166   1    109.5000    292.8800
    158    159    167   1    109.5000    292.8800
    158    159    168   1    109.5000    292.8800
    166    159    167   1    107.8000    276.1440
    166    159    168   1    107.8000    276.1440
    167    159    168   1    107.8000    276.1440
    158    160    161   1    120.0000    527.1840
    158    160    169   1    120.0000    292.8800
    161    160    169   1    120.0000    292.8800
    155    161    160   1    120.0000    527.1840
    155    161    170   1    120.0000    292.8800
    160    161    170   1    120.0000    292.8800
    154    162    171   1    110.7000    313.8000
    154    162    172   1    110.7000    313.8000
    154    162    173   1    112.7000    488.2728
    171    162    172   1    107.8000    276.1440
    171    162    173   1    110.7000    313.8000
    172    162    173   1    110.7000    313.8000
    162    173    174   1    112.1750    585.7600
    162    173    181   1    112.7000    488.2728
    162    173    182   1    110.7000    313.8000
    174    173    181   1    112.1750    585.7600
    174    173    182   1    109.5000    292.8800
    181    173    182   1    110.7000    313.8000
    173    174    175   1    120.0000    585.7600
    173    174    180   1    120.0000    585.7600
    175    174    180   1    120.0000    527.1840
    174    175    176   1    120.0000    527.1840
    174    175    183   1    120.0000    292.8800
    176    175    183   1    120.0000    292.8800
    175    176    177   1    120.0000    527.1840
    175    176    184   1    120.0000    292.8800
    177    176    184   1    120.0000    292.8800
    176    177    178   1    120.0000    585.7600
    176    177    179   1    120.0000    527.1840
    178    177    179   1    120.0000    585.7600
    177    178    185   1    109.5000    292.8800
    177    178    186   1    109.5000    292.8800
    177    178    187   1    109.5000    292.8800
    185    178    186   1    107.8000    276.1440
    185    178    187   1    107.8000    276.1440
    186    178    187   1    107.8000    276.1440
    177    179    180   1    120.0000    527.1840
    177    179    188   1    120.0000    292.8800
    180    179    188   1    120.0000    292.8800
    174    180    179   1    120.0000    527.1840
    174    180    189   1    120.0000    292.8800
    179    180    189   1    120.0000    292.8800
    173    181    190   1    110.7000    313.8000
    173    181    191   1    110.7000    313.8000
    173    181    192   1    112.7000    488.2728
    190    181    191   1    107.8000    276.1440
    190    181    192   1    110.7000    313.8000
    191    181    192   1    110.7000    313.8000
    181    192    193   1    112.1750    585.7600
    181    192    200   1    112.7000    488.2728
    181    192    201   1    110.7000    313.8000
    193    192    200   1    112.1750    585.7600
    193    192    201   1    109.5000    292.8800
    200    192    201   1    110.7000    313.8000
    192    193    194   1    120.0000    585.7600
    192    193    199   1    120.0000    585.7600
    194    193    199   1    120.0000    527.1840
    193    194    195   1    120.0000    527.1840
    193    194    202   1    120.0000    292.8800
    195    194    202   1    120.0000    292.8800
    194    195    196   1    120.0000    527.1840
    194    195    203   1    120.0000    292.8800
    196    195    203   1    120.0000    292.8800
    195    196    197   1    120.0000    585.7600
    195    196    198   1    120.0000    527.1840
    197    196    198   1    120.0000    585.7600
    196    197    204   1    109.5000    292.8800
    196    197    205   1    109.5000    292.8800
    196    197    206   1    109.5000    292.8800
    204    197    205   1    107.8000    276.1440
    204    197    206   1    107.8000    276.1440
    205    197    206   1    107.8000    276.1440
    196    198    199   1    120.0000    527.1840
    196    198    207   1    120.0000    292.8800
    199    198    207   1    120.0000    292.8800
    193    199    198   1    120.0000    527.1840
    193    199    208   1    120.0000    292.8800
    198    199    208   1    120.0000    292.8800
    192    200    209   1    110.7000    313.8000
    192    200    210   1    110.7000    313.8000
    192    200    211   1    112.7000    488.2728
    209    200    210   1    107.8000    276.1440
    209    200    211   1    110.7000    313.8000
    210    200    211   1    110.7000    313.8000
    200    211    212   1    112.1750    585.7600
    200    211    219   1    112.7000    488.2728
    200    211    220   1    110.7000    313.8000
    212    211    219   1    112.1750    585.7600
    212    211    220   1    109.5000    292.8800
    219    211    220   1    110.7000    313.8000
    211    212    213   1    120.0000    585.7600
    211    212    218   1    120.0000    585.7600
    213    212    218   1    120.0000    527.1840
    212    213    214   1    120.0000    527.1840
    212    213    221   1    120.0000    292.8800
    214    213    221   1    120.0000    292.8800
    213    214    215   1    120.0000    527.1840
    213    214    222   1    120.0000    292.8800
    215    214    222   1    120.0000    292.8800
    214    215    216   1    120.0000    585.7600
    214    215    217   1    120.0000    527.1840
    216    215    217   1    120.0000    585.7600
    215    216    223   1    109.5000    292.8800
    215    216    224   1    109.5000    292.8800
    215    216    225   1    109.5000    292.8800
    223    216    224   1    107.8000    276.1440
    223    216    225   1    107.8000    276.1440
    224    216    225   1    107.8000    276.1440
    215    217    218   1    120.0000    527.1840
    215    217    226   1    120.0000    292.8800
    218    217    226   1    120.0000    292.8800
    212    218    217   1    120.0000    527.1840
    212    218    227   1    120.0000    292.8800
    217    218    227   1    120.0000    292.8800
    211    219    228   1    110.7000    313.8000
    211    219    229   1    110.7000    313.8000
    211    219    230   1    112.7000    488.2728
    228    219    229   1    107.8000    276.1440
    228    219    230   1    110.7000    313.8000
    229    219    230   1    110.7000    313.8000
    219    230    231   1    112.1750    585.7600
    219    230    238   1    112.7000    488.2728
    219    230    239   1    110.7000    313.8000
    231    230    238   1    112.1750    585.7600
    231    230    239   1    109.5000    292.8800
    238    230    239   1    110.7000    313.8000
    230    231    232   1    120.0000    585.7600
    230    231    237   1    120.0000    585.7600
    232    231    237   1    120.0000    527.1840
    231    232    233   1    120.0000    527.1840
    231    232    240   1    120.0000    292.8800
    233    232    240   1    120.0000    292.8800
    232    233    234   1    120.0000    527.1840
    232    233    241   1    120.0000    292.8800
    234    233    241   1    120.0000    292.8800
    233    234    235   1    120.0000    585.7600
    233    234    236   1    120.0000    527.1840
    235    234    236   1    120.0000    585.7600
    234    235    242   1    109.5000    292.8800
    234    235    243   1    109.5000    292.8800
    234    235    244   1    109.5000    292.8800
    242    235    243   1    107.8000    276.1440
    242    235    244   1    107.8000    276.1440
    243    235    244   1    107.8000    276.1440
    234    236    237   1    120.0000    527.1840
    234    236    245   1    120.0000    292.8800
    237    236    245   1    120.0000    292.8800
    231    237    236   1    120.0000    527.1840
    231    237    246   1    120.0000    292.8800
    236    237    246   1    120.0000    292.8800
    230    238    247   1    110.7000    313.8000
    230    238    248   1    110.7000    313.8000
    230    238    249   1    112.7000    488.2728
    247    238    248   1    107.8000    276.1440
    247    238    249   1    110.7000    313.8000
    248    238    249   1    110.7000    313.8000
    238    249    250   1    112.1750    585.7600
    238    249    257   1    112.7000    488.2728
    238    249    258   1    110.7000    313.8000
    250    249    257   1    112.1750    585.7600
    250    249    258   1    109.5000    292.8800
    257    249    258   1    110.7000    313.8000
    249    250    251   1    120.0000    585.7600
    249    250    256   1    120.0000    585.7600
    251    250    256   1    120.0000    527.1840
    250    251    252   1    120.0000    527.1840
    250    251    259   1    120.0000    292.8800
    252    251    259   1    120.0000    292.8800
    251    252    253   1    120.0000    527.1840
    251    252    260   1    120.0000    292.8800
    253    252    260   1    120.0000    292.8800
    252    253    254   1    120.0000    585.7600
    252    253    255   1    120.0000    527.1840
    254    253    255   1    120.0000    585.7600
    253    254    261   1    109.5000    292.8800
    253    254    262   1    109.5000    292.8800
    253    254    263   1    109.5000    292.8800
    261    254    262   1    107.8000    276.1440
    261    254    263   1    107.8000    276.1440
    262    254    263   1    107.8000    276.1440
    253    255    256   1    120.0000    527.1840
    253    255    264   1    120.0000    292.8800
    256    255    264   1    120.0000    292.8800
    250    256    255   1    120.0000    527.1840
    250    256    265   1    120.0000    292.8800
    255    256    265   1    120.0000    292.8800
    249    257    266   1    110.7000    313.8000
    249    257    267   1    110.7000    313.8000
    249    257    268   1    112.7000    488.2728
    266    257    267   1    107.8000    276.1440
    266    257    268   1    110.7000    313.8000
    267    257    268   1    110.7000    313.8000
    257    268    269   1    112.1750    585.7600
    257    268    276   1    112.7000    488.2728
    257    268    277   1    110.7000    313.8000
    269    268    276   1    112.1750    585.7600
    269    268    277   1    109.5000    292.8800
    276    268    277   1    110.7000    313.8000
    268    269    270   1    120.0000    585.7600
    268    269    275   1    120.0000    585.7600
    270    269    275   1    120.0000    527.1840
    269    270    271   1    120.0000    527.1840
    269    270    278   1    120.0000    292.8800
    271    270    278   1    120.0000    292.8800
    270    271    272   1    120.0000    527.1840
    270    271    279   1    120.0000    292.8800
    272    271    279   1    120.0000    292.8800
    271    272    273   1    120.0000    585.7600
    271    272    274   1    120.0000    527.1840
    273    272    274   1    120.0000    585.7600
    272    273    280   1    109.5000    292.8800
    272    273    281   1    109.5000    292.8800
    272    273    282   1    109.5000    292.8800
    280    273    281   1    107.8000    276.1440
    280    273    282   1    107.8000    276.1440
    281    273    282   1    107.8000    276.1440
    272    274    275   1    120.0000    527.1840
    272    274    283   1    120.0000    292.8800
    275    274    283   1    120.0000    292.8800
    269    275    274   1    120.0000    527.1840
    269    275    284   1    120.0000    292.8800
    274    275    284   1    120.0000    292.8800
    268    276    285   1    110.7000    313.8000
    268    276    286   1    110.7000    313.8000
    268    276    287   1    112.7000    488.2728
    285    276    286   1    107.8000    276.1440
    285    276    287   1    110.7000    313.8000
    286    276    287   1    110.7000    313.8000
    276    287    288   1    112.1750    585.7600
    276    287    295   1    112.7000    488.2728
    276    287    296   1    110.7000    313.8000
    288    287    295   1    112.1750    585.7600
    288    287    296   1    109.5000    292.8800
    295    287    296   1    110.7000    313.8000
    287    288    289   1    120.0000    585.7600
    287    288    294   1    120.0000    585.7600
    289    288    294   1    120.0000    527.1840
    288    289    290   1    120.0000    527.1840
    288    289    297   1    120.0000    292.8800
    290    289    297   1    120.0000    292.8800
    289    290    291   1    120.0000    527.1840
    289    290    298   1    120.0000    292.8800
    291    290    298   1    120.0000    292.8800
    290    291    292   1    120.0000    585.7600
    290    291    293   1    120.0000    527.1840
    292    291    293   1    120.0000    585.7600
    291    292    299   1    109.5000    292.8800
    291    292    300   1    109.5000    292.8800
    291    292    301   1    109.5000    292.8800
    299    292    300   1    107.8000    276.1440
    299    292    301   1    107.8000    276.1440
    300    292    301   1    107.8000    276.1440
    291    293    294   1    120.0000    527.1840
    291    293    302   1    120.0000    292.8800
    294    293    302   1    120.0000    292.8800
    288    294    293   1    120.0000    527.1840
    288    294    303   1    120.0000    292.8800
    293    294    303   1    120.0000    292.8800
    287    295    304   1    110.7000    313.8000
    287    295    305   1    110.7000    313.8000
    287    295    306   1    112.7000    488.2728
    304    295    305   1    107.8000    276.1440
    304    295    306   1    110.7000    313.8000
    305    295    306   1    110.7000    313.8000
    295    306    307   1    112.1750    585.7600
    295    306    314   1    112.7000    488.2728
    295    306    315   1    110.7000    313.8000
    307    306    314   1    112.1750    585.7600
    307    306    315   1    109.5000    292.8800
    314    306    315   1    110.7000    313.8000
    306    307    308   1    120.0000    585.7600
    306    307    313   1    120.0000    585.7600
    308    307    313   1    120.0000    527.1840
    307    308    309   1    120.0000    527.1840
    307    308    316   1    120.0000    292.8800
    309    308    316   1    120.0000    292.8800
    308    309    310   1    120.0000    527.1840
    308    309    317   1    120.0000    292.8800
    310    309    317   1    120.0000    292.8800
    309    310    311   1    120.0000    585.7600
    309    310    312   1    120.0000    527.1840
    311    310    312   1    120.0000    585.7600
    310    311    318   1    109.5000    292.8800
    310    311    319   1    109.5000    292.8800
    310    311    320   1    109.5000    292.8800
    318    311    319   1    107.8000    276.1440
    318    311    320   1    107.8000    276.1440
    319    311    320   1    107.8000    276.1440
    310    312    313   1    120.0000    527.1840
    310    312    321   1    120.0000    292.8800
    313    312    321   1    120.0000    292.8800
    307    313    312   1    120.0000    527.1840
    307    313    322   1    120.0000    292.8800
    312    313    322   1    120.0000    292.8800
    306    314    323   1    110.7000    313.8000
    306    314    324   1    110.7000    313.8000
    306    314    325   1    112.7000    488.2728
    323    314    324   1    107.8000    276.1440
    323    314    325   1    110.7000    313.8000
    324    314    325   1    110.7000    313.8000
    314    325    326   1    112.1750    585.7600
    314    325    333   1    112.7000    488.2728
    314    325    334   1    110.7000    313.8000
    326    325    333   1    112.1750    585.7600
    326    325    334   1    109.5000    292.8800
    333    325    334   1    110.7000    313.8000
    325    326    327   1    120.0000    585.7600
    325    326    332   1    120.0000    585.7600
    327    326    332   1    120.0000    527.1840
    326    327    328   1    120.0000    527.1840
    326    327    335   1    120.0000    292.8800
    328    327    335   1    120.0000    292.8800
    327    328    329   1    120.0000    527.1840
    327    328    336   1    120.0000    292.8800
    329    328    336   1    120.0000    292.8800
    328    329    330   1    120.0000    585.7600
    328    329    331   1    120.0000    527.1840
    330    329    331   1    120.0000    585.7600
    329    330    337   1    109.5000    292.8800
    329    330    338   1    109.5000    292.8800
    329    330    339   1    109.5000    292.8800
    337    330    338   1    107.8000    276.1440
    337    330    339   1    107.8000    276.1440
    338    330    339   1    107.8000    276.1440
    329    331    332   1    120.0000    527.1840
    329    331    340   1    120.0000    292.8800
    332    331    340   1    120.0000    292.8800
    326    332    331   1    120.0000    527.1840
    326    332    341   1    120.0000    292.8800
    331    332    341   1    120.0000    292.8800
    325    333    342   1    110.7000    313.8000
    325    333    343   1    110.7000    313.8000
    325    333    344   1    112.7000    488.2728
    342    333    343   1    107.8000    276.1440
    342    333    344   1    110.7000    313.8000
    343    333    344   1    110.7000    313.8000
    333    344    345   1    112.1750    585.7600
    333    344    352   1    112.7000    488.2728
    333    344    353   1    110.7000    313.8000
    345    344    352   1    112.1750    585.7600
    345    344    353   1    109.5000    292.8800
    352    344    353   1    110.7000    313.8000
    344    345    346   1    120.0000    585.7600
    344    345    351   1    120.0000    585.7600
    346    345    351   1    120.0000    527.1840
    345    346    347   1    120.0000    527.1840
    345    346    354   1    120.0000    292.8800
    347    346    354   1    120.0000    292.8800
    346    347    348   1    120.0000    527.1840
    346    347    355   1    120.0000    292.8800
    348    347    355   1    120.0000    292.8800
    347    348    349   1    120.0000    585.7600
    347    348    350   1    120.0000    527.1840
    349    348    350   1    120.0000    585.7600
    348    349    356   1    109.5000    292.8800
    348    349    357   1    109.5000    292.8800
    348    349    358   1    109.5000    292.8800
    356    349    357   1    107.8000    276.1440
    356    349    358   1    107.8000    276.1440
    357    349    358   1    107.8000    276.1440
    348    350    351   1    120.0000    527.1840
    348    350    359   1    120.0000    292.8800
    351    350    359   1    120.0000    292.8800
    345    351    350   1    120.0000    527.1840
    345    351    360   1    120.0000    292.8800
    350    351    360   1    120.0000    292.8800
    344    352    361   1    110.7000    313.8000
    344    352    362   1    110.7000    313.8000
    344    352    363   1    112.7000    488.2728
    361    352    362   1    107.8000    276.1440
    361    352    363   1    110.7000    313.8000
    362    352    363   1    110.7000    313.8000
    352    363    364   1    112.1750    585.7600
    352    363    371   1    112.7000    488.2728
    352    363    372   1    110.7000    313.8000
    364    363    371   1    112.1750    585.7600
    364    363    372   1    109.5000    292.8800
    371    363    372   1    110.7000    313.8000
    363    364    365   1    120.0000    585.7600
    363    364    370   1    120.0000    585.7600
    365    364    370   1    120.0000    527.1840
    364    365    366   1    120.0000    527.1840
    364    365    373   1    120.0000    292.8800
    366    365    373   1    120.0000    292.8800
    365    366    367   1    120.0000    527.1840
    365    366    374   1    120.0000    292.8800
    367    366    374   1    120.0000    292.8800
    366    367    368   1    120.0000    585.7600
    366    367    369   1    120.0000    527.1840
    368    367    369   1    120.0000    585.7600
    367    368    375   1    109.5000    292.8800
    367    368    376   1    109.5000    292.8800
    367    368    377   1    109.5000    292.8800
    375    368    376   1    107.8000    276.1440
    375    368    377   1    107.8000    276.1440
    376    368    377   1    107.8000    276.1440
    367    369    370   1    120.0000    527.1840
    367    369    378   1    120.0000    292.8800
    370    369    378   1    120.0000    292.8800
    364    370    369   1    120.0000    527.1840
    364    370    379   1    120.0000    292.8800
    369    370    379   1    120.0000    292.8800
    363    371    380   1    110.7000    313.8000
    363    371    381   1    110.7000    313.8000
    363    371    382   1    110.7000    313.8000
    380    371    381   1    107.8000    276.1440
    380    371    382   1    107.8000    276.1440
    381    371    382   1    107.8000    276.1440

[ dihedrals ]
; Proper dihedrals
      9      1      2      3   5     0.00000     0.34727     0.00000  0.0
      9      1      2      8   5     0.00000     0.34727     0.00000  0.0
     10      1      2      3   5     0.00000     0.00000     0.00000  0.0
     10      1      2      8   5     0.00000     0.00000     0.00000  0.0
     20      1      2      3   5     0.00000     0.00000     0.00000  0.0
     20      1      2      8   5     0.00000     0.00000     0.00000  0.0
      2      1      9     18   5     0.00000     0.00000     3.61498  0.0
      2      1      9     19   5     0.00000     0.00000     3.61498  0.0
      2      1      9     21   5    -0.30962     3.11290    -3.95806  0.0
     10      1      9     18   5     0.00000     0.00000     1.25520  0.0
     10      1      9     19   5     0.00000     0.00000     1.25520  0.0
     10      1      9     21   5     0.00000     0.00000     1.25520  0.0
     20      1      9     18   5     0.00000     0.00000     1.25520  0.0
     20      1      9     19   5     0.00000     0.00000     1.25520  0.0
     20      1      9     21   5     0.00000     0.00000     1.25520  0.0
      1      2      3      4   5     0.00000    30.33400     0.00000  0.0
      1      2      3     11   5     0.00000    30.33400     0.00000  0.0
      8      2      3      4   5     0.00000    30.33400     0.00000  0.0
      8      2      3     11   5     0.00000    30.33400     0.00000  0.0
      1      2      8      7   5     0.00000    30.33400     0.00000  0.0
      1      2      8     17   5     0.00000    30.33400     0.00000  0.0
      3      2      8      7   5     0.00000    30.33400     0.00000  0.0
      3      2      8     17   5     0.00000    30.33400     0.00000  0.0
      2      3      4      5   5     0.00000    30.33400     0.00000  0.0
      2      3      4     12   5     0.00000    30.33400     0.00000  0.0
     11      3      4      5   5     0.00000    30.33400     0.00000  0.0
     11      3      4     12   5     0.00000    30.33400     0.00000  0.0
      3      4      5      6   5     0.00000    30.33400     0.00000  0.0
      3      4      5      7   5     0.00000    30.33400     0.00000  0.0
     12      4      5      6   5     0.00000    30.33400     0.00000  0.0
     12      4      5      7   5     0.00000    30.33400     0.00000  0.0
      4      5      6     13   5     0.00000     0.00000     0.00000  0.0
      4      5      6     14   5     0.00000     0.00000     0.00000  0.0
      4      5      6     15   5     0.00000     0.00000     0.00000  0.0
      7      5      6     13   5     0.00000     0.00000     0.00000  0.0
      7      5      6     14   5     0.00000     0.00000     0.00000  0.0
      7      5      6     15   5     0.00000     0.00000     0.00000  0.0
      4      5      7      8   5     0.00000    30.33400     0.00000  0.0
      4      5      7     16   5     0.00000    30.33400     0.00000  0.0
      6      5      7      8   5     0.00000    30.33400     0.00000  0.0
      6      5      7     16   5     0.00000    30.33400     0.00000  0.0
      5      7      8      2   5     0.00000    30.33400     0.00000  0.0
      5      7      8     17   5     0.00000    30.33400     0.00000  0.0
     16      7      8      2   5     0.00000    30.33400     0.00000  0.0
     16      7      8     17   5     0.00000    30.33400     0.00000  0.0
      1      9     21     22   5    -0.30962     3.11290    -3.95806  0.0
      1      9     21     29   5     4.74884    -0.63178     1.67360  0.0
      1      9     21     30   5     0.00000     0.00000     1.25520  0.0
     18      9     21     22   5     0.00000     0.00000     3.61498  0.0
     18      9     21     29   5     0.00000     0.00000     1.25520  0.0
     18      9     21     30   5     0.00000     0.00000     1.25520  0.0
     19      9     21     22   5     0.00000     0.00000     3.61498  0.0
     19      9     21     29   5     0.00000     0.00000     1.25520  0.0
     19      9     21     30   5     0.00000     0.00000     1.25520  0.0
      9     21     22     23   5     0.00000     0.34727     0.00000  0.0
      9     21     22     28   5     0.00000     0.34727     0.00000  0.0
     29     21     22     23   5     0.00000     0.34727     0.00000  0.0
     29     21     22     28   5     0.00000     0.34727     0.00000  0.0
     30     21     22     23   5     0.00000     0.00000     0.00000  0.0
     30     21     22     28   5     0.00000     0.00000     0.00000  0.0
      9     21     29     38   5     0.00000     0.00000     1.25520  0.0
      9     21     29     39   5     0.00000     0.00000     1.25520  0.0
      9     21     29     40   5     4.74884    -0.63178     1.67360  0.0
     22     21     29     38   5     0.00000     0.00000     3.61498  0.0
     22     21     29     39   5     0.00000     0.00000     3.61498  0.0
     22     21     29     40   5    -0.30962     3.11290    -3.95806  0.0
     30     21     29     38   5     0.00000     0.00000     1.25520  0.0
     30     21     29     39   5     0.00000     0.00000     1.25520  0.0
     30     21     29     40   5     0.00000     0.00000     1.25520  0.0
     21     22     23     24   5     0.00000    30.33400     0.00000  0.0
     21     22     23     31   5     0.00000    30.33400     0.00000  0.0
     28     22     23     24   5     0.00000    30.33400     0.00000  0.0
     28     22     23     31   5     0.00000    30.33400     0.00000  0.0
     21     22     28     27   5     0.00000    30.33400     0.00000  0.0
     21     22     28     37   5     0.00000    30.33400     0.00000  0.0
     23     22     28     27   5     0.00000    30.33400     0.00000  0.0
     23     22     28     37   5     0.00000    30.33400     0.00000  0.0
     22     23     24     25   5     0.00000    30.33400     0.00000  0.0
     22     23     24     32   5     0.00000    30.33400     0.00000  0.0
     31     23     24     25   5     0.00000    30.33400     0.00000  0.0
     31     23     24     32   5     0.00000    30.33400     0.00000  0.0
     23     24     25     26   5     0.00000    30.33400     0.00000  0.0
     23     24     25     27   5     0.00000    30.33400     0.00000  0.0
     32     24     25     26   5     0.00000    30.33400     0.00000  0.0
     32     24     25     27   5     0.00000    30.33400     0.00000  0.0
     24     25     26     33   5     0.00000     0.00000     0.00000  0.0
     24     25     26     34   5     0.00000     0.00000     0.00000  0.0
     24     25     26     35   5     0.00000     0.00000     0.00000  0.0
     27     25     26     33   5     0.00000     0.00000     0.00000  0.0
     27     25     26     34   5     0.00000     0.00000     0.00000  0.0
     27     25     26     35   5     0.00000     0.00000     0.00000  0.0
     24     25     27     28   5     0.00000    30.33400     0.00000  0.0
     24     25     27     36   5     0.00000    30.33400     0.00000  0.0
     26     25     27     28   5     0.00000    30.33400     0.00000  0.0
     26     25     27     36   5     0.00000    30.33400     0.00000  0.0
     25     27     28     22   5     0.00000    30.33400     0.00000  0.0
     25     27     28     37   5     0.00000    30.33400     0.00000  0.0
     36     27     28     22   5     0.00000    30.33400     0.00000  0.0
     36     27     28     37   5     0.00000    30.33400     0.00000  0.0
     21     29     40     41   5    -0.30962     3.11290    -3.95806  0.0
     21     29     40     48   5     4.74884    -0.63178     1.67360  0.0
     21     29     40     49   5     0.00000     0.00000     1.25520  0.0
     38     29     40     41   5     0.00000     0.00000     3.61498  0.0
     38     29     40     48   5     0.00000     0.00000     1.25520  0.0
     38     29     40     49   5     0.00000     0.00000     1.25520  0.0
     39     29     40     41   5     0.00000     0.00000     3.61498  0.0
     39     29     40     48   5     0.00000     0.00000     1.25520  0.0
     39     29     40     49   5     0.00000     0.00000     1.25520  0.0
     29     40     41     42   5     0.00000     0.34727     0.00000  0.0
     29     40     41     47   5     0.00000     0.34727     0.00000  0.0
     48     40     41     42   5     0.00000     0.34727     0.00000  0.0
     48     40     41     47   5     0.00000     0.34727     0.00000  0.0
     49     40     41     42   5     0.00000     0.00000     0.00000  0.0
     49     40     41     47   5     0.00000     0.00000     0.00000  0.0
     29     40     48     57   5     0.00000     0.00000     1.25520  0.0
     29     40     48     58   5     0.00000     0.00000     1.25520  0.0
     29     40     48     59   5     4.74884    -0.63178     1.67360  0.0
     41     40     48     57   5     0.00000     0.00000     3.61498  0.0
     41     40     48     58   5     0.00000     0.00000     3.61498  0.0
     41     40     48     59   5    -0.30962     3.11290    -3.95806  0.0
     49     40     48     57   5     0.00000     0.00000     1.25520  0.0
     49     40     48     58   5     0.00000     0.00000     1.25520  0.0
     49     40     48     59   5     0.00000     0.00000     1.25520  0.0
     40     41     42     43   5     0.00000    30.33400     0.00000  0.0
     40     41     42     50   5     0.00000    30.33400     0.00000  0.0
     47     41     42     43   5     0.00000    30.33400     0.00000  0.0
     47     41     42     50   5     0.00000    30.33400     0.00000  0.0
     40     41     47     46   5     0.00000    30.33400     0.00000  0.0
     40     41     47     56   5     0.00000    30.33400     0.00000  0.0
     42     41     47     46   5     0.00000    30.33400     0.00000  0.0
     42     41     47     56   5     0.00000    30.33400     0.00000  0.0
     41     42     43     44   5     0.00000    30.33400     0.00000  0.0
     41     42     43     51   5     0.00000    30.33400     0.00000  0.0
     50     42     43     44   5     0.00000    30.33400     0.00000  0.0
     50     42     43     51   5     0.00000    30.33400     0.00000  0.0
     42     43     44     45   5     0.00000    30.33400     0.00000  0.0
     42     43     44     46   5     0.00000    30.33400     0.00000  0.0
     51     43     44     45   5     0.00000    30.33400     0.00000  0.0
     51     43     44     46   5     0.00000    30.33400     0.00000  0.0
     43     44     45     52   5     0.00000     0.00000     0.00000  0.0
     43     44     45     53   5     0.00000     0.00000     0.00000  0.0
     43     44     45     54   5     0.00000     0.00000     0.00000  0.0
     46     44     45     52   5     0.00000     0.00000     0.00000  0.0
     46     44     45     53   5     0.00000     0.00000     0.00000  0.0
     46     44     45     54   5     0.00000     0.00000     0.00000  0.0
     43     44     46     47   5     0.00000    30.33400     0.00000  0.0
     43     44     46     55   5     0.00000    30.33400     0.00000  0.0
     45     44     46     47   5     0.00000    30.33400     0.00000  0.0
     45     44     46     55   5     0.00000    30.33400     0.00000  0.0
     44     46     47     41   5     0.00000    30.33400     0.00000  0.0
     44     46     47     56   5     0.00000    30.33400     0.00000  0.0
     55     46     47     41   5     0.00000    30.33400     0.00000  0.0
     55     46     47     56   5     0.00000    30.33400     0.00000  0.0
     40     48     59     60   5    -0.30962     3.11290    -3.95806  0.0
     40     48     59     67   5     4.74884    -0.63178     1.67360  0.0
     40     48     59     68   5     0.00000     0.00000     1.25520  0.0
     57     48     59     60   5     0.00000     0.00000     3.61498  0.0
     57     48     59     67   5     0.00000     0.00000     1.25520  0.0
     57     48     59     68   5     0.00000     0.00000     1.25520  0.0
     58     48     59     60   5     0.00000     0.00000     3.61498  0.0
     58     48     59     67   5     0.00000     0.00000     1.25520  0.0
     58     48     59     68   5     0.00000     0.00000     1.25520  0.0
     48     59     60     61   5     0.00000     0.34727     0.00000  0.0
     48     59     60     66   5     0.00000     0.34727     0.00000  0.0
     67     59     60     61   5     0.00000     0.34727     0.00000  0.0
     67     59     60     66   5     0.00000     0.34727     0.00000  0.0
     68     59     60     61   5     0.00000     0.00000     0.00000  0.0
     68     59     60     66   5     0.00000     0.00000     0.00000  0.0
     48     59     67     76   5     0.00000     0.00000     1.25520  0.0
     48     59     67     77   5     0.00000     0.00000     1.25520  0.0
     48     59     67     78   5     4.74884    -0.63178     1.67360  0.0
     60     59     67     76   5     0.00000     0.00000     3.61498  0.0
     60     59     67     77   5     0.00000     0.00000     3.61498  0.0
     60     59     67     78   5    -0.30962     3.11290    -3.95806  0.0
     68     59     67     76   5     0.00000     0.00000     1.25520  0.0
     68     59     67     77   5     0.00000     0.00000     1.25520  0.0
     68     59     67     78   5     0.00000     0.00000     1.25520  0.0
     59     60     61     62   5     0.00000    30.33400     0.00000  0.0
     59     60     61     69   5     0.00000    30.33400     0.00000  0.0
     66     60     61     62   5     0.00000    30.33400     0.00000  0.0
     66     60     61     69   5     0.00000    30.33400     0.00000  0.0
     59     60     66     65   5     0.00000    30.33400     0.00000  0.0
     59     60     66     75   5     0.00000    30.33400     0.00000  0.0
     61     60     66     65   5     0.00000    30.33400     0.00000  0.0
     61     60     66     75   5     0.00000    30.33400     0.00000  0.0
     60     61     62     63   5     0.00000    30.33400     0.00000  0.0
     60     61     62     70   5     0.00000    30.33400     0.00000  0.0
     69     61     62     63   5     0.00000    30.33400     0.00000  0.0
     69     61     62     70   5     0.00000    30.33400     0.00000  0.0
     61     62     63     64   5     0.00000    30.33400     0.00000  0.0
     61     62     63     65   5     0.00000    30.33400     0.00000  0.0
     70     62     63     64   5     0.00000    30.33400     0.00000  0.0
     70     62     63     65   5     0.00000    30.33400     0.00000  0.0
     62     63     64     71   5     0.00000     0.00000     0.00000  0.0
     62     63     64     72   5     0.00000     0.00000     0.00000  0.0
     62     63     64     73   5     0.00000     0.00000     0.00000  0.0
     65     63     64     71   5     0.00000     0.00000     0.00000  0.0
     65     63     64     72   5     0.00000     0.00000     0.00000  0.0
     65     63     64     73   5     0.00000     0.00000     0.00000  0.0
     62     63     65     66   5     0.00000    30.33400     0.00000  0.0
     62     63     65     74   5     0.00000    30.33400     0.00000  0.0
     64     63     65     66   5     0.00000    30.33400     0.00000  0.0
     64     63     65     74   5     0.00000    30.33400     0.00000  0.0
     63     65     66     60   5     0.00000    30.33400     0.00000  0.0
     63     65     66     75   5     0.00000    30.33400     0.00000  0.0
     74     65     66     60   5     0.00000    30.33400     0.00000  0.0
     74     65     66     75   5     0.00000    30.33400     0.00000  0.0
     59     67     78     79   5    -0.30962     3.11290    -3.95806  0.0
     59     67     78     86   5     4.74884    -0.63178     1.67360  0.0
     59     67     78     87   5     0.00000     0.00000     1.25520  0.0
     76     67     78     79   5     0.00000     0.00000     3.61498  0.0
     76     67     78     86   5     0.00000     0.00000     1.25520  0.0
     76     67     78     87   5     0.00000     0.00000     1.25520  0.0
     77     67     78     79   5     0.00000     0.00000     3.61498  0.0
     77     67     78     86   5     0.00000     0.00000     1.25520  0.0
     77     67     78     87   5     0.00000     0.00000     1.25520  0.0
     67     78     79     80   5     0.00000     0.34727     0.00000  0.0
     67     78     79     85   5     0.00000     0.34727     0.00000  0.0
     86     78     79     80   5     0.00000     0.34727     0.00000  0.0
     86     78     79     85   5     0.00000     0.34727     0.00000  0.0
     87     78     79     80   5     0.00000     0.00000     0.00000  0.0
     87     78     79     85   5     0.00000     0.00000     0.00000  0.0
     67     78     86     95   5     0.00000     0.00000     1.25520  0.0
     67     78     86     96   5     0.00000     0.00000     1.25520  0.0
     67     78     86     97   5     4.74884    -0.63178     1.67360  0.0
     79     78     86     95   5     0.00000     0.00000     3.61498  0.0
     79     78     86     96   5     0.00000     0.00000     3.61498  0.0
     79     78     86     97   5    -0.30962     3.11290    -3.95806  0.0
     87     78     86     95   5     0.00000     0.00000     1.25520  0.0
     87     78     86     96   5     0.00000     0.00000     1.25520  0.0
     87     78     86     97   5     0.00000     0.00000     1.25520  0.0
     78     79     80     81   5     0.00000    30.33400     0.00000  0.0
     78     79     80     88   5     0.00000    30.33400     0.00000  0.0
     85     79     80     81   5     0.00000    30.33400     0.00000  0.0
     85     79     80     88   5     0.00000    30.33400     0.00000  0.0
     78     79     85     84   5     0.00000    30.33400     0.00000  0.0
     78     79     85     94   5     0.00000    30.33400     0.00000  0.0
     80     79     85     84   5     0.00000    30.33400     0.00000  0.0
     80     79     85     94   5     0.00000    30.33400     0.00000  0.0
     79     80     81     82   5     0.00000    30.33400     0.00000  0.0
     79     80     81     89   5     0.00000    30.33400     0.00000  0.0
     88     80     81     82   5     0.00000    30.33400     0.00000  0.0
     88     80     81     89   5     0.00000    30.33400     0.00000  0.0
     80     81     82     83   5     0.00000    30.33400     0.00000  0.0
     80     81     82     84   5     0.00000    30.33400     0.00000  0.0
     89     81     82     83   5     0.00000    30.33400     0.00000  0.0
     89     81     82     84   5     0.00000    30.33400     0.00000  0.0
     81     82     83     90   5     0.00000     0.00000     0.00000  0.0
     81     82     83     91   5     0.00000     0.00000     0.00000  0.0
     81     82     83     92   5     0.00000     0.00000     0.00000  0.0
     84     82     83     90   5     0.00000     0.00000     0.00000  0.0
     84     82     83     91   5     0.00000     0.00000     0.00000  0.0
     84     82     83     92   5     0.00000     0.00000     0.00000  0.0
     81     82     84     85   5     0.00000    30.33400     0.00000  0.0
     81     82     84     93   5     0.00000    30.33400     0.00000  0.0
     83     82     84     85   5     0.00000    30.33400     0.00000  0.0
     83     82     84     93   5     0.00000    30.33400     0.00000  0.0
     82     84     85     79   5     0.00000    30.33400     0.00000  0.0
     82     84     85     94   5     0.00000    30.33400     0.00000  0.0
     93     84     85     79   5     0.00000    30.33400     0.00000  0.0
     93     84     85     94   5     0.00000    30.33400     0.00000  0.0
     78     86     97     98   5    -0.30962     3.11290    -3.95806  0.0
     78     86     97    105   5     4.74884    -0.63178     1.67360  0.0
     78     86     97    106   5     0.00000     0.00000     1.25520  0.0
     95     86     97     98   5     0.00000     0.00000     3.61498  0.0
     95     86     97    105   5     0.00000     0.00000     1.25520  0.0
     95     86     97    106   5     0.00000     0.00000     1.25520  0.0
     96     86     97     98   5     0.00000     0.00000     3.61498  0.0
     96     86     97    105   5     0.00000     0.00000     1.25520  0.0
     96     86     97    106   5     0.00000     0.00000     1.25520  0.0
     86     97     98     99   5     0.00000     0.34727     0.00000  0.0
     86     97     98    104   5     0.00000     0.34727     0.00000  0.0
    105     97     98     99   5     0.00000     0.34727     0.00000  0.0
    105     97     98    104   5     0.00000     0.34727     0.00000  0.0
    106     97     98     99   5     0.00000     0.00000     0.00000  0.0
    106     97     98    104   5     0.00000     0.00000     0.00000  0.0
     86     97    105    114   5     0.00000     0.00000     1.25520  0.0
     86     97    105    115   5     0.00000     0.00000     1.25520  0.0
     86     97    105    116   5     4.74884    -0.63178     1.67360  0.0
     98     97    105    114   5     0.00000     0.00000     3.61498  0.0
     98     97    105    115   5     0.00000     0.00000     3.61498  0.0
     98     97    105    116   5    -0.30962     3.11290    -3.95806  0.0
    106     97    105    114   5     0.00000     0.00000     1.25520  0.0
    106     97    105    115   5     0.00000     0.00000     1.25520  0.0
    106     97    105    116   5     0.00000     0.00000     1.25520  0.0
     97     98     99    100   5     0.00000    30.33400     0.00000  0.0
     97     98     99    107   5     0.00000    30.33400     0.00000  0.0
    104     98     99    100   5     0.00000    30.33400     0.00000  0.0
    104     98     99    107   5     0.00000    30.33400     0.00000  0.0
     97     98    104    103   5     0.00000    30.33400     0.00000  0.0
     97     98    104    113   5     0.00000    30.33400     0.00000  0.0
     99     98    104    103   5     0.00000    30.33400     0.00000  0.0
     99     98    104    113   5     0.00000    30.33400     0.00000  0.0
     98     99    100    101   5     0.00000    30.33400     0.00000  0.0
     98     99    100    108   5     0.00000    30.33400     0.00000  0.0
    107     99    100    101   5     0.00000    30.33400     0.00000  0.0
    107     99    100    108   5     0.00000    30.33400     0.00000  0.0
     99    100    101    102   5     0.00000    30.33400     0.00000  0.0
     99    100    101    103   5     0.00000    30.33400     0.00000  0.0
    108    100    101    102   5     0.00000    30.33400     0.00000  0.0
    108    100    101    103   5     0.00000    30.33400     0.00000  0.0
    100    101    102    109   5     0.00000     0.00000     0.00000  0.0
    100    101    102    110   5     0.00000     0.00000     0.00000  0.0
    100    101    102    111   5     0.00000     0.00000     0.00000  0.0
    103    101    102    109   5     0.00000     0.00000     0.00000  0.0
    103    101    102    110   5     0.00000     0.00000     0.00000  0.0
    103    101    102    111   5     0.00000     0.00000     0.00000  0.0
    100    101    103    104   5     0.00000    30.33400     0.00000  0.0
    100    101    103    112   5     0.00000    30.33400     0.00000  0.0
    102    101    103    104   5     0.00000    30.33400     0.00000  0.0
    102    101    103    112   5     0.00000    30.33400     0.00000  0.0
    101    103    104     98   5     0.00000    30.33400     0.00000  0.0
    101    103    104    113   5     0.00000    30.33400     0.00000  0.0
    112    103    104     98   5     0.00000    30.33400     0.00000  0.0
    112    103    104    113   5     0.00000    30.33400     0.00000  0.0
     97    105    116    117   5    -0.30962     3.11290    -3.95806  0.0
     97    105    116    124   5     4.74884    -0.63178     1.67360  0.0
     97    105    116    125   5     0.00000     0.00000     1.25520  0.0
    114    105    116    117   5     0.00000     0.00000     3.61498  0.0
    114    105    116    124   5     0.00000     0.00000     1.25520  0.0
    114    105    116    125   5     0.00000     0.00000     1.25520  0.0
    115    105    116    117   5     0.00000     0.00000     3.61498  0.0
    115    105    116    124   5     0.00000     0.00000     1.25520  0.0
    115    105    116    125   5     0.00000     0.00000     1.25520  0.0
    105    116    117    118   5     0.00000     0.34727     0.00000  0.0
    105    116    117    123   5     0.00000     0.34727     0.00000  0.0
    124    116    117    118   5     0.00000     0.34727     0.00000  0.0
    124    116    117    123   5     0.00000     0.34727     0.00000  0.0
    125    116    117    118   5     0.00000     0.00000     0.00000  0.0
    125    116    117    123   5     0.00000     0.00000     0.00000  0.0
    105    116    124    133   5     0.00000     0.00000     1.25520  0.0
    105    116    124    134   5     0.00000     0.00000     1.25520  0.0
    105    116    124    135   5     4.74884    -0.63178     1.67360  0.0
    117    116    124    133   5     0.00000     0.00000     3.61498  0.0
    117    116    124    134   5     0.00000     0.00000     3.61498  0.0
    117    116    124    135   5    -0.30962     3.11290    -3.95806  0.0
    125    116    124    133   5     0.00000     0.00000     1.25520  0.0
    125    116    124    134   5     0.00000     0.00000     1.25520  0.0
    125    116    124    135   5     0.00000     0.00000     1.25520  0.0
    116    117    118    119   5     0.00000    30.33400     0.00000  0.0
    116    117    118    126   5     0.00000    30.33400     0.00000  0.0
    123    117    118    119   5     0.00000    30.33400     0.00000  0.0
    123    117    118    126   5     0.00000    30.33400     0.00000  0.0
    116    117    123    122   5     0.00000    30.33400     0.00000  0.0
    116    117    123    132   5     0.00000    30.33400     0.00000  0.0
    118    117    123    122   5     0.00000    30.33400     0.00000  0.0
    118    117    123    132   5     0.00000    30.33400     0.00000  0.0
    117    118    119    120   5     0.00000    30.33400     0.00000  0.0
    117    118    119    127   5     0.00000    30.33400     0.00000  0.0
    126    118    119    120   5     0.00000    30.33400     0.00000  0.0
    126    118    119    127   5     0.00000    30.33400     0.00000  0.0
    118    119    120    121   5     0.00000    30.33400     0.00000  0.0
    118    119    120    122   5     0.00000    30.33400     0.00000  0.0
    127    119    120    121   5     0.00000    30.33400     0.00000  0.0
    127    119    120    122   5     0.00000    30.33400     0.00000  0.0
    119    120    121    128   5     0.00000     0.00000     0.00000  0.0
    119    120    121    129   5     0.00000     0.00000     0.00000  0.0
    119    120    121    130   5     0.00000     0.00000     0.00000  0.0
    122    120    121    128   5     0.00000     0.00000     0.00000  0.0
    122    120    121    129   5     0.00000     0.00000     0.00000  0.0
    122    120    121    130   5     0.00000     0.00000     0.00000  0.0
    119    120    122    123   5     0.00000    30.33400     0.00000  0.0
    119    120    122    131   5     0.00000    30.33400     0.00000  0.0
    121    120    122    123   5     0.00000    30.33400     0.00000  0.0
    121    120    122    131   5     0.00000    30.33400     0.00000  0.0
    120    122    123    117   5     0.00000    30.33400     0.00000  0.0
    120    122    123    132   5     0.00000    30.33400     0.00000  0.0
    131    122    123    117   5     0.00000    30.33400     0.00000  0.0
    131    122    123    132   5     0.00000    30.33400     0.00000  0.0
    116    124    135    136   5    -0.30962     3.11290    -3.95806  0.0
    116    124    135    143   5     4.74884    -0.63178     1.67360  0.0
    116    124    135    144   5     0.00000     0.00000     1.25520  0.0
    133    124    135    136   5     0.00000     0.00000     3.61498  0.0
    133    124    135    143   5     0.00000     0.00000     1.25520  0.0
    133    124    135    144   5     0.00000     0.00000     1.25520  0.0
    134    124    135    136   5     0.00000     0.00000     3.61498  0.0
    134    124    135    143   5     0.00000     0.00000     1.25520  0.0
    134    124    135    144   5     0.00000     0.00000     1.25520  0.0
    124    135    136    137   5     0.00000     0.34727     0.00000  0.0
    124    135    136    142   5     0.00000     0.34727     0.00000  0.0
    143    135    136    137   5     0.00000     0.34727     0.00000  0.0
    143    135    136    142   5     0.00000     0.34727     0.00000  0.0
    144    135    136    137   5     0.00000     0.00000     0.00000  0.0
    144    135    136    142   5     0.00000     0.00000     0.00000  0.0
    124    135    143    152   5     0.00000     0.00000     1.25520  0.0
    124    135    143    153   5     0.00000     0.00000     1.25520  0.0
    124    135    143    154   5     4.74884    -0.63178     1.67360  0.0
    136    135    143    152   5     0.00000     0.00000     3.61498  0.0
    136    135    143    153   5     0.00000     0.00000     3.61498  0.0
    136    135    143    154   5    -0.30962     3.11290    -3.95806  0.0
    144    135    143    152   5     0.00000     0.00000     1.25520  0.0
    144    135    143    153   5     0.00000     0.00000     1.25520  0.0
    144    135    143    154   5     0.00000     0.00000     1.25520  0.0
    135    136    137    138   5     0.00000    30.33400     0.00000  0.0
    135    136    137    145   5     0.00000    30.33400     0.00000  0.0
    142    136    137    138   5     0.00000    30.33400     0.00000  0.0
    142    136    137    145   5     0.00000    30.33400     0.00000  0.0
    135    136    142    141   5     0.00000    30.33400     0.00000  0.0
    135    136    142    151   5     0.00000    30.33400     0.00000  0.0
    137    136    142    141   5     0.00000    30.33400     0.00000  0.0
    137    136    142    151   5     0.00000    30.33400     0.00000  0.0
    136    137    138    139   5     0.00000    30.33400     0.00000  0.0
    136    137    138    146   5     0.00000    30.33400     0.00000  0.0
    145    137    138    139   5     0.00000    30.33400     0.00000  0.0
    145    137    138    146   5     0.00000    30.33400     0.00000  0.0
    137    138    139    140   5     0.00000    30.33400     0.00000  0.0
    137    138    139    141   5     0.00000    30.33400     0.00000  0.0
    146    138    139    140   5     0.00000    30.33400     0.00000  0.0
    146    138    139    141   5     0.00000    30.33400     0.00000  0.0
    138    139    140    147   5     0.00000     0.00000     0.00000  0.0
    138    139    140    148   5     0.00000     0.00000     0.00000  0.0
    138    139    140    149   5     0.00000     0.00000     0.00000  0.0
    141    139    140    147   5     0.00000     0.00000     0.00000  0.0
    141    139    140    148   5     0.00000     0.00000     0.00000  0.0
    141    139    140    149   5     0.00000     0.00000     0.00000  0.0
    138    139    141    142   5     0.00000    30.33400     0.00000  0.0
    138    139    141    150   5     0.00000    30.33400     0.00000  0.0
    140    139    141    142   5     0.00000    30.33400     0.00000  0.0
    140    139    141    150   5     0.00000    30.33400     0.00000  0.0
    139    141    142    136   5     0.00000    30.33400     0.00000  0.0
    139    141    142    151   5     0.00000    30.33400     0.00000  0.0
    150    141    142    136   5     0.00000    30.33400     0.00000  0.0
    150    141    142    151   5     0.00000    30.33400     0.00000  0.0
    135    143    154    155   5    -0.30962     3.11290    -3.95806  0.0
    135    143    154    162   5     4.74884    -0.63178     1.67360  0.0
    135    143    154    163   5     0.00000     0.00000     1.25520  0.0
    152    143    154    155   5     0.00000     0.00000     3.61498  0.0
    152    143    154    162   5     0.00000     0.00000     1.25520  0.0
    152    143    154    163   5     0.00000     0.00000     1.25520  0.0
    153    143    154    155   5     0.00000     0.00000     3.61498  0.0
    153    143    154    162   5     0.00000     0.00000     1.25520  0.0
    153    143    154    163   5     0.00000     0.00000     1.25520  0.0
    143    154    155    156   5     0.00000     0.34727     0.00000  0.0
    143    154    155    161   5     0.00000     0.34727     0.00000  0.0
    162    154    155    156   5     0.00000     0.34727     0.00000  0.0
    162    154    155    161   5     0.00000     0.34727     0.00000  0.0
    163    154    155    156   5     0.00000     0.00000     0.00000  0.0
    163    154    155    161   5     0.00000     0.00000     0.00000  0.0
    143    154    162    171   5     0.00000     0.00000     1.25520  0.0
    143    154    162    172   5     0.00000     0.00000     1.25520  0.0
    143    154    162    173   5     4.74884    -0.63178     1.67360  0.0
    155    154    162    171   5     0.00000     0.00000     3.61498  0.0
    155    154    162    172   5     0.00000     0.00000     3.61498  0.0
    155    154    162    173   5    -0.30962     3.11290    -3.95806  0.0
    163    154    162    171   5     0.00000     0.00000     1.25520  0.0
    163    154    162    172   5     0.00000     0.00000     1.25520  0.0
    163    154    162    173   5     0.00000     0.00000     1.25520  0.0
    154    155    156    157   5     0.00000    30.33400     0.00000  0.0
    154    155    156    164   5     0.00000    30.33400     0.00000  0.0
    161    155    156    157   5     0.00000    30.33400     0.00000  0.0
    161    155    156    164   5     0.00000    30.33400     0.00000  0.0
    154    155    161    160   5     0.00000    30.33400     0.00000  0.0
    154    155    161    170   5     0.00000    30.33400     0.00000  0.0
    156    155    161    160   5     0.00000    30.33400     0.00000  0.0
    156    155    161    170   5     0.00000    30.33400     0.00000  0.0
    155    156    157    158   5     0.00000    30.33400     0.00000  0.0
    155    156    157    165   5     0.00000    30.33400     0.00000  0.0
    164    156    157    158   5     0.00000    30.33400     0.00000  0.0
    164    156    157    165   5     0.00000    30.33400     0.00000  0.0
    156    157    158    159   5     0.00000    30.33400     0.00000  0.0
    156    157    158    160   5     0.00000    30.33400     0.00000  0.0
    165    157    158    159   5     0.00000    30.33400     0.00000  0.0
    165    157    158    160   5     0.00000    30.33400     0.00000  0.0
    157    158    159    166   5     0.00000     0.00000     0.00000  0.0
    157    158    159    167   5     0.00000     0.00000     0.00000  0.0
    157    158    159    168   5     0.00000     0.00000     0.00000  0.0
    160    158    159    166   5     0.00000     0.00000     0.00000  0.0
    160    158    159    167   5     0.00000     0.00000     0.00000  0.0
    160    158    159    168   5     0.00000     0.00000     0.00000  0.0
    157    158    160    161   5     0.00000    30.33400     0.00000  0.0
    157    158    160    169   5     0.00000    30.33400     0.00000  0.0
    159    158    160    161   5     0.00000    30.33400     0.00000  0.0
    159    158    160    169   5     0.00000    30.33400     0.00000  0.0
    158    160    161    155   5     0.00000    30.33400     0.00000  0.0
    158    160    161    170   5     0.00000    30.33400     0.00000  0.0
    169    160    161    155   5     0.00000    30.33400     0.00000  0.0
    169    160    161    170   5     0.00000    30.33400     0.00000  0.0
    154    162    173    174   5    -0.30962     3.11290    -3.95806  0.0
    154    162    173    181   5     4.74884    -0.63178     1.67360  0.0
    154    162    173    182   5     0.00000     0.00000     1.25520  0.0
    171    162    173    174   5     0.00000     0.00000     3.61498  0.0
    171    162    173    181   5     0.00000     0.00000     1.25520  0.0
    171    162    173    182   5     0.00000     0.00000     1.25520  0.0
    172    162    173    174   5     0.00000     0.00000     3.61498  0.0
    172    162    173    181   5     0.00000     0.00000     1.25520  0.0
    172    162    173    182   5     0.00000     0.00000     1.25520  0.0
    162    173    174    175   5     0.00000     0.34727     0.00000  0.0
    162    173    174    180   5     0.00000     0.34727     0.00000  0.0
    181    173    174    175   5     0.00000     0.34727     0.00000  0.0
    181    173    174    180   5     0.00000     0.34727     0.00000  0.0
    182    173    174    175   5     0.00000     0.00000     0.00000  0.0
    182    173    174    180   5     0.00000     0.00000     0.00000  0.0
    162    173    181    190   5     0.00000     0.00000     1.25520  0.0
    162    173    181    191   5     0.00000     0.00000     1.25520  0.0
    162    173    181    192   5     4.74884    -0.63178     1.67360  0.0
    174    173    181    190   5     0.00000     0.00000     3.61498  0.0
    174    173    181    191   5     0.00000     0.00000     3.61498  0.0
    174    173    181    192   5    -0.30962     3.11290    -3.95806  0.0
    182    173    181    190   5     0.00000     0.00000     1.25520  0.0
    182    173    181    191   5     0.00000     0.00000     1.25520  0.0
    182    173    181    192   5     0.00000     0.00000     1.25520  0.0
    173    174    175    176   5     0.00000    30.33400     0.00000  0.0
    173    174    175    183   5     0.00000    30.33400     0.00000  0.0
    180    174    175    176   5     0.00000    30.33400     0.00000  0.0
    180    174    175    183   5     0.00000    30.33400     0.00000  0.0
    173    174    180    179   5     0.00000    30.33400     0.00000  0.0
    173    174    180    189   5     0.00000    30.33400     0.00000  0.0
    175    174    180    179   5     0.00000    30.33400     0.00000  0.0
    175    174    180    189   5     0.00000    30.33400     0.00000  0.0
    174    175    176    177   5     0.00000    30.33400     0.00000  0.0
    174    175    176    184   5     0.00000    30.33400     0.00000  0.0
    183    175    176    177   5     0.00000    30.33400     0.00000  0.0
    183    175    176    184   5     0.00000    30.33400     0.00000  0.0
    175    176    177    178   5     0.00000    30.33400     0.00000  0.0
    175    176    177    179   5     0.00000    30.33400     0.00000  0.0
    184    176    177    178   5     0.00000    30.33400     0.00000  0.0
    184    176    177    179   5     0.00000    30.33400     0.00000  0.0
    176    177    178    185   5     0.00000     0.00000     0.00000  0.0
    176    177    178    186   5     0.00000     0.00000     0.00000  0.0
    176    177    178    187   5     0.00000     0.00000     0.00000  0.0
    179    177    178    185   5     0.00000     0.00000     0.00000  0.0
    179    177    178    186   5     0.00000     0.00000     0.00000  0.0
    179    177    178    187   5     0.00000     0.00000     0.00000  0.0
    176    177    179    180   5     0.00000    30.33400     0.00000  0.0
    176    177    179    188   5     0.00000    30.33400     0.00000  0.0
    178    177    179    180   5     0.00000    30.33400     0.00000  0.0
    178    177    179    188   5     0.00000    30.33400     0.00000  0.0
    177    179    180    174   5     0.00000    30.33400     0.00000  0.0
    177    179    180    189   5     0.00000    30.33400     0.00000  0.0
    188    179    180    174   5     0.00000    30.33400     0.00000  0.0
    188    179    180    189   5     0.00000    30.33400     0.00000  0.0
    173    181    192    193   5    -0.30962     3.11290    -3.95806  0.0
    173    181    192    200   5     4.74884    -0.63178     1.67360  0.0
    173    181    192    201   5     0.00000     0.00000     1.25520  0.0
    190    181    192    193   5     0.00000     0.00000     3.61498  0.0
    190    181    192    200   5     0.00000     0.00000     1.25520  0.0
    190    181    192    201   5     0.00000     0.00000     1.25520  0.0
    191    181    192    193   5     0.00000     0.00000     3.61498  0.0
    191    181    192    200   5     0.00000     0.00000     1.25520  0.0
    191    181    192    201   5     0.00000     0.00000     1.25520  0.0
    181    192    193    194   5     0.00000     0.34727     0.00000  0.0
    181    192    193    199   5     0.00000     0.34727     0.00000  0.0
    200    192    193    194   5     0.00000     0.34727     0.00000  0.0
    200    192    193    199   5     0.00000     0.34727     0.00000  0.0
    201    192    193    194   5     0.00000     0.00000     0.00000  0.0
    201    192    193    199   5     0.00000     0.00000     0.00000  0.0
    181    192    200    209   5     0.00000     0.00000     1.25520  0.0
    181    192    200    210   5     0.00000     0.00000     1.25520  0.0
    181    192    200    211   5     4.74884    -0.63178     1.67360  0.0
    193    192    200    209   5     0.00000     0.00000     3.61498  0.0
    193    192    200    210   5     0.00000     0.00000     3.61498  0.0
    193    192    200    211   5    -0.30962     3.11290    -3.95806  0.0
    201    192    200    209   5     0.00000     0.00000     1.25520  0.0
    201    192    200    210   5     0.00000     0.00000     1.25520  0.0
    201    192    200    211   5     0.00000     0.00000     1.25520  0.0
    192    193    194    195   5     0.00000    30.33400     0.00000  0.0
    192    193    194    202   5     0.00000    30.33400     0.00000  0.0
    199    193    194    195   5     0.00000    30.33400     0.00000  0.0
    199    193    194    202   5     0.00000    30.33400     0.00000  0.0
    192    193    199    198   5     0.00000    30.33400     0.00000  0.0
    192    193    199    208   5     0.00000    30.33400     0.00000  0.0
    194    193    199    198   5     0.00000    30.33400     0.00000  0.0
    194    193    199    208   5     0.00000    30.33400     0.00000  0.0
    193    194    195    196   5     0.00000    30.33400     0.00000  0.0
    193    194    195    203   5     0.00000    30.33400     0.00000  0.0
    202    194    195    196   5     0.00000    30.33400     0.00000  0.0
    202    194    195    203   5     0.00000    30.33400     0.00000  0.0
    194    195    196    197   5     0.00000    30.33400     0.00000  0.0
    194    195    196    198   5     0.00000    30.33400     0.00000  0.0
    203    195    196    197   5     0.00000    30.33400     0.00000  0.0
    203    195    196    198   5     0.00000    30.33400     0.00000  0.0
    195    196    197    204   5     0.00000     0.00000     0.00000  0.0
    195    196    197    205   5     0.00000     0.00000     0.00000  0.0
    195    196    197    206   5     0.00000     0.00000     0.00000  0.0
    198    196    197    204   5     0.00000     0.00000     0.00000  0.0
    198    196    197    205   5     0.00000     0.00000     0.00000  0.0
    198    196    197    206   5     0.00000     0.00000     0.00000  0.0
    195    196    198    199   5     0.00000    30.33400     0.00000  0.0
    195    196    198    207   5     0.00000    30.33400     0.00000  0.0
    197    196    198    199   5     0.00000    30.33400     0.00000  0.0
    197    196    198    207   5     0.00000    30.33400     0.00000  0.0
    196    198    199    193   5     0.00000    30.33400     0.00000  0.0
    196    198    199    208   5     0.00000    30.33400     0.00000  0.0
    207    198    199    193   5     0.00000    30.33400     0.00000  0.0
    207    198    199    208   5     0.00000    30.33400     0.00000  0.0
    192    200    211    212   5    -0.30962     3.11290    -3.95806  0.0
    192    200    211    219   5     4.74884    -0.63178     1.67360  0.0
    192    200    211    220   5     0.00000     0.00000     1.25520  0.0
    209    200    211    212   5     0.00000     0.00000     3.61498  0.0
    209    200    211    219   5     0.00000     0.00000     1.25520  0.0
    209    200    211    220   5     0.00000     0.00000     1.25520  0.0
    210    200    211    212   5     0.00000     0.00000     3.61498  0.0
    210    200    211    219   5     0.00000     0.00000     1.25520  0.0
    210    200    211    220   5     0.00000     0.00000     1.25520  0.0
    200    211    212    213   5     0.00000     0.34727     0.00000  0.0
    200    211    212    218   5     0.00000     0.34727     0.00000  0.0
    219    211    212    213   5     0.00000     0.34727     0.00000  0.0
    219    211    212    218   5     0.00000     0.34727     0.00000  0.0
    220    211    212    213   5     0.00000     0.00000     0.00000  0.0
    220    211    212    218   5     0.00000     0.00000     0.00000  0.0
    200    211    219    228   5     0.00000     0.00000     1.25520  0.0
    200    211    219    229   5     0.00000     0.00000     1.25520  0.0
    200    211    219    230   5     4.74884    -0.63178     1.67360  0.0
    212    211    219    228   5     0.00000     0.00000     3.61498  0.0
    212    211    219    229   5     0.00000     0.00000     3.61498  0.0
    212    211    219    230   5    -0.30962     3.11290    -3.95806  0.0
    220    211    219    228   5     0.00000     0.00000     1.25520  0.0
    220    211    219    229   5     0.00000     0.00000     1.25520  0.0
    220    211    219    230   5     0.00000     0.00000     1.25520  0.0
    211    212    213    214   5     0.00000    30.33400     0.00000  0.0
    211    212    213    221   5     0.00000    30.33400     0.00000  0.0
    218    212    213    214   5     0.00000    30.33400     0.00000  0.0
    218    212    213    221   5     0.00000    30.33400     0.00000  0.0
    211    212    218    217   5     0.00000    30.33400     0.00000  0.0
    211    212    218    227   5     0.00000    30.33400     0.00000  0.0
    213    212    218    217   5     0.00000    30.33400     0.00000  0.0
    213    212    218    227   5     0.00000    30.33400     0.00000  0.0
    212    213    214    215   5     0.00000    30.33400     0.00000  0.0
    212    213    214    222   5     0.00000    30.33400     0.00000  0.0
    221    213    214    215   5     0.00000    30.33400     0.00000  0.0
    221    213    214    222   5     0.00000    30.33400     0.00000  0.0
    213    214    215    216   5     0.00000    30.33400     0.00000  0.0
    213    214    215    217   5     0.00000    30.33400     0.00000  0.0
    222    214    215    216   5     0.00000    30.33400     0.00000  0.0
    222    214    215    217   5     0.00000    30.33400     0.00000  0.0
    214    215    216    223   5     0.00000     0.00000     0.00000  0.0
    214    215    216    224   5     0.00000     0.00000     0.00000  0.0
    214    215    216    225   5     0.00000     0.00000     0.00000  0.0
    217    215    216    223   5     0.00000     0.00000     0.00000  0.0
    217    215    216    224   5     0.00000     0.00000     0.00000  0.0
    217    215    216    225   5     0.00000     0.00000     0.00000  0.0
    214    215    217    218   5     0.00000    30.33400     0.00000  0.0
    214    215    217    226   5     0.00000    30.33400     0.00000  0.0
    216    215    217    218   5     0.00000    30.33400     0.00000  0.0
    216    215    217    226   5     0.00000    30.33400     0.00000  0.0
    215    217    218    212   5     0.00000    30.33400     0.00000  0.0
    215    217    218    227   5     0.00000    30.33400     0.00000  0.0
    226    217    218    212   5     0.00000    30.33400     0.00000  0.0
    226    217    218    227   5     0.00000    30.33400     0.00000  0.0
    211    219    230    231   5    -0.30962     3.11290    -3.95806  0.0
    211    219    230    238   5     4.74884    -0.63178     1.67360  0.0
    211    219    230    239   5     0.00000     0.00000     1.25520  0.0
    228    219    230    231   5     0.00000     0.00000     3.61498  0.0
    228    219    230    238   5     0.00000     0.00000     1.25520  0.0
    228    219    230    239   5     0.00000     0.00000     1.25520  0.0
    229    219    230    231   5     0.00000     0.00000     3.61498  0.0
    229    219    230    238   5     0.00000     0.00000     1.25520  0.0
    229    219    230    239   5     0.00000     0.00000     1.25520  0.0
    219    230    231    232   5     0.00000     0.34727     0.00000  0.0
    219    230    231    237   5     0.00000     0.34727     0.00000  0.0
    238    230    231    232   5     0.00000     0.34727     0.00000  0.0
    238    230    231    237   5     0.00000     0.34727     0.00000  0.0
    239    230    231    232   5     0.00000     0.00000     0.00000  0.0
    239    230    231    237   5     0.00000     0.00000     0.00000  0.0
    219    230    238    247   5     0.00000     0.00000     1.25520  0.0
    219    230    238    248   5     0.00000     0.00000     1.25520  0.0
    219    230    238    249   5     4.74884    -0.63178     1.67360  0.0
    231    230    238    247   5     0.00000     0.00000     3.61498  0.0
    231    230    238    248   5     0.00000     0.00000     3.61498  0.0
    231    230    238    249   5    -0.30962     3.11290    -3.95806  0.0
    239    230    238    247   5     0.00000     0.00000     1.25520  0.0
    239    230    238    248   5     0.00000     0.00000     1.25520  0.0
    239    230    238    249   5     0.00000     0.00000     1.25520  0.0
    230    231    232    233   5     0.00000    30.33400     0.00000  0.0
    230    231    232    240   5     0.00000    30.33400     0.00000  0.0
    237    231    232    233   5     0.00000    30.33400     0.00000  0.0
    237    231    232    240   5     0.00000    30.33400     0.00000  0.0
    230    231    237    236   5     0.00000    30.33400     0.00000  0.0
    230    231    237    246   5     0.00000    30.33400     0.00000  0.0
    232    231    237    236   5     0.00000    30.33400     0.00000  0.0
    232    231    237    246   5     0.00000    30.33400     0.00000  0.0
    231    232    233    234   5     0.00000    30.33400     0.00000  0.0
    231    232    233    241   5     0.00000    30.33400     0.00000  0.0
    240    232    233    234   5     0.00000    30.33400     0.00000  0.0
    240    232    233    241   5     0.00000    30.33400     0.00000  0.0
    232    233    234    235   5     0.00000    30.33400     0.00000  0.0
    232    233    234    236   5     0.00000    30.33400     0.00000  0.0
    241    233    234    235   5     0.00000    30.33400     0.00000  0.0
    241    233    234    236   5     0.00000    30.33400     0.00000  0.0
    233    234    235    242   5     0.00000     0.00000     0.00000  0.0
    233    234    235    243   5     0.00000     0.00000     0.00000  0.0
    233    234    235    244   5     0.00000     0.00000     0.00000  0.0
    236    234    235    242   5     0.00000     0.00000     0.00000  0.0
    236    234    235    243   5     0.00000     0.00000     0.00000  0.0
    236    234    235    244   5     0.00000     0.00000     0.00000  0.0
    233    234    236    237   5     0.00000    30.33400     0.00000  0.0
    233    234    236    245   5     0.00000    30.33400     0.00000  0.0
    235    234    236    237   5     0.00000    30.33400     0.00000  0.0
    235    234    236    245   5     0.00000    30.33400     0.00000  0.0
    234    236    237    231   5     0.00000    30.33400     0.00000  0.0
    234    236    237    246   5     0.00000    30.33400     0.00000  0.0
    245    236    237    231   5     0.00000    30.33400     0.00000  0.0
    245    236    237    246   5     0.00000    30.33400     0.00000  0.0
    230    238    249    250   5    -0.30962     3.11290    -3.95806  0.0
    230    238    249    257   5     4.74884    -0.63178     1.67360  0.0
    230    238    249    258   5     0.00000     0.00000     1.25520  0.0
    247    238    249    250   5     0.00000     0.00000     3.61498  0.0
    247    238    249    257   5     0.00000     0.00000     1.25520  0.0
    247    238    249    258   5     0.00000     0.00000     1.25520  0.0
    248    238    249    250   5     0.00000     0.00000     3.61498  0.0
    248    238    249    257   5     0.00000     0.00000     1.25520  0.0
    248    238    249    258   5     0.00000     0.00000     1.25520  0.0
    238    249    250    251   5     0.00000     0.34727     0.00000  0.0
    238    249    250    256   5     0.00000     0.34727     0.00000  0.0
    257    249    250    251   5     0.00000     0.34727     0.00000  0.0
    257    249    250    256   5     0.00000     0.34727     0.00000  0.0
    258    249    250    251   5     0.00000     0.00000     0.00000  0.0
    258    249    250    256   5     0.00000     0.00000     0.00000  0.0
    238    249    257    266   5     0.00000     0.00000     1.25520  0.0
    238    249    257    267   5     0.00000     0.00000     1.25520  0.0
    238    249    257    268   5     4.74884    -0.63178     1.67360  0.0
    250    249    257    266   5     0.00000     0.00000     3.61498  0.0
    250    249    257    267   5     0.00000     0.00000     3.61498  0.0
    250    249    257    268   5    -0.30962     3.11290    -3.95806  0.0
    258    249    257    266   5     0.00000     0.00000     1.25520  0.0
    258    249    257    267   5     0.00000     0.00000     1.25520  0.0
    258    249    257    268   5     0.00000     0.00000     1.25520  0.0
    249    250    251    252   5     0.00000    30.33400     0.00000  0.0
    249    250    251    259   5     0.00000    30.33400     0.00000  0.0
    256    250    251    252   5     0.00000    30.33400     0.00000  0.0
    256    250    251    259   5     0.00000    30.33400     0.00000  0.0
    249    250    256    255   5     0.00000    30.33400     0.00000  0.0
    249    250    256    265   5     0.00000    30.33400     0.00000  0.0
    251    250    256    255   5     0.00000    30.33400     0.00000  0.0
    251    250    256    265   5     0.00000    30.33400     0.00000  0.0
    250    251    252    253   5     0.00000    30.33400     0.00000  0.0
    250    251    252    260   5     0.00000    30.33400     0.00000  0.0
    259    251    252    253   5     0.00000    30.33400     0.00000  0.0
    259    251    252    260   5     0.00000    30.33400     0.00000  0.0
    251    252    253    254   5     0.00000    30.33400     0.00000  0.0
    251    252    253    255   5     0.00000    30.33400     0.00000  0.0
    260    252    253    254   5     0.00000    30.33400     0.00000  0.0
    260    252    253    255   5     0.00000    30.33400     0.00000  0.0
    252    253    254    261   5     0.00000     0.00000     0.00000  0.0
    252    253    254    262   5     0.00000     0.00000     0.00000  0.0
    252    253    254    263   5     0.00000     0.00000     0.00000  0.0
    255    253    254    261   5     0.00000     0.00000     0.00000  0.0
    255    253    254    262   5     0.00000     0.00000     0.00000  0.0
    255    253    254    263   5     0.00000     0.00000     0.00000  0.0
    252    253    255    256   5     0.00000    30.33400     0.00000  0.0
    252    253    255    264   5     0.00000    30.33400     0.00000  0.0
    254    253    255    256   5     0.00000    30.33400     0.00000  0.0
    254    253    255    264   5     0.00000    30.33400     0.00000  0.0
    253    255    256    250   5     0.00000    30.33400     0.00000  0.0
    253    255    256    265   5     0.00000    30.33400     0.00000  0.0
    264    255    256    250   5     0.00000    30.33400     0.00000  0.0
    264    255    256    265   5     0.00000    30.33400     0.00000  0.0
    249    257    268    269   5    -0.30962     3.11290    -3.95806  0.0
    249    257    268    276   5     4.74884    -0.63178     1.67360  0.0
    249    257    268    277   5     0.00000     0.00000     1.25520  0.0
    266    257    268    269   5     0.00000     0.00000     3.61498  0.0
    266    257    268    276   5     0.00000     0.00000     1.25520  0.0
    266    257    268    277   5     0.00000     0.00000     1.25520  0.0
    267    257    268    269   5     0.00000     0.00000     3.61498  0.0
    267    257    268    276   5     0.00000     0.00000     1.25520  0.0
    267    257    268    277   5     0.00000     0.00000     1.25520  0.0
    257    268    269    270   5     0.00000     0.34727     0.00000  0.0
    257    268    269    275   5     0.00000     0.34727     0.00000  0.0
    276    268    269    270   5     0.00000     0.34727     0.00000  0.0
    276    268    269    275   5     0.00000     0.34727     0.00000  0.0
    277    268    269    270   5     0.00000     0.00000     0.00000  0.0
    277    268    269    275   5     0.00000     0.00000     0.00000  0.0
    257    268    276    285   5     0.00000     0.00000     1.25520  0.0
    257    268    276    286   5     0.00000     0.00000     1.25520  0.0
    257    268    276    287   5     4.74884    -0.63178     1.67360  0.0
    269    268    276    285   5     0.00000     0.00000     3.61498  0.0
    269    268    276    286   5     0.00000     0.00000     3.61498  0.0
    269    268    276    287   5    -0.30962     3.11290    -3.95806  0.0
    277    268    276    285   5     0.00000     0.00000     1.25520  0.0
    277    268    276    286   5     0.00000     0.00000     1.25520  0.0
    277    268    276    287   5     0.00000     0.00000     1.25520  0.0
    268    269    270    271   5     0.00000    30.33400     0.00000  0.0
    268    269    270    278   5     0.00000    30.33400     0.00000  0.0
    275    269    270    271   5     0.00000    30.33400     0.00000  0.0
    275    269    270    278   5     0.00000    30.33400     0.00000  0.0
    268    269    275    274   5     0.00000    30.33400     0.00000  0.0
    268    269    275    284   5     0.00000    30.33400     0.00000  0.0
    270    269    275    274   5     0.00000    30.33400     0.00000  0.0
    270    269    275    284   5     0.00000    30.33400     0.00000  0.0
    269    270    271    272   5     0.00000    30.33400     0.00000  0.0
    269    270    271    279   5     0.00000    30.33400     0.00000  0.0
    278    270    271    272   5     0.00000    30.33400     0.00000  0.0
    278    270    271    279   5     0.00000    30.33400     0.00000  0.0
    270    271    272    273   5     0.00000    30.33400     0.00000  0.0
    270    271    272    274   5     0.00000    30.33400     0.00000  0.0
    279    271    272    273   5     0.00000    30.33400     0.00000  0.0
    279    271    272    274   5     0.00000    30.33400     0.00000  0.0
    271    272    273    280   5     0.00000     0.00000     0.00000  0.0
    271    272    273    281   5     0.00000     0.00000     0.00000  0.0
    271    272    273    282   5     0.00000     0.00000     0.00000  0.0
    274    272    273    280   5     0.00000     0.00000     0.00000  0.0
    274    272    273    281   5     0.00000     0.00000     0.00000  0.0
    274    272    273    282   5     0.00000     0.00000     0.00000  0.0
    271    272    274    275   5     0.00000    30.33400     0.00000  0.0
    271    272    274    283   5     0.00000    30.33400     0.00000  0.0
    273    272    274    275   5     0.00000    30.33400     0.00000  0.0
    273    272    274    283   5     0.00000    30.33400     0.00000  0.0
    272    274    275    269   5     0.00000    30.33400     0.00000  0.0
    272    274    275    284   5     0.00000    30.33400     0.00000  0.0
    283    274    275    269   5     0.00000    30.33400     0.00000  0.0
    283    274    275    284   5     0.00000    30.33400     0.00000  0.0
    268    276    287    288   5    -0.30962     3.11290    -3.95806  0.0
    268    276    287    295   5     4.74884    -0.63178     1.67360  0.0
    268    276    287    296   5     0.00000     0.00000     1.25520  0.0
    285    276    287    288   5     0.00000     0.00000     3.61498  0.0
    285    276    287    295   5     0.00000     0.00000     1.25520  0.0
    285    276    287    296   5     0.00000     0.00000     1.25520  0.0
    286    276    287    288   5     0.00000     0.00000     3.61498  0.0
    286    276    287    295   5     0.00000     0.00000     1.25520  0.0
    286    276    287    296   5     0.00000     0.00000     1.25520  0.0
    276    287    288    289   5     0.00000     0.34727     0.00000  0.0
    276    287    288    294   5     0.00000     0.34727     0.00000  0.0
    295    287    288    289   5     0.00000     0.34727     0.00000  0.0
    295    287    288    294   5     0.00000     0.34727     0.00000  0.0
    296    287    288    289   5     0.00000     0.00000     0.00000  0.0
    296    287    288    294   5     0.00000     0.00000     0.00000  0.0
    276    287    295    304   5     0.00000     0.00000     1.25520  0.0
    276    287    295    305   5     0.00000     0.00000     1.25520  0.0
    276    287    295    306   5     4.74884    -0.63178     1.67360  0.0
    288    287    295    304   5     0.00000     0.00000     3.61498  0.0
    288    287    295    305   5     0.00000     0.00000     3.61498  0.0
    288    287    295    306   5    -0.30962     3.11290    -3.95806  0.0
    296    287    295    304   5     0.00000     0.00000     1.25520  0.0
    296    287    295    305   5     0.00000     0.00000     1.25520  0.0
    296    287    295    306   5     0.00000     0.00000     1.25520  0.0
    287    288    289    290   5     0.00000    30.33400     0.00000  0.0
    287    288    289    297   5     0.00000    30.33400     0.00000  0.0
    294    288    289    290   5     0.00000    30.33400     0.00000  0.0
    294    288    289    297   5     0.00000    30.33400     0.00000  0.0
    287    288    294    293   5     0.00000    30.33400     0.00000  0.0
    287    288    294    303   5     0.00000    30.33400     0.00000  0.0
    289    288    294    293   5     0.00000    30.33400     0.00000  0.0
    289    288    294    303   5     0.00000    30.33400     0.00000  0.0
    288    289    290    291   5     0.00000    30.33400     0.00000  0.0
    288    289    290    298   5     0.00000    30.33400     0.00000  0.0
    297    289    290    291   5     0.00000    30.33400     0.00000  0.0
    297    289    290    298   5     0.00000    30.33400     0.00000  0.0
    289    290    291    292   5     0.00000    30.33400     0.00000  0.0
    289    290    291    293   5     0.00000    30.33400     0.00000  0.0
    298    290    291    292   5     0.00000    30.33400     0.00000  0.0
    298    290    291    293   5     0.00000    30.33400     0.00000  0.0
    290    291    292    299   5     0.00000     0.00000     0.00000  0.0
    290    291    292    300   5     0.00000     0.00000     0.00000  0.0
    290    291    292    301   5     0.00000     0.00000     0.00000  0.0
    293    291    292    299   5     0.00000     0.00000     0.00000  0.0
    293    291    292    300   5     0.00000     0.00000     0.00000  0.0
    293    291    292    301   5     0.00000     0.00000     0.00000  0.0
    290    291    293    294   5     0.00000    30.33400     0.00000  0.0
    290    291    293    302   5     0.00000    30.33400     0.00000  0.0
    292    291    293    294   5     0.00000    30.33400     0.00000  0.0
    292    291    293    302   5     0.00000    30.33400     0.00000  0.0
    291    293    294    288   5     0.00000    30.33400     0.00000  0.0
    291    293    294    303   5     0.00000    30.33400     0.00000  0.0
    302    293    294    288   5     0.00000    30.33400     0.00000  0.0
    302    293    294    303   5     0.00000    30.33400     0.00000  0.0
    287    295    306    307   5    -0.30962     3.11290    -3.95806  0.0
    287    295    306    314   5     4.74884    -0.63178     1.67360  0.0
    287    295    306    315   5     0.00000     0.00000     1.25520  0.0
    304    295    306    307   5     0.00000     0.00000     3.61498  0.0
    304    295    306    314   5     0.00000     0.00000     1.25520  0.0
    304    295    306    315   5     0.00000     0.00000     1.25520  0.0
    305    295    306    307   5     0.00000     0.00000     3.61498  0.0
    305    295    306    314   5     0.00000     0.00000     1.25520  0.0
    305    295    306    315   5     0.00000     0.00000     1.25520  0.0
    295    306    307    308   5     0.00000     0.34727     0.00000  0.0
    295    306    307    313   5     0.00000     0.34727     0.00000  0.0
    314    306    307    308   5     0.00000     0.34727     0.00000  0.0
    314    306    307    313   5     0.00000     0.34727     0.00000  0.0
    315    306    307    308   5     0.00000     0.00000     0.00000  0.0
    315    306    307    313   5     0.00000     0.00000     0.00000  0.0
    295    306    314    323   5     0.00000     0.00000     1.25520  0.0
    295    306    314    324   5     0.00000     0.00000     1.25520  0.0
    295    306    314    325   5     4.74884    -0.63178     1.67360  0.0
    307    306    314    323   5     0.00000     0.00000     3.61498  0.0
    307    306    314    324   5     0.00000     0.00000     3.61498  0.0
    307    306    314    325   5    -0.30962     3.11290    -3.95806  0.0
    315    306    314    323   5     0.00000     0.00000     1.25520  0.0
    315    306    314    324   5     0.00000     0.00000     1.25520  0.0
    315    306    314    325   5     0.00000     0.00000     1.25520  0.0
    306    307    308    309   5     0.00000    30.33400     0.00000  0.0
    306    307    308    316   5     0.00000    30.33400     0.00000  0.0
    313    307    308    309   5     0.00000    30.33400     0.00000  0.0
    313    307    308    316   5     0.00000    30.33400     0.00000  0.0
    306    307    313    312   5     0.00000    30.33400     0.00000  0.0
    306    307    313    322   5     0.00000    30.33400     0.00000  0.0
    308    307    313    312   5     0.00000    30.33400     0.00000  0.0
    308    307    313    322   5     0.00000    30.33400     0.00000  0.0
    307    308    309    310   5     0.00000    30.33400     0.00000  0.0
    307    308    309    317   5     0.00000    30.33400     0.00000  0.0
    316    308    309    310   5     0.00000    30.33400     0.00000  0.0
    316    308    309    317   5     0.00000    30.33400     0.00000  0.0
    308    309    310    311   5     0.00000    30.33400     0.00000  0.0
    308    309    310    312   5     0.00000    30.33400     0.00000  0.0
    317    309    310    311   5     0.00000    30.33400     0.00000  0.0
    317    309    310    312   5     0.00000    30.33400     0.00000  0.0
    309    310    311    318   5     0.00000     0.00000     0.00000  0.0
    309    310    311    319   5     0.00000     0.00000     0.00000  0.0
    309    310    311    320   5     0.00000     0.00000     0.00000  0.0
    312    310    311    318   5     0.00000     0.00000     0.00000  0.0
    312    310    311    319   5     0.00000     0.00000     0.00000  0.0
    312    310    311    320   5     0.00000     0.00000     0.00000  0.0
    309    310    312    313   5     0.00000    30.33400     0.00000  0.0
    309    310    312    321   5     0.00000    30.33400     0.00000  0.0
    311    310    312    313   5     0.00000    30.33400     0.00000  0.0
    311    310    312    321   5     0.00000    30.33400     0.00000  0.0
    310    312    313    307   5     0.00000    30.33400     0.00000  0.0
    310    312    313    322   5     0.00000    30.33400     0.00000  0.0
    321    312    313    307   5     0.00000    30.33400     0.00000  0.0
    321    312    313    322   5     0.00000    30.33400     0.00000  0.0
    306    314    325    326   5    -0.30962     3.11290    -3.95806  0.0
    306    314    325    333   5     4.74884    -0.63178     1.67360  0.0
    306    314    325    334   5     0.00000     0.00000     1.25520  0.0
    323    314    325    326   5     0.00000     0.00000     3.61498  0.0
    323    314    325    333   5     0.00000     0.00000     1.25520  0.0
    323    314    325    334   5     0.00000     0.00000     1.25520  0.0
    324    314    325    326   5     0.00000     0.00000     3.61498  0.0
    324    314    325    333   5     0.00000     0.00000     1.25520  0.0
    324    314    325    334   5     0.00000     0.00000     1.25520  0.0
    314    325    326    327   5     0.00000     0.34727     0.00000  0.0
    314    325    326    332   5     0.00000     0.34727     0.00000  0.0
    333    325    326    327   5     0.00000     0.34727     0.00000  0.0
    333    325    326    332   5     0.00000     0.34727     0.00000  0.0
    334    325    326    327   5     0.00000     0.00000     0.00000  0.0
    334    325    326    332   5     0.00000     0.00000     0.00000  0.0
    314    325    333    342   5     0.00000     0.00000     1.25520  0.0
    314    325    333    343   5     0.00000     0.00000     1.25520  0.0
    314    325    333    344   5     4.74884    -0.63178     1.67360  0.0
    326    325    333    342   5     0.00000     0.00000     3.61498  0.0
    326    325    333    343   5     0.00000     0.00000     3.61498  0.0
    326    325    333    344   5    -0.30962     3.11290    -3.95806  0.0
    334    325    333    342   5     0.00000     0.00000     1.25520  0.0
    334    325    333    343   5     0.00000     0.00000     1.25520  0.0
    334    325    333    344   5     0.00000     0.00000     1.25520  0.0
    325    326    327    328   5     0.00000    30.33400     0.00000  0.0
    325    326    327    335   5     0.00000    30.33400     0.00000  0.0
    332    326    327    328   5     0.00000    30.33400     0.00000  0.0
    332    326    327    335   5     0.00000    30.33400     0.00000  0.0
    325    326    332    331   5     0.00000    30.33400     0.00000  0.0
    325    326    332    341   5     0.00000    30.33400     0.00000  0.0
    327    326    332    331   5     0.00000    30.33400     0.00000  0.0
    327    326    332    341   5     0.00000    30.33400     0.00000  0.0
    326    327    328    329   5     0.00000    30.33400     0.00000  0.0
    326    327    328    336   5     0.00000    30.33400     0.00000  0.0
    335    327    328    329   5     0.00000    30.33400     0.00000  0.0
    335    327    328    336   5     0.00000    30.33400     0.00000  0.0
    327    328    329    330   5     0.00000    30.33400     0.00000  0.0
    327    328    329    331   5     0.00000    30.33400     0.00000  0.0
    336    328    329    330   5     0.00000    30.33400     0.00000  0.0
    336    328    329    331   5     0.00000    30.33400     0.00000  0.0
    328    329    330    337   5     0.00000     0.00000     0.00000  0.0
    328    329    330    338   5     0.00000     0.00000     0.00000  0.0
    328    329    330    339   5     0.00000     0.00000     0.00000  0.0
    331    329    330    337   5     0.00000     0.00000     0.00000  0.0
    331    329    330    338   5     0.00000     0.00000     0.00000  0.0
    331    329    330    339   5     0.00000     0.00000     0.00000  0.0
    328    329    331    332   5     0.00000    30.33400     0.00000  0.0
    328    329    331    340   5     0.00000    30.33400     0.00000  0.0
    330    329    331    332   5     0.00000    30.33400     0.00000  0.0
    330    329    331    340   5     0.00000    30.33400     0.00000  0.0
    329    331    332    326   5     0.00000    30.33400     0.00000  0.0
    329    331    332    341   5     0.00000    30.33400     0.00000  0.0
    340    331    332    326   5     0.00000    30.33400     0.00000  0.0
    340    331    332    341   5     0.00000    30.33400     0.00000  0.0
    325    333    344    345   5    -0.30962     3.11290    -3.95806  0.0
    325    333    344    352   5     4.74884    -0.63178     1.67360  0.0
    325    333    344    353   5     0.00000     0.00000     1.25520  0.0
    342    333    344    345   5     0.00000     0.00000     3.61498  0.0
    342    333    344    352   5     0.00000     0.00000     1.25520  0.0
    342    333    344    353   5     0.00000     0.00000     1.25520  0.0
    343    333    344    345   5     0.00000     0.00000     3.61498  0.0
    343    333    344    352   5     0.00000     0.00000     1.25520  0.0
    343    333    344    353   5     0.00000     0.00000     1.25520  0.0
    333    344    345    346   5     0.00000     0.34727     0.00000  0.0
    333    344    345    351   5     0.00000     0.34727     0.00000  0.0
    352    344    345    346   5     0.00000     0.34727     0.00000  0.0
    352    344    345    351   5     0.00000     0.34727     0.00000  0.0
    353    344    345    346   5     0.00000     0.00000     0.00000  0.0
    353    344    345    351   5     0.00000     0.00000     0.00000  0.0
    333    344    352    361   5     0.00000     0.00000     1.25520  0.0
    333    344    352    362   5     0.00000     0.00000     1.25520  0.0
    333    344    352    363   5     4.74884    -0.63178     1.67360  0.0
    345    344    352    361   5     0.00000     0.00000     3.61498  0.0
    345    344    352    362   5     0.00000     0.00000     3.61498  0.0
    345    344    352    363   5    -0.30962     3.11290    -3.95806  0.0
    353    344    352    361   5     0.00000     0.00000     1.25520  0.0
    353    344    352    362   5     0.00000     0.00000     1.25520  0.0
    353    344    352    363   5     0.00000     0.00000     1.25520  0.0
    344    345    346    347   5     0.00000    30.33400     0.00000  0.0
    344    345    346    354   5     0.00000    30.33400     0.00000  0.0
    351    345    346    347   5     0.00000    30.33400     0.00000  0.0
    351    345    346    354   5     0.00000    30.33400     0.00000  0.0
    344    345    351    350   5     0.00000    30.33400     0.00000  0.0
    344    345    351    360   5     0.00000    30.33400     0.00000  0.0
    346    345    351    350   5     0.00000    30.33400     0.00000  0.0
    346    345    351    360   5     0.00000    30.33400     0.00000  0.0
    345    346    347    348   5     0.00000    30.33400     0.00000  0.0
    345    346    347    355   5     0.00000    30.33400     0.00000  0.0
    354    346    347    348   5     0.00000    30.33400     0.00000  0.0
    354    346    347    355   5     0.00000    30.33400     0.00000  0.0
    346    347    348    349   5     0.00000    30.33400     0.00000  0.0
    346    347    348    350   5     0.00000    30.33400     0.00000  0.0
    355    347    348    349   5     0.00000    30.33400     0.00000  0.0
    355    347    348    350   5     0.00000    30.33400     0.00000  0.0
    347    348    349    356   5     0.00000     0.00000     0.00000  0.0
    347    348    349    357   5     0.00000     0.00000     0.00000  0.0
    347    348    349    358   5     0.00000     0.00000     0.00000  0.0
    350    348    349    356   5     0.00000     0.00000     0.00000  0.0
    350    348    349    357   5     0.00000     0.00000     0.00000  0.0
    350    348    349    358   5     0.00000     0.00000     0.00000  0.0
    347    348    350    351   5     0.00000    30.33400     0.00000  0.0
    347    348    350    359   5     0.00000    30.33400     0.00000  0.0
    349    348    350    351   5     0.00000    30.33400     0.00000  0.0
    349    348    350    359   5     0.00000    30.33400     0.00000  0.0
    348    350    351    345   5     0.00000    30.33400     0.00000  0.0
    348    350    351    360   5     0.00000    30.33400     0.00000  0.0
    359    350    351    345   5     0.00000    30.33400     0.00000  0.0
    359    350    351    360   5     0.00000    30.33400     0.00000  0.0
    344    352    363    364   5    -0.30962     3.11290    -3.95806  0.0
    344    352    363    371   5     4.74884    -0.63178     1.67360  0.0
    344    352    363    372   5     0.00000     0.00000     1.25520  0.0
    361    352    363    364   5     0.00000     0.00000     3.61498  0.0
    361    352    363    371   5     0.00000     0.00000     1.25520  0.0
    361    352    363    372   5     0.00000     0.00000     1.25520  0.0
    362    352    363    364   5     0.00000     0.00000     3.61498  0.0
    362    352    363    371   5     0.00000     0.00000     1.25520  0.0
    362    352    363    372   5     0.00000     0.00000     1.25520  0.0
    352    363    364    365   5     0.00000     0.34727     0.00000  0.0
    352    363    364    370   5     0.00000     0.34727     0.00000  0.0
    371    363    364    365   5     0.00000     0.34727     0.00000  0.0
    371    363    364    370   5     0.00000     0.34727     0.00000  0.0
    372    363    364    365   5     0.00000     0.00000     0.00000  0.0
    372    363    364    370   5     0.00000     0.00000     0.00000  0.0
    352    363    371    380   5     0.00000     0.00000     1.25520  0.0
    352    363    371    381   5     0.00000     0.00000     1.25520  0.0
    352    363    371    382   5     0.00000     0.00000     1.25520  0.0
    364    363    371    380   5     0.00000     0.00000     3.61498  0.0
    364    363    371    381   5     0.00000     0.00000     3.61498  0.0
    364    363    371    382   5     0.00000     0.00000     3.61498  0.0
    372    363    371    380   5     0.00000     0.00000     1.25520  0.0
    372    363    371    381   5     0.00000     0.00000     1.25520  0.0
    372    363    371    382   5     0.00000     0.00000     1.25520  0.0
    363    364    365    366   5     0.00000    30.33400     0.00000  0.0
    363    364    365    373   5     0.00000    30.33400     0.00000  0.0
    370    364    365    366   5     0.00000    30.33400     0.00000  0.0
    370    364    365    373   5     0.00000    30.33400     0.00000  0.0
    363    364    370    369   5     0.00000    30.33400     0.00000  0.0
    363    364    370    379   5     0.00000    30.33400     0.00000  0.0
    365    364    370    369   5     0.00000    30.33400     0.00000  0.0
    365    364    370    379   5     0.00000    30.33400     0.00000  0.0
    364    365    366    367   5     0.00000    30.33400     0.00000  0.0
    364    365    366    374   5     0.00000    30.33400     0.00000  0.0
    373    365    366    367   5     0.00000    30.33400     0.00000  0.0
    373    365    366    374   5     0.00000    30.33400     0.00000  0.0
    365    366    367    368   5     0.00000    30.33400     0.00000  0.0
    365    366    367    369   5     0.00000    30.33400     0.00000  0.0
    374    366    367    368   5     0.00000    30.33400     0.00000  0.0
    374    366    367    369   5     0.00000    30.33400     0.00000  0.0
    366    367    368    375   5     0.00000     0.00000     0.00000  0.0
    366    367    368    376   5     0.00000     0.00000     0.00000  0.0
    366    367    368    377   5     0.00000     0.00000     0.00000  0.0
    369    367    368    375   5     0.00000     0.00000     0.00000  0.0
    369    367    368    376   5     0.00000     0.00000     0.00000  0.0
    369    367    368    377   5     0.00000     0.00000     0.00000  0.0
    366    367    369    370   5     0.00000    30.33400     0.00000  0.0
    366    367    369    378   5     0.00000    30.33400     0.00000  0.0
    368    367    369    370   5     0.00000    30.33400     0.00000  0.0
    368    367    369    378   5     0.00000    30.33400     0.00000  0.0
    367    369    370    364   5     0.00000    30.33400     0.00000  0.0
    367    369    370    379   5     0.00000    30.33400     0.00000  0.0
    378    369    370    364   5     0.00000    30.33400     0.00000  0.0
    378    369    370    379   5     0.00000    30.33400     0.00000  0.0

[ dihedrals ]
; Improper dihedrals
; h   i   j   k   funct
      1      3      2      8   5     0.00000    33.47200     0.00000  0.0
      2      4      3     11   5     0.00000     9.20480     0.00000  0.0
      3      5      4     12   5     0.00000     9.20480     0.00000  0.0
      4      6      5      7   5     0.00000    33.47200     0.00000  0.0
      5      8      7     16   5     0.00000     9.20480     0.00000  0.0
      2      7      8     17   5     0.00000     9.20480     0.00000  0.0
     21     23     22     28   5     0.00000    33.47200     0.00000  0.0
     22     24     23     31   5     0.00000     9.20480     0.00000  0.0
     23     25     24     32   5     0.00000     9.20480     0.00000  0.0
     24     26     25     27   5     0.00000    33.47200     0.00000  0.0
     25     28     27     36   5     0.00000     9.20480     0.00000  0.0
     22     27     28     37   5     0.00000     9.20480     0.00000  0.0
     40     42     41     47   5     0.00000    33.47200     0.00000  0.0
     41     43     42     50   5     0.00000     9.20480     0.00000  0.0
     42     44     43     51   5     0.00000     9.20480     0.00000  0.0
     43     45     44     46   5     0.00000    33.47200     0.00000  0.0
     44     47     46     55   5     0.00000     9.20480     0.00000  0.0
     41     46     47     56   5     0.00000     9.20480     0.00000  0.0
     59     61     60     66   5     0.00000    33.47200     0.00000  0.0
     60     62     61     69   5     0.00000     9.20480     0.00000  0.0
     61     63     62     70   5     0.00000     9.20480     0.00000  0.0
     62     64     63     65   5     0.00000    33.47200     0.00000  0.0
     63     66     65     74   5     0.00000     9.20480     0.00000  0.0
     60     65     66     75   5     0.00000     9.20480     0.00000  0.0
     78     80     79     85   5     0.00000    33.47200     0.00000  0.0
     79     81     80     88   5     0.00000     9.20480     0.00000  0.0
     80     82     81     89   5     0.00000     9.20480     0.00000  0.0
     81     83     82     84   5     0.00000    33.47200     0.00000  0.0
     82     85     84     93   5     0.00000     9.20480     0.00000  0.0
     79     84     85     94   5     0.00000     9.20480     0.00000  0.0
     97     99     98    104   5     0.00000    33.47200     0.00000  0.0
     98    100     99    107   5     0.00000     9.20480     0.00000  0.0
     99    101    100    108   5     0.00000     9.20480     0.00000  0.0
    100    102    101    103   5     0.00000    33.47200     0.00000  0.0
    101    104    103    112   5     0.00000     9.20480     0.00000  0.0
     98    103    104    113   5     0.00000     9.20480     0.00000  0.0
    116    118    117    123   5     0.00000    33.47200     0.00000  0.0
    117    119    118    126   5     0.00000     9.20480     0.00000  0.0
    118    120    119    127   5     0.00000     9.20480     0.00000  0.0
    119    121    120    122   5     0.00000    33.47200     0.00000  0.0
    120    123    122    131   5     0.00000     9.20480     0.00000  0.0
    117    122    123    132   5     0.00000     9.20480     0.00000  0.0
    135    137    136    142   5     0.00000    33.47200     0.00000  0.0
    136    138    137    145   5     0.00000     9.20480     0.00000  0.0
    137    139    138    146   5     0.00000     9.20480     0.00000  0.0
    138    140    139    141   5     0.00000    33.47200     0.00000  0.0
    139    142    141    150   5     0.00000     9.20480     0.00000  0.0
    136    141    142    151   5     0.00000     9.20480     0.00000  0.0
    154    156    155    161   5     0.00000    33.47200     0.00000  0.0
    155    157    156    164   5     0.00000     9.20480     0.00000  0.0
    156    158    157    165   5     0.00000     9.20480     0.00000  0.0
    157    159    158    160   5     0.00000    33.47200     0.00000  0.0
    158    161    160    169   5     0.00000     9.20480     0.00000  0.0
    155    160    161    170   5     0.00000     9.20480     0.00000  0.0
    173    175    174    180   5     0.00000    33.47200     0.00000  0.0
    174    176    175    183   5     0.00000     9.20480     0.00000  0.0
    175    177    176    184   5     0.00000     9.20480     0.00000  0.0
    176    178    177    179   5     0.00000    33.47200     0.00000  0.0
    177    180    179    188   5     0.00000     9.20480     0.00000  0.0
    174    179    180    189   5     0.00000     9.20480     0.00000  0.0
    192    194    193    199   5     0.00000    33.47200     0.00000  0.0
    193    195    194    202   5     0.00000     9.20480     0.00000  0.0
    194    196    195    203   5     0.00000     9.20480     0.00000  0.0
    195    197    196    198   5     0.00000    33.47200     0.00000  0.0
    196    199    198    207   5     0.00000     9.20480     0.00000  0.0
    193    198    199    208   5     0.00000     9.20480     0.00000  0.0
    211    213    212    218   5     0.00000    33.47200     0.00000  0.0
    212    214    213    221   5     0.00000     9.20480     0.00000  0.0
    213    215    214    222   5     0.00000     9.20480     0.00000  0.0
    214    216    215    217   5     0.00000    33.47200     0.00000  0.0
    215    218    217    226   5     0.00000     9.20480     0.00000  0.0
    212    217    218    227   5     0.00000     9.20480     0.00000  0.0
    230    232    231    237   5     0.00000    33.47200     0.00000  0.0
    231    233    232    240   5     0.00000     9.20480     0.00000  0.0
    232    234    233    241   5     0.00000     9.20480     0.00000  0.0
    233    235    234    236   5     0.00000    33.47200     0.00000  0.0
    234    237    236    245   5     0.00000     9.20480     0.00000  0.0
    231    236    237    246   5     0.00000     9.20480     0.00000  0.0
    249    251    250    256   5     0.00000    33.47200     0.00000  0.0
    250    252    251    259   5     0.00000     9.20480     0.00000  0.0
    251    253    252    260   5     0.00000     9.20480     0.00000  0.0
    252    254    253    255   5     0.00000    33.47200     0.00000  0.0
    253    256    255    264   5     0.00000     9.20480     0.00000  0.0
    250    255    256    265   5     0.00000     9.20480     0.00000  0.0
    268    270    269    275   5     0.00000    33.47200     0.00000  0.0
    269    271    270    278   5     0.00000     9.20480     0.00000  0.0
    270    272    271    279   5     0.00000     9.20480     0.00000  0.0
    271    273    272    274   5     0.00000    33.47200     0.00000  0.0
    272    275    274    283   5     0.00000     9.20480     0.00000  0.0
    269    274    275    284   5     0.00000     9.20480     0.00000  0.0
    287    289    288    294   5     0.00000    33.47200     0.00000  0.0
    288    290    289    297   5     0.00000     9.20480     0.00000  0.0
    289    291    290    298   5     0.00000     9.20480     0.00000  0.0
    290    292    291    293   5     0.00000    33.47200     0.00000  0.0
    291    294    293    302   5     0.00000     9.20480     0.00000  0.0
    288    293    294    303   5     0.00000     9.20480     0.00000  0.0
    306    308    307    313   5     0.00000    33.47200     0.00000  0.0
    307    309    308    316   5     0.00000     9.20480     0.00000  0.0
    308    310    309    317   5     0.00000     9.20480     0.00000  0.0
    309    311    310    312   5     0.00000    33.47200     0.00000  0.0
    310    313    312    321   5     0.00000     9.20480     0.00000  0.0
    307    312    313    322   5     0.00000     9.20480     0.00000  0.0
    325    327    326    332   5     0.00000    33.47200     0.00000  0.0
    326    328    327    335   5     0.00000     9.20480     0.00000  0.0
    327    329    328    336   5     0.00000     9.20480     0.00000  0.0
    328    330    329    331   5     0.00000    33.47200     0.00000  0.0
    329    332    331    340   5     0.00000     9.20480     0.00000  0.0
    326    331    332    341   5     0.00000     9.20480     0.00000  0.0
    344    346    345    351   5     0.00000    33.47200     0.00000  0.0
    345    347    346    354   5     0.00000     9.20480     0.00000  0.0
    346    348    347    355   5     0.00000     9.20480     0.00000  0.0
    347    349    348    350   5     0.00000    33.47200     0.00000  0.0
    348    351    350    359   5     0.00000     9.20480     0.00000  0.0
    345    350    351    360   5     0.00000     9.20480     0.00000  0.0
    363    365    364    370   5     0.00000    33.47200     0.00000  0.0
    364    366    365    373   5     0.00000     9.20480     0.00000  0.0
    365    367    366    374   5     0.00000     9.20480     0.00000  0.0
    366    368    367    369   5     0.00000    33.47200     0.00000  0.0
    367    370    369    378   5     0.00000     9.20480     0.00000  0.0
    364    369    370    379   5     0.00000     9.20480     0.00000  0.0
