;
; Gromacs include topology (itp) file.
; For Molecular Group XYZ
; Force field scheme: opls2005
; Produced from DL_FIELD v4.11
;


[ moleculetype ]
; name    nrexcl
XYZ    3

[ atoms ]
; nr   type   resnr   residu    atom    cgnr    charge    mass
    1        CT    1  MOL      C1     1  -0.1800000   12.0115
    2        CT    1  MOL      C2     2   0.2118000   12.0115
    3        CA    1  MOL      C3     3  -0.0418000   12.0115
    4        CA    1  MOL      C4     4  -0.1150000   12.0115
    5        CA    1  MOL      C5     5  -0.1150000   12.0115
    6        CA    1  MOL      C6     6  -0.1150000   12.0115
    7        CA    1  MOL      C7     7  -0.1150000   12.0115
    8        CA    1  MOL      C8     8  -0.1150000   12.0115
    9        OS    1  MOL      O9     9  -0.4000000   15.9994
   10        HC    1  MOL     H10    10   0.0600000    1.0080
   11        HC    1  MOL     H11    11   0.0600000    1.0080
   12        HC    1  MOL     H12    12   0.0300000    1.0080
   13        HA    1  MOL     H13    13   0.1150000    1.0080
   14        HA    1  MOL     H14    14   0.1150000    1.0080
   15        HA    1  MOL     H15    15   0.1150000    1.0080
   16        HA    1  MOL     H16    16   0.1150000    1.0080
   17        HA    1  MOL     H17    17   0.1150000    1.0080
   18        HC    1  MOL     H18    18   0.0600000    1.0080
   19        CT    1  MOL     C19    19   0.1400000   12.0115
   20        CT    1  MOL     C20    20   0.2118000   12.0115
   21        CA    1  MOL     C21    21  -0.0418000   12.0115
   22        CA    1  MOL     C22    22  -0.1150000   12.0115
   23        CA    1  MOL     C23    23  -0.1150000   12.0115
   24        CA    1  MOL     C24    24  -0.1150000   12.0115
   25        CA    1  MOL     C25    25  -0.1150000   12.0115
   26        CA    1  MOL     C26    26  -0.1150000   12.0115
   27        OS    1  MOL     O27    27  -0.4000000   15.9994
   28        HC    1  MOL     H28    28   0.0300000    1.0080
   29        HC    1  MOL     H29    29   0.0300000    1.0080
   30        HC    1  MOL     H30    30   0.0300000    1.0080
   31        HA    1  MOL     H31    31   0.1150000    1.0080
   32        HA    1  MOL     H32    32   0.1150000    1.0080
   33        HA    1  MOL     H33    33   0.1150000    1.0080
   34        HA    1  MOL     H34    34   0.1150000    1.0080
   35        HA    1  MOL     H35    35   0.1150000    1.0080
   36        CT    1  MOL     C36    36   0.1400000   12.0115
   37        CT    1  MOL     C37    37   0.2118000   12.0115
   38        CA    1  MOL     C38    38  -0.0418000   12.0115
   39        CA    1  MOL     C39    39  -0.1150000   12.0115
   40        CA    1  MOL     C40    40  -0.1150000   12.0115
   41        CA    1  MOL     C41    41  -0.1150000   12.0115
   42        CA    1  MOL     C42    42  -0.1150000   12.0115
   43        CA    1  MOL     C43    43  -0.1150000   12.0115
   44        OS    1  MOL     O44    44  -0.4000000   15.9994
   45        HC    1  MOL     H45    45   0.0300000    1.0080
   46        HC    1  MOL     H46    46   0.0300000    1.0080
   47        HC    1  MOL     H47    47   0.0300000    1.0080
   48        HA    1  MOL     H48    48   0.1150000    1.0080
   49        HA    1  MOL     H49    49   0.1150000    1.0080
   50        HA    1  MOL     H50    50   0.1150000    1.0080
   51        HA    1  MOL     H51    51   0.1150000    1.0080
   52        HA    1  MOL     H52    52   0.1150000    1.0080
   53        CT    1  MOL     C53    53   0.1400000   12.0115
   54        CT    1  MOL     C54    54   0.2118000   12.0115
   55        CA    1  MOL     C55    55  -0.0418000   12.0115
   56        CA    1  MOL     C56    56  -0.1150000   12.0115
   57        CA    1  MOL     C57    57  -0.1150000   12.0115
   58        CA    1  MOL     C58    58  -0.1150000   12.0115
   59        CA    1  MOL     C59    59  -0.1150000   12.0115
   60        CA    1  MOL     C60    60  -0.1150000   12.0115
   61        OS    1  MOL     O61    61  -0.4000000   15.9994
   62        HC    1  MOL     H62    62   0.0300000    1.0080
   63        HC    1  MOL     H63    63   0.0300000    1.0080
   64        HC    1  MOL     H64    64   0.0300000    1.0080
   65        HA    1  MOL     H65    65   0.1150000    1.0080
   66        HA    1  MOL     H66    66   0.1150000    1.0080
   67        HA    1  MOL     H67    67   0.1150000    1.0080
   68        HA    1  MOL     H68    68   0.1150000    1.0080
   69        HA    1  MOL     H69    69   0.1150000    1.0080
   70        CT    1  MOL     C70    70   0.1400000   12.0115
   71        CT    1  MOL     C71    71   0.2118000   12.0115
   72        CA    1  MOL     C72    72  -0.0418000   12.0115
   73        CA    1  MOL     C73    73  -0.1150000   12.0115
   74        CA    1  MOL     C74    74  -0.1150000   12.0115
   75        CA    1  MOL     C75    75  -0.1150000   12.0115
   76        CA    1  MOL     C76    76  -0.1150000   12.0115
   77        CA    1  MOL     C77    77  -0.1150000   12.0115
   78        OS    1  MOL     O78    78  -0.4000000   15.9994
   79        HC    1  MOL     H79    79   0.0300000    1.0080
   80        HC    1  MOL     H80    80   0.0300000    1.0080
   81        HC    1  MOL     H81    81   0.0300000    1.0080
   82        HA    1  MOL     H82    82   0.1150000    1.0080
   83        HA    1  MOL     H83    83   0.1150000    1.0080
   84        HA    1  MOL     H84    84   0.1150000    1.0080
   85        HA    1  MOL     H85    85   0.1150000    1.0080
   86        HA    1  MOL     H86    86   0.1150000    1.0080
   87        CT    1  MOL     C87    87   0.1400000   12.0115
   88        CT    1  MOL     C88    88   0.2118000   12.0115
   89        CA    1  MOL     C89    89  -0.0418000   12.0115
   90        CA    1  MOL     C90    90  -0.1150000   12.0115
   91        CA    1  MOL     C91    91  -0.1150000   12.0115
   92        CA    1  MOL     C92    92  -0.1150000   12.0115
   93        CA    1  MOL     C93    93  -0.1150000   12.0115
   94        CA    1  MOL     C94    94  -0.1150000   12.0115
   95        OS    1  MOL     O95    95  -0.4000000   15.9994
   96        HC    1  MOL     H96    96   0.0300000    1.0080
   97        HC    1  MOL     H97    97   0.0300000    1.0080
   98        HC    1  MOL     H98    98   0.0300000    1.0080
   99        HA    1  MOL     H99    99   0.1150000    1.0080
  100        HA    1  MOL    H100   100   0.1150000    1.0080
  101        HA    1  MOL    H101   101   0.1150000    1.0080
  102        HA    1  MOL    H102   102   0.1150000    1.0080
  103        HA    1  MOL    H103   103   0.1150000    1.0080
  104        CT    1  MOL    C104   104   0.1400000   12.0115
  105        CT    1  MOL    C105   105   0.2118000   12.0115
  106        CA    1  MOL    C106   106  -0.0418000   12.0115
  107        CA    1  MOL    C107   107  -0.1150000   12.0115
  108        CA    1  MOL    C108   108  -0.1150000   12.0115
  109        CA    1  MOL    C109   109  -0.1150000   12.0115
  110        CA    1  MOL    C110   110  -0.1150000   12.0115
  111        CA    1  MOL    C111   111  -0.1150000   12.0115
  112        OS    1  MOL    O112   112  -0.4000000   15.9994
  113        HC    1  MOL    H113   113   0.0300000    1.0080
  114        HC    1  MOL    H114   114   0.0300000    1.0080
  115        HC    1  MOL    H115   115   0.0300000    1.0080
  116        HA    1  MOL    H116   116   0.1150000    1.0080
  117        HA    1  MOL    H117   117   0.1150000    1.0080
  118        HA    1  MOL    H118   118   0.1150000    1.0080
  119        HA    1  MOL    H119   119   0.1150000    1.0080
  120        HA    1  MOL    H120   120   0.1150000    1.0080
  121        CT    1  MOL    C121   121   0.1400000   12.0115
  122        CT    1  MOL    C122   122   0.2118000   12.0115
  123        CA    1  MOL    C123   123  -0.0418000   12.0115
  124        CA    1  MOL    C124   124  -0.1150000   12.0115
  125        CA    1  MOL    C125   125  -0.1150000   12.0115
  126        CA    1  MOL    C126   126  -0.1150000   12.0115
  127        CA    1  MOL    C127   127  -0.1150000   12.0115
  128        CA    1  MOL    C128   128  -0.1150000   12.0115
  129        OS    1  MOL    O129   129  -0.4000000   15.9994
  130        HC    1  MOL    H130   130   0.0300000    1.0080
  131        HC    1  MOL    H131   131   0.0300000    1.0080
  132        HC    1  MOL    H132   132   0.0300000    1.0080
  133        HA    1  MOL    H133   133   0.1150000    1.0080
  134        HA    1  MOL    H134   134   0.1150000    1.0080
  135        HA    1  MOL    H135   135   0.1150000    1.0080
  136        HA    1  MOL    H136   136   0.1150000    1.0080
  137        HA    1  MOL    H137   137   0.1150000    1.0080
  138        CT    1  MOL    C138   138   0.1400000   12.0115
  139        CT    1  MOL    C139   139   0.2118000   12.0115
  140        CA    1  MOL    C140   140  -0.0418000   12.0115
  141        CA    1  MOL    C141   141  -0.1150000   12.0115
  142        CA    1  MOL    C142   142  -0.1150000   12.0115
  143        CA    1  MOL    C143   143  -0.1150000   12.0115
  144        CA    1  MOL    C144   144  -0.1150000   12.0115
  145        CA    1  MOL    C145   145  -0.1150000   12.0115
  146        OS    1  MOL    O146   146  -0.4000000   15.9994
  147        HC    1  MOL    H147   147   0.0300000    1.0080
  148        HC    1  MOL    H148   148   0.0300000    1.0080
  149        HC    1  MOL    H149   149   0.0300000    1.0080
  150        HA    1  MOL    H150   150   0.1150000    1.0080
  151        HA    1  MOL    H151   151   0.1150000    1.0080
  152        HA    1  MOL    H152   152   0.1150000    1.0080
  153        HA    1  MOL    H153   153   0.1150000    1.0080
  154        HA    1  MOL    H154   154   0.1150000    1.0080
  155        CT    1  MOL    C155   155   0.1400000   12.0115
  156        CT    1  MOL    C156   156   0.2118000   12.0115
  157        CA    1  MOL    C157   157  -0.0418000   12.0115
  158        CA    1  MOL    C158   158  -0.1150000   12.0115
  159        CA    1  MOL    C159   159  -0.1150000   12.0115
  160        CA    1  MOL    C160   160  -0.1150000   12.0115
  161        CA    1  MOL    C161   161  -0.1150000   12.0115
  162        CA    1  MOL    C162   162  -0.1150000   12.0115
  163        OS    1  MOL    O163   163  -0.4000000   15.9994
  164        HC    1  MOL    H164   164   0.0300000    1.0080
  165        HC    1  MOL    H165   165   0.0300000    1.0080
  166        HC    1  MOL    H166   166   0.0300000    1.0080
  167        HA    1  MOL    H167   167   0.1150000    1.0080
  168        HA    1  MOL    H168   168   0.1150000    1.0080
  169        HA    1  MOL    H169   169   0.1150000    1.0080
  170        HA    1  MOL    H170   170   0.1150000    1.0080
  171        HA    1  MOL    H171   171   0.1150000    1.0080
  172        CT    1  MOL    C172   172   0.1400000   12.0115
  173        CT    1  MOL    C173   173   0.2118000   12.0115
  174        CA    1  MOL    C174   174  -0.0418000   12.0115
  175        CA    1  MOL    C175   175  -0.1150000   12.0115
  176        CA    1  MOL    C176   176  -0.1150000   12.0115
  177        CA    1  MOL    C177   177  -0.1150000   12.0115
  178        CA    1  MOL    C178   178  -0.1150000   12.0115
  179        CA    1  MOL    C179   179  -0.1150000   12.0115
  180        OS    1  MOL    O180   180  -0.4000000   15.9994
  181        HC    1  MOL    H181   181   0.0300000    1.0080
  182        HC    1  MOL    H182   182   0.0300000    1.0080
  183        HC    1  MOL    H183   183   0.0300000    1.0080
  184        HA    1  MOL    H184   184   0.1150000    1.0080
  185        HA    1  MOL    H185   185   0.1150000    1.0080
  186        HA    1  MOL    H186   186   0.1150000    1.0080
  187        HA    1  MOL    H187   187   0.1150000    1.0080
  188        HA    1  MOL    H188   188   0.1150000    1.0080
  189        CT    1  MOL    C189   189   0.1400000   12.0115
  190        CT    1  MOL    C190   190   0.2118000   12.0115
  191        CA    1  MOL    C191   191  -0.0418000   12.0115
  192        CA    1  MOL    C192   192  -0.1150000   12.0115
  193        CA    1  MOL    C193   193  -0.1150000   12.0115
  194        CA    1  MOL    C194   194  -0.1150000   12.0115
  195        CA    1  MOL    C195   195  -0.1150000   12.0115
  196        CA    1  MOL    C196   196  -0.1150000   12.0115
  197        OS    1  MOL    O197   197  -0.4000000   15.9994
  198        HC    1  MOL    H198   198   0.0300000    1.0080
  199        HC    1  MOL    H199   199   0.0300000    1.0080
  200        HC    1  MOL    H200   200   0.0300000    1.0080
  201        HA    1  MOL    H201   201   0.1150000    1.0080
  202        HA    1  MOL    H202   202   0.1150000    1.0080
  203        HA    1  MOL    H203   203   0.1150000    1.0080
  204        HA    1  MOL    H204   204   0.1150000    1.0080
  205        HA    1  MOL    H205   205   0.1150000    1.0080
  206        CT    1  MOL    C206   206   0.1400000   12.0115
  207        CT    1  MOL    C207   207   0.2118000   12.0115
  208        CA    1  MOL    C208   208  -0.0418000   12.0115
  209        CA    1  MOL    C209   209  -0.1150000   12.0115
  210        CA    1  MOL    C210   210  -0.1150000   12.0115
  211        CA    1  MOL    C211   211  -0.1150000   12.0115
  212        CA    1  MOL    C212   212  -0.1150000   12.0115
  213        CA    1  MOL    C213   213  -0.1150000   12.0115
  214        OS    1  MOL    O214   214  -0.4000000   15.9994
  215        HC    1  MOL    H215   215   0.0300000    1.0080
  216        HC    1  MOL    H216   216   0.0300000    1.0080
  217        HC    1  MOL    H217   217   0.0300000    1.0080
  218        HA    1  MOL    H218   218   0.1150000    1.0080
  219        HA    1  MOL    H219   219   0.1150000    1.0080
  220        HA    1  MOL    H220   220   0.1150000    1.0080
  221        HA    1  MOL    H221   221   0.1150000    1.0080
  222        HA    1  MOL    H222   222   0.1150000    1.0080
  223        CT    1  MOL    C223   223   0.1400000   12.0115
  224        CT    1  MOL    C224   224   0.2118000   12.0115
  225        CA    1  MOL    C225   225  -0.0418000   12.0115
  226        CA    1  MOL    C226   226  -0.1150000   12.0115
  227        CA    1  MOL    C227   227  -0.1150000   12.0115
  228        CA    1  MOL    C228   228  -0.1150000   12.0115
  229        CA    1  MOL    C229   229  -0.1150000   12.0115
  230        CA    1  MOL    C230   230  -0.1150000   12.0115
  231        OS    1  MOL    O231   231  -0.4000000   15.9994
  232        HC    1  MOL    H232   232   0.0300000    1.0080
  233        HC    1  MOL    H233   233   0.0300000    1.0080
  234        HC    1  MOL    H234   234   0.0300000    1.0080
  235        HA    1  MOL    H235   235   0.1150000    1.0080
  236        HA    1  MOL    H236   236   0.1150000    1.0080
  237        HA    1  MOL    H237   237   0.1150000    1.0080
  238        HA    1  MOL    H238   238   0.1150000    1.0080
  239        HA    1  MOL    H239   239   0.1150000    1.0080
  240        CT    1  MOL    C240   240   0.1400000   12.0115
  241        CT    1  MOL    C241   241   0.2118000   12.0115
  242        CA    1  MOL    C242   242  -0.0418000   12.0115
  243        CA    1  MOL    C243   243  -0.1150000   12.0115
  244        CA    1  MOL    C244   244  -0.1150000   12.0115
  245        CA    1  MOL    C245   245  -0.1150000   12.0115
  246        CA    1  MOL    C246   246  -0.1150000   12.0115
  247        CA    1  MOL    C247   247  -0.1150000   12.0115
  248        OS    1  MOL    O248   248  -0.4000000   15.9994
  249        HC    1  MOL    H249   249   0.0300000    1.0080
  250        HC    1  MOL    H250   250   0.0300000    1.0080
  251        HC    1  MOL    H251   251   0.0300000    1.0080
  252        HA    1  MOL    H252   252   0.1150000    1.0080
  253        HA    1  MOL    H253   253   0.1150000    1.0080
  254        HA    1  MOL    H254   254   0.1150000    1.0080
  255        HA    1  MOL    H255   255   0.1150000    1.0080
  256        HA    1  MOL    H256   256   0.1150000    1.0080
  257        CT    1  MOL    C257   257   0.1400000   12.0115
  258        CT    1  MOL    C258   258   0.2118000   12.0115
  259        CA    1  MOL    C259   259  -0.0418000   12.0115
  260        CA    1  MOL    C260   260  -0.1150000   12.0115
  261        CA    1  MOL    C261   261  -0.1150000   12.0115
  262        CA    1  MOL    C262   262  -0.1150000   12.0115
  263        CA    1  MOL    C263   263  -0.1150000   12.0115
  264        CA    1  MOL    C264   264  -0.1150000   12.0115
  265        OS    1  MOL    O265   265  -0.4000000   15.9994
  266        HC    1  MOL    H266   266   0.0300000    1.0080
  267        HC    1  MOL    H267   267   0.0300000    1.0080
  268        HC    1  MOL    H268   268   0.0300000    1.0080
  269        HA    1  MOL    H269   269   0.1150000    1.0080
  270        HA    1  MOL    H270   270   0.1150000    1.0080
  271        HA    1  MOL    H271   271   0.1150000    1.0080
  272        HA    1  MOL    H272   272   0.1150000    1.0080
  273        HA    1  MOL    H273   273   0.1150000    1.0080
  274        CT    1  MOL    C274   274   0.1400000   12.0115
  275        CT    1  MOL    C275   275   0.2118000   12.0115
  276        CA    1  MOL    C276   276  -0.0418000   12.0115
  277        CA    1  MOL    C277   277  -0.1150000   12.0115
  278        CA    1  MOL    C278   278  -0.1150000   12.0115
  279        CA    1  MOL    C279   279  -0.1150000   12.0115
  280        CA    1  MOL    C280   280  -0.1150000   12.0115
  281        CA    1  MOL    C281   281  -0.1150000   12.0115
  282        OS    1  MOL    O282   282  -0.4000000   15.9994
  283        HC    1  MOL    H283   283   0.0300000    1.0080
  284        HC    1  MOL    H284   284   0.0300000    1.0080
  285        HC    1  MOL    H285   285   0.0300000    1.0080
  286        HA    1  MOL    H286   286   0.1150000    1.0080
  287        HA    1  MOL    H287   287   0.1150000    1.0080
  288        HA    1  MOL    H288   288   0.1150000    1.0080
  289        HA    1  MOL    H289   289   0.1150000    1.0080
  290        HA    1  MOL    H290   290   0.1150000    1.0080
  291        CT    1  MOL    C291   291   0.1400000   12.0115
  292        CT    1  MOL    C292   292   0.2118000   12.0115
  293        CA    1  MOL    C293   293  -0.0418000   12.0115
  294        CA    1  MOL    C294   294  -0.1150000   12.0115
  295        CA    1  MOL    C295   295  -0.1150000   12.0115
  296        CA    1  MOL    C296   296  -0.1150000   12.0115
  297        CA    1  MOL    C297   297  -0.1150000   12.0115
  298        CA    1  MOL    C298   298  -0.1150000   12.0115
  299        OS    1  MOL    O299   299  -0.4000000   15.9994
  300        HC    1  MOL    H300   300   0.0300000    1.0080
  301        HC    1  MOL    H301   301   0.0300000    1.0080
  302        HC    1  MOL    H302   302   0.0300000    1.0080
  303        HA    1  MOL    H303   303   0.1150000    1.0080
  304        HA    1  MOL    H304   304   0.1150000    1.0080
  305        HA    1  MOL    H305   305   0.1150000    1.0080
  306        HA    1  MOL    H306   306   0.1150000    1.0080
  307        HA    1  MOL    H307   307   0.1150000    1.0080
  308        CT    1  MOL    C308   308   0.1400000   12.0115
  309        CT    1  MOL    C309   309   0.2118000   12.0115
  310        CA    1  MOL    C310   310  -0.0418000   12.0115
  311        CA    1  MOL    C311   311  -0.1150000   12.0115
  312        CA    1  MOL    C312   312  -0.1150000   12.0115
  313        CA    1  MOL    C313   313  -0.1150000   12.0115
  314        CA    1  MOL    C314   314  -0.1150000   12.0115
  315        CA    1  MOL    C315   315  -0.1150000   12.0115
  316        OS    1  MOL    O316   316  -0.4000000   15.9994
  317        HC    1  MOL    H317   317   0.0300000    1.0080
  318        HC    1  MOL    H318   318   0.0300000    1.0080
  319        HC    1  MOL    H319   319   0.0300000    1.0080
  320        HA    1  MOL    H320   320   0.1150000    1.0080
  321        HA    1  MOL    H321   321   0.1150000    1.0080
  322        HA    1  MOL    H322   322   0.1150000    1.0080
  323        HA    1  MOL    H323   323   0.1150000    1.0080
  324        HA    1  MOL    H324   324   0.1150000    1.0080
  325        CT    1  MOL    C325   325   0.1400000   12.0115
  326        CT    1  MOL    C326   326   0.3200000   12.0115
  327        CA    1  MOL    C327   327  -0.1150000   12.0115
  328        CA    1  MOL    C328   328  -0.1150000   12.0115
  329        CA    1  MOL    C329   329  -0.1150000   12.0115
  330        CA    1  MOL    C330   330  -0.1150000   12.0115
  331        CA    1  MOL    C331   331  -0.1150000   12.0115
  332        CA    1  MOL    C332   332  -0.1150000   12.0115
  333       OAL    1  MOL    O333   333  -0.6830000   15.9994
  334        HC    1  MOL    H334   334   0.0300000    1.0080
  335        HC    1  MOL    H335   335   0.0300000    1.0080
  336        HC    1  MOL    H336   336   0.0600000    1.0080
  337        HA    1  MOL    H337   337   0.1150000    1.0080
  338        HA    1  MOL    H338   338   0.1150000    1.0080
  339        HA    1  MOL    H339   339   0.1150000    1.0080
  340        HA    1  MOL    H340   340   0.1150000    1.0080
  341        HA    1  MOL    H341   341   0.1150000    1.0080
  342        HO    1  MOL    H342   342   0.4180000    1.0080

[ bonds ]
      1      2   1      0.1529 224262.4000
      1     10   1      0.1090 284512.0000
      1     11   1      0.1090 284512.0000
      1     18   1      0.1090 284512.0000
      2      3   1      0.1510 265265.6000
      2      9   1      0.1410 267776.0000
      2     12   1      0.1090 284512.0000
      3      4   1      0.1400 392459.2000
      3      8   1      0.1400 392459.2000
      4      5   1      0.1400 392459.2000
      4     13   1      0.1080 307105.6000
      5      6   1      0.1400 392459.2000
      5     14   1      0.1080 307105.6000
      6      7   1      0.1400 392459.2000
      6     15   1      0.1080 307105.6000
      7      8   1      0.1400 392459.2000
      7     16   1      0.1080 307105.6000
      8     17   1      0.1080 307105.6000
      9     19   1      0.1410 267776.0000
     19     20   1      0.1529 224262.4000
     19     28   1      0.1090 284512.0000
     19     29   1      0.1090 284512.0000
     20     21   1      0.1510 265265.6000
     20     27   1      0.1410 267776.0000
     20     30   1      0.1090 284512.0000
     21     22   1      0.1400 392459.2000
     21     26   1      0.1400 392459.2000
     22     23   1      0.1400 392459.2000
     22     31   1      0.1080 307105.6000
     23     24   1      0.1400 392459.2000
     23     32   1      0.1080 307105.6000
     24     25   1      0.1400 392459.2000
     24     33   1      0.1080 307105.6000
     25     26   1      0.1400 392459.2000
     25     34   1      0.1080 307105.6000
     26     35   1      0.1080 307105.6000
     27     36   1      0.1410 267776.0000
     36     37   1      0.1529 224262.4000
     36     45   1      0.1090 284512.0000
     36     46   1      0.1090 284512.0000
     37     38   1      0.1510 265265.6000
     37     44   1      0.1410 267776.0000
     37     47   1      0.1090 284512.0000
     38     39   1      0.1400 392459.2000
     38     43   1      0.1400 392459.2000
     39     40   1      0.1400 392459.2000
     39     48   1      0.1080 307105.6000
     40     41   1      0.1400 392459.2000
     40     49   1      0.1080 307105.6000
     41     42   1      0.1400 392459.2000
     41     50   1      0.1080 307105.6000
     42     43   1      0.1400 392459.2000
     42     51   1      0.1080 307105.6000
     43     52   1      0.1080 307105.6000
     44     53   1      0.1410 267776.0000
     53     54   1      0.1529 224262.4000
     53     62   1      0.1090 284512.0000
     53     63   1      0.1090 284512.0000
     54     55   1      0.1510 265265.6000
     54     61   1      0.1410 267776.0000
     54     64   1      0.1090 284512.0000
     55     56   1      0.1400 392459.2000
     55     60   1      0.1400 392459.2000
     56     57   1      0.1400 392459.2000
     56     65   1      0.1080 307105.6000
     57     58   1      0.1400 392459.2000
     57     66   1      0.1080 307105.6000
     58     59   1      0.1400 392459.2000
     58     67   1      0.1080 307105.6000
     59     60   1      0.1400 392459.2000
     59     68   1      0.1080 307105.6000
     60     69   1      0.1080 307105.6000
     61     70   1      0.1410 267776.0000
     70     71   1      0.1529 224262.4000
     70     79   1      0.1090 284512.0000
     70     80   1      0.1090 284512.0000
     71     72   1      0.1510 265265.6000
     71     78   1      0.1410 267776.0000
     71     81   1      0.1090 284512.0000
     72     73   1      0.1400 392459.2000
     72     77   1      0.1400 392459.2000
     73     74   1      0.1400 392459.2000
     73     82   1      0.1080 307105.6000
     74     75   1      0.1400 392459.2000
     74     83   1      0.1080 307105.6000
     75     76   1      0.1400 392459.2000
     75     84   1      0.1080 307105.6000
     76     77   1      0.1400 392459.2000
     76     85   1      0.1080 307105.6000
     77     86   1      0.1080 307105.6000
     78     87   1      0.1410 267776.0000
     87     88   1      0.1529 224262.4000
     87     96   1      0.1090 284512.0000
     87     97   1      0.1090 284512.0000
     88     89   1      0.1510 265265.6000
     88     95   1      0.1410 267776.0000
     88     98   1      0.1090 284512.0000
     89     90   1      0.1400 392459.2000
     89     94   1      0.1400 392459.2000
     90     91   1      0.1400 392459.2000
     90     99   1      0.1080 307105.6000
     91     92   1      0.1400 392459.2000
     91    100   1      0.1080 307105.6000
     92     93   1      0.1400 392459.2000
     92    101   1      0.1080 307105.6000
     93     94   1      0.1400 392459.2000
     93    102   1      0.1080 307105.6000
     94    103   1      0.1080 307105.6000
     95    104   1      0.1410 267776.0000
    104    105   1      0.1529 224262.4000
    104    113   1      0.1090 284512.0000
    104    114   1      0.1090 284512.0000
    105    106   1      0.1510 265265.6000
    105    112   1      0.1410 267776.0000
    105    115   1      0.1090 284512.0000
    106    107   1      0.1400 392459.2000
    106    111   1      0.1400 392459.2000
    107    108   1      0.1400 392459.2000
    107    116   1      0.1080 307105.6000
    108    109   1      0.1400 392459.2000
    108    117   1      0.1080 307105.6000
    109    110   1      0.1400 392459.2000
    109    118   1      0.1080 307105.6000
    110    111   1      0.1400 392459.2000
    110    119   1      0.1080 307105.6000
    111    120   1      0.1080 307105.6000
    112    121   1      0.1410 267776.0000
    121    122   1      0.1529 224262.4000
    121    130   1      0.1090 284512.0000
    121    131   1      0.1090 284512.0000
    122    123   1      0.1510 265265.6000
    122    129   1      0.1410 267776.0000
    122    132   1      0.1090 284512.0000
    123    124   1      0.1400 392459.2000
    123    128   1      0.1400 392459.2000
    124    125   1      0.1400 392459.2000
    124    133   1      0.1080 307105.6000
    125    126   1      0.1400 392459.2000
    125    134   1      0.1080 307105.6000
    126    127   1      0.1400 392459.2000
    126    135   1      0.1080 307105.6000
    127    128   1      0.1400 392459.2000
    127    136   1      0.1080 307105.6000
    128    137   1      0.1080 307105.6000
    129    138   1      0.1410 267776.0000
    138    139   1      0.1529 224262.4000
    138    147   1      0.1090 284512.0000
    138    148   1      0.1090 284512.0000
    139    140   1      0.1510 265265.6000
    139    146   1      0.1410 267776.0000
    139    149   1      0.1090 284512.0000
    140    141   1      0.1400 392459.2000
    140    145   1      0.1400 392459.2000
    141    142   1      0.1400 392459.2000
    141    150   1      0.1080 307105.6000
    142    143   1      0.1400 392459.2000
    142    151   1      0.1080 307105.6000
    143    144   1      0.1400 392459.2000
    143    152   1      0.1080 307105.6000
    144    145   1      0.1400 392459.2000
    144    153   1      0.1080 307105.6000
    145    154   1      0.1080 307105.6000
    146    155   1      0.1410 267776.0000
    155    156   1      0.1529 224262.4000
    155    164   1      0.1090 284512.0000
    155    165   1      0.1090 284512.0000
    156    157   1      0.1510 265265.6000
    156    163   1      0.1410 267776.0000
    156    166   1      0.1090 284512.0000
    157    158   1      0.1400 392459.2000
    157    162   1      0.1400 392459.2000
    158    159   1      0.1400 392459.2000
    158    167   1      0.1080 307105.6000
    159    160   1      0.1400 392459.2000
    159    168   1      0.1080 307105.6000
    160    161   1      0.1400 392459.2000
    160    169   1      0.1080 307105.6000
    161    162   1      0.1400 392459.2000
    161    170   1      0.1080 307105.6000
    162    171   1      0.1080 307105.6000
    163    172   1      0.1410 267776.0000
    172    173   1      0.1529 224262.4000
    172    181   1      0.1090 284512.0000
    172    182   1      0.1090 284512.0000
    173    174   1      0.1510 265265.6000
    173    180   1      0.1410 267776.0000
    173    183   1      0.1090 284512.0000
    174    175   1      0.1400 392459.2000
    174    179   1      0.1400 392459.2000
    175    176   1      0.1400 392459.2000
    175    184   1      0.1080 307105.6000
    176    177   1      0.1400 392459.2000
    176    185   1      0.1080 307105.6000
    177    178   1      0.1400 392459.2000
    177    186   1      0.1080 307105.6000
    178    179   1      0.1400 392459.2000
    178    187   1      0.1080 307105.6000
    179    188   1      0.1080 307105.6000
    180    189   1      0.1410 267776.0000
    189    190   1      0.1529 224262.4000
    189    198   1      0.1090 284512.0000
    189    199   1      0.1090 284512.0000
    190    191   1      0.1510 265265.6000
    190    197   1      0.1410 267776.0000
    190    200   1      0.1090 284512.0000
    191    192   1      0.1400 392459.2000
    191    196   1      0.1400 392459.2000
    192    193   1      0.1400 392459.2000
    192    201   1      0.1080 307105.6000
    193    194   1      0.1400 392459.2000
    193    202   1      0.1080 307105.6000
    194    195   1      0.1400 392459.2000
    194    203   1      0.1080 307105.6000
    195    196   1      0.1400 392459.2000
    195    204   1      0.1080 307105.6000
    196    205   1      0.1080 307105.6000
    197    206   1      0.1410 267776.0000
    206    207   1      0.1529 224262.4000
    206    215   1      0.1090 284512.0000
    206    216   1      0.1090 284512.0000
    207    208   1      0.1510 265265.6000
    207    214   1      0.1410 267776.0000
    207    217   1      0.1090 284512.0000
    208    209   1      0.1400 392459.2000
    208    213   1      0.1400 392459.2000
    209    210   1      0.1400 392459.2000
    209    218   1      0.1080 307105.6000
    210    211   1      0.1400 392459.2000
    210    219   1      0.1080 307105.6000
    211    212   1      0.1400 392459.2000
    211    220   1      0.1080 307105.6000
    212    213   1      0.1400 392459.2000
    212    221   1      0.1080 307105.6000
    213    222   1      0.1080 307105.6000
    214    223   1      0.1410 267776.0000
    223    224   1      0.1529 224262.4000
    223    232   1      0.1090 284512.0000
    223    233   1      0.1090 284512.0000
    224    225   1      0.1510 265265.6000
    224    231   1      0.1410 267776.0000
    224    234   1      0.1090 284512.0000
    225    226   1      0.1400 392459.2000
    225    230   1      0.1400 392459.2000
    226    227   1      0.1400 392459.2000
    226    235   1      0.1080 307105.6000
    227    228   1      0.1400 392459.2000
    227    236   1      0.1080 307105.6000
    228    229   1      0.1400 392459.2000
    228    237   1      0.1080 307105.6000
    229    230   1      0.1400 392459.2000
    229    238   1      0.1080 307105.6000
    230    239   1      0.1080 307105.6000
    231    240   1      0.1410 267776.0000
    240    241   1      0.1529 224262.4000
    240    249   1      0.1090 284512.0000
    240    250   1      0.1090 284512.0000
    241    242   1      0.1510 265265.6000
    241    248   1      0.1410 267776.0000
    241    251   1      0.1090 284512.0000
    242    243   1      0.1400 392459.2000
    242    247   1      0.1400 392459.2000
    243    244   1      0.1400 392459.2000
    243    252   1      0.1080 307105.6000
    244    245   1      0.1400 392459.2000
    244    253   1      0.1080 307105.6000
    245    246   1      0.1400 392459.2000
    245    254   1      0.1080 307105.6000
    246    247   1      0.1400 392459.2000
    246    255   1      0.1080 307105.6000
    247    256   1      0.1080 307105.6000
    248    257   1      0.1410 267776.0000
    257    258   1      0.1529 224262.4000
    257    266   1      0.1090 284512.0000
    257    267   1      0.1090 284512.0000
    258    259   1      0.1510 265265.6000
    258    265   1      0.1410 267776.0000
    258    268   1      0.1090 284512.0000
    259    260   1      0.1400 392459.2000
    259    264   1      0.1400 392459.2000
    260    261   1      0.1400 392459.2000
    260    269   1      0.1080 307105.6000
    261    262   1      0.1400 392459.2000
    261    270   1      0.1080 307105.6000
    262    263   1      0.1400 392459.2000
    262    271   1      0.1080 307105.6000
    263    264   1      0.1400 392459.2000
    263    272   1      0.1080 307105.6000
    264    273   1      0.1080 307105.6000
    265    274   1      0.1410 267776.0000
    274    275   1      0.1529 224262.4000
    274    283   1      0.1090 284512.0000
    274    284   1      0.1090 284512.0000
    275    276   1      0.1510 265265.6000
    275    282   1      0.1410 267776.0000
    275    285   1      0.1090 284512.0000
    276    277   1      0.1400 392459.2000
    276    281   1      0.1400 392459.2000
    277    278   1      0.1400 392459.2000
    277    286   1      0.1080 307105.6000
    278    279   1      0.1400 392459.2000
    278    287   1      0.1080 307105.6000
    279    280   1      0.1400 392459.2000
    279    288   1      0.1080 307105.6000
    280    281   1      0.1400 392459.2000
    280    289   1      0.1080 307105.6000
    281    290   1      0.1080 307105.6000
    282    291   1      0.1410 267776.0000
    291    292   1      0.1529 224262.4000
    291    300   1      0.1090 284512.0000
    291    301   1      0.1090 284512.0000
    292    293   1      0.1510 265265.6000
    292    299   1      0.1410 267776.0000
    292    302   1      0.1090 284512.0000
    293    294   1      0.1400 392459.2000
    293    298   1      0.1400 392459.2000
    294    295   1      0.1400 392459.2000
    294    303   1      0.1080 307105.6000
    295    296   1      0.1400 392459.2000
    295    304   1      0.1080 307105.6000
    296    297   1      0.1400 392459.2000
    296    305   1      0.1080 307105.6000
    297    298   1      0.1400 392459.2000
    297    306   1      0.1080 307105.6000
    298    307   1      0.1080 307105.6000
    299    308   1      0.1410 267776.0000
    308    309   1      0.1529 224262.4000
    308    317   1      0.1090 284512.0000
    308    318   1      0.1090 284512.0000
    309    310   1      0.1510 265265.6000
    309    316   1      0.1410 267776.0000
    309    319   1      0.1090 284512.0000
    310    311   1      0.1400 392459.2000
    310    315   1      0.1400 392459.2000
    311    312   1      0.1400 392459.2000
    311    320   1      0.1080 307105.6000
    312    313   1      0.1400 392459.2000
    312    321   1      0.1080 307105.6000
    313    314   1      0.1400 392459.2000
    313    322   1      0.1080 307105.6000
    314    315   1      0.1400 392459.2000
    314    323   1      0.1080 307105.6000
    315    324   1      0.1080 307105.6000
    316    325   1      0.1410 267776.0000
    325    326   1      0.1529 224262.4000
    325    334   1      0.1090 284512.0000
    325    335   1      0.1090 284512.0000
    326    327   1      0.1510 265265.6000
    326    333   1      0.1410 267776.0000
    326    336   1      0.1090 284512.0000
    327    328   1      0.1400 392459.2000
    327    332   1      0.1400 392459.2000
    328    329   1      0.1400 392459.2000
    328    337   1      0.1080 307105.6000
    329    330   1      0.1400 392459.2000
    329    338   1      0.1080 307105.6000
    330    331   1      0.1400 392459.2000
    330    339   1      0.1080 307105.6000
    331    332   1      0.1400 392459.2000
    331    340   1      0.1080 307105.6000
    332    341   1      0.1080 307105.6000
    333    342   1      0.0945 462750.4000

[ pairs ]
; ai   aj   funct   fudge_QQ  charge_i   charge_j   c6    c12
     10      3   2   0.50000     0.0600000   -0.0418000   2.680627e-04  1.873879e-07
     10      9   2   0.50000     0.0600000   -0.4000000   2.066619e-04  7.875431e-08
     10     12   2   0.50000     0.0600000    0.0300000   6.128906e-05  1.496315e-08
     11      3   2   0.50000     0.0600000   -0.0418000   2.680627e-04  1.873879e-07
     11      9   2   0.50000     0.0600000   -0.4000000   2.066619e-04  7.875431e-08
     11     12   2   0.50000     0.0600000    0.0300000   6.128906e-05  1.496315e-08
     18      3   2   0.50000     0.0600000   -0.0418000   2.680627e-04  1.873879e-07
     18      9   2   0.50000     0.0600000   -0.4000000   2.066619e-04  7.875431e-08
     18     12   2   0.50000     0.0600000    0.0300000   6.128906e-05  1.496315e-08
      1      4   2   0.50000    -0.1800000   -0.1150000   1.091018e-03  2.092768e-06
      1      8   2   0.50000    -0.1800000   -0.1150000   1.091018e-03  2.092768e-06
      9      4   2   0.50000    -0.4000000   -0.1150000   9.038862e-04  9.862632e-07
      9      8   2   0.50000    -0.4000000   -0.1150000   9.038862e-04  9.862632e-07
     12      4   2   0.50000     0.0300000   -0.1150000   2.680627e-04  1.873879e-07
     12      8   2   0.50000     0.0300000   -0.1150000   2.680627e-04  1.873879e-07
      1     19   2   0.50000    -0.1800000    0.1400000   1.015252e-03  1.866303e-06
      3     19   2   0.50000    -0.0418000    0.1400000   1.091018e-03  2.092768e-06
     12     19   2   0.50000     0.0300000    0.1400000   2.494471e-04  1.671101e-07
      2      5   2   0.50000     0.2118000   -0.1150000   1.091018e-03  2.092768e-06
      2     13   2   0.50000     0.2118000    0.1150000   2.262583e-04  1.374848e-07
      8      5   2   0.50000    -0.1150000   -0.1150000   1.172438e-03  2.346713e-06
      8     13   2   0.50000    -0.1150000    0.1150000   2.431434e-04  1.541678e-07
      2      7   2   0.50000     0.2118000   -0.1150000   1.091018e-03  2.092768e-06
      2     17   2   0.50000     0.2118000    0.1150000   2.262583e-04  1.374848e-07
      4      7   2   0.50000    -0.1150000   -0.1150000   1.172438e-03  2.346713e-06
      4     17   2   0.50000    -0.1150000    0.1150000   2.431434e-04  1.541678e-07
      3      6   2   0.50000    -0.0418000   -0.1150000   1.172438e-03  2.346713e-06
      3     14   2   0.50000    -0.0418000    0.1150000   2.431434e-04  1.541678e-07
     13      6   2   0.50000     0.1150000   -0.1150000   2.431434e-04  1.541678e-07
     13     14   2   0.50000     0.1150000    0.1150000   5.042375e-05  1.012808e-08
      4     15   2   0.50000    -0.1150000    0.1150000   2.431434e-04  1.541678e-07
     14      7   2   0.50000     0.1150000   -0.1150000   2.431434e-04  1.541678e-07
     14     15   2   0.50000     0.1150000    0.1150000   5.042375e-05  1.012808e-08
      5     16   2   0.50000    -0.1150000    0.1150000   2.431434e-04  1.541678e-07
     15      8   2   0.50000     0.1150000   -0.1150000   2.431434e-04  1.541678e-07
     15     16   2   0.50000     0.1150000    0.1150000   5.042375e-05  1.012808e-08
      6     17   2   0.50000    -0.1150000    0.1150000   2.431434e-04  1.541678e-07
     16      3   2   0.50000     0.1150000   -0.0418000   2.431434e-04  1.541678e-07
     16     17   2   0.50000     0.1150000    0.1150000   5.042375e-05  1.012808e-08
      2     20   2   0.50000     0.2118000    0.2118000   1.015252e-03  1.866303e-06
      2     28   2   0.50000     0.2118000    0.0300000   2.494471e-04  1.671101e-07
      2     29   2   0.50000     0.2118000    0.0300000   2.494471e-04  1.671101e-07
      9     21   2   0.50000    -0.4000000   -0.0418000   9.038862e-04  9.862632e-07
      9     27   2   0.50000    -0.4000000   -0.4000000   6.968474e-04  4.145011e-07
      9     30   2   0.50000    -0.4000000    0.0300000   2.066619e-04  7.875431e-08
     28     21   2   0.50000     0.0300000   -0.0418000   2.680627e-04  1.873879e-07
     28     27   2   0.50000     0.0300000   -0.4000000   2.066619e-04  7.875431e-08
     28     30   2   0.50000     0.0300000    0.0300000   6.128906e-05  1.496315e-08
     29     21   2   0.50000     0.0300000   -0.0418000   2.680627e-04  1.873879e-07
     29     27   2   0.50000     0.0300000   -0.4000000   2.066619e-04  7.875431e-08
     29     30   2   0.50000     0.0300000    0.0300000   6.128906e-05  1.496315e-08
     19     22   2   0.50000     0.1400000   -0.1150000   1.091018e-03  2.092768e-06
     19     26   2   0.50000     0.1400000   -0.1150000   1.091018e-03  2.092768e-06
     27     22   2   0.50000    -0.4000000   -0.1150000   9.038862e-04  9.862632e-07
     27     26   2   0.50000    -0.4000000   -0.1150000   9.038862e-04  9.862632e-07
     30     22   2   0.50000     0.0300000   -0.1150000   2.680627e-04  1.873879e-07
     30     26   2   0.50000     0.0300000   -0.1150000   2.680627e-04  1.873879e-07
     19     36   2   0.50000     0.1400000    0.1400000   1.015252e-03  1.866303e-06
     21     36   2   0.50000    -0.0418000    0.1400000   1.091018e-03  2.092768e-06
     30     36   2   0.50000     0.0300000    0.1400000   2.494471e-04  1.671101e-07
     20     23   2   0.50000     0.2118000   -0.1150000   1.091018e-03  2.092768e-06
     20     31   2   0.50000     0.2118000    0.1150000   2.262583e-04  1.374848e-07
     26     23   2   0.50000    -0.1150000   -0.1150000   1.172438e-03  2.346713e-06
     26     31   2   0.50000    -0.1150000    0.1150000   2.431434e-04  1.541678e-07
     20     25   2   0.50000     0.2118000   -0.1150000   1.091018e-03  2.092768e-06
     20     35   2   0.50000     0.2118000    0.1150000   2.262583e-04  1.374848e-07
     22     25   2   0.50000    -0.1150000   -0.1150000   1.172438e-03  2.346713e-06
     22     35   2   0.50000    -0.1150000    0.1150000   2.431434e-04  1.541678e-07
     21     24   2   0.50000    -0.0418000   -0.1150000   1.172438e-03  2.346713e-06
     21     32   2   0.50000    -0.0418000    0.1150000   2.431434e-04  1.541678e-07
     31     24   2   0.50000     0.1150000   -0.1150000   2.431434e-04  1.541678e-07
     31     32   2   0.50000     0.1150000    0.1150000   5.042375e-05  1.012808e-08
     22     33   2   0.50000    -0.1150000    0.1150000   2.431434e-04  1.541678e-07
     32     25   2   0.50000     0.1150000   -0.1150000   2.431434e-04  1.541678e-07
     32     33   2   0.50000     0.1150000    0.1150000   5.042375e-05  1.012808e-08
     23     34   2   0.50000    -0.1150000    0.1150000   2.431434e-04  1.541678e-07
     33     26   2   0.50000     0.1150000   -0.1150000   2.431434e-04  1.541678e-07
     33     34   2   0.50000     0.1150000    0.1150000   5.042375e-05  1.012808e-08
     24     35   2   0.50000    -0.1150000    0.1150000   2.431434e-04  1.541678e-07
     34     21   2   0.50000     0.1150000   -0.0418000   2.431434e-04  1.541678e-07
     34     35   2   0.50000     0.1150000    0.1150000   5.042375e-05  1.012808e-08
     20     37   2   0.50000     0.2118000    0.2118000   1.015252e-03  1.866303e-06
     20     45   2   0.50000     0.2118000    0.0300000   2.494471e-04  1.671101e-07
     20     46   2   0.50000     0.2118000    0.0300000   2.494471e-04  1.671101e-07
     27     38   2   0.50000    -0.4000000   -0.0418000   9.038862e-04  9.862632e-07
     27     44   2   0.50000    -0.4000000   -0.4000000   6.968474e-04  4.145011e-07
     27     47   2   0.50000    -0.4000000    0.0300000   2.066619e-04  7.875431e-08
     45     38   2   0.50000     0.0300000   -0.0418000   2.680627e-04  1.873879e-07
     45     44   2   0.50000     0.0300000   -0.4000000   2.066619e-04  7.875431e-08
     45     47   2   0.50000     0.0300000    0.0300000   6.128906e-05  1.496315e-08
     46     38   2   0.50000     0.0300000   -0.0418000   2.680627e-04  1.873879e-07
     46     44   2   0.50000     0.0300000   -0.4000000   2.066619e-04  7.875431e-08
     46     47   2   0.50000     0.0300000    0.0300000   6.128906e-05  1.496315e-08
     36     39   2   0.50000     0.1400000   -0.1150000   1.091018e-03  2.092768e-06
     36     43   2   0.50000     0.1400000   -0.1150000   1.091018e-03  2.092768e-06
     44     39   2   0.50000    -0.4000000   -0.1150000   9.038862e-04  9.862632e-07
     44     43   2   0.50000    -0.4000000   -0.1150000   9.038862e-04  9.862632e-07
     47     39   2   0.50000     0.0300000   -0.1150000   2.680627e-04  1.873879e-07
     47     43   2   0.50000     0.0300000   -0.1150000   2.680627e-04  1.873879e-07
     36     53   2   0.50000     0.1400000    0.1400000   1.015252e-03  1.866303e-06
     38     53   2   0.50000    -0.0418000    0.1400000   1.091018e-03  2.092768e-06
     47     53   2   0.50000     0.0300000    0.1400000   2.494471e-04  1.671101e-07
     37     40   2   0.50000     0.2118000   -0.1150000   1.091018e-03  2.092768e-06
     37     48   2   0.50000     0.2118000    0.1150000   2.262583e-04  1.374848e-07
     43     40   2   0.50000    -0.1150000   -0.1150000   1.172438e-03  2.346713e-06
     43     48   2   0.50000    -0.1150000    0.1150000   2.431434e-04  1.541678e-07
     37     42   2   0.50000     0.2118000   -0.1150000   1.091018e-03  2.092768e-06
     37     52   2   0.50000     0.2118000    0.1150000   2.262583e-04  1.374848e-07
     39     42   2   0.50000    -0.1150000   -0.1150000   1.172438e-03  2.346713e-06
     39     52   2   0.50000    -0.1150000    0.1150000   2.431434e-04  1.541678e-07
     38     41   2   0.50000    -0.0418000   -0.1150000   1.172438e-03  2.346713e-06
     38     49   2   0.50000    -0.0418000    0.1150000   2.431434e-04  1.541678e-07
     48     41   2   0.50000     0.1150000   -0.1150000   2.431434e-04  1.541678e-07
     48     49   2   0.50000     0.1150000    0.1150000   5.042375e-05  1.012808e-08
     39     50   2   0.50000    -0.1150000    0.1150000   2.431434e-04  1.541678e-07
     49     42   2   0.50000     0.1150000   -0.1150000   2.431434e-04  1.541678e-07
     49     50   2   0.50000     0.1150000    0.1150000   5.042375e-05  1.012808e-08
     40     51   2   0.50000    -0.1150000    0.1150000   2.431434e-04  1.541678e-07
     50     43   2   0.50000     0.1150000   -0.1150000   2.431434e-04  1.541678e-07
     50     51   2   0.50000     0.1150000    0.1150000   5.042375e-05  1.012808e-08
     41     52   2   0.50000    -0.1150000    0.1150000   2.431434e-04  1.541678e-07
     51     38   2   0.50000     0.1150000   -0.0418000   2.431434e-04  1.541678e-07
     51     52   2   0.50000     0.1150000    0.1150000   5.042375e-05  1.012808e-08
     37     54   2   0.50000     0.2118000    0.2118000   1.015252e-03  1.866303e-06
     37     62   2   0.50000     0.2118000    0.0300000   2.494471e-04  1.671101e-07
     37     63   2   0.50000     0.2118000    0.0300000   2.494471e-04  1.671101e-07
     44     55   2   0.50000    -0.4000000   -0.0418000   9.038862e-04  9.862632e-07
     44     61   2   0.50000    -0.4000000   -0.4000000   6.968474e-04  4.145011e-07
     44     64   2   0.50000    -0.4000000    0.0300000   2.066619e-04  7.875431e-08
     62     55   2   0.50000     0.0300000   -0.0418000   2.680627e-04  1.873879e-07
     62     61   2   0.50000     0.0300000   -0.4000000   2.066619e-04  7.875431e-08
     62     64   2   0.50000     0.0300000    0.0300000   6.128906e-05  1.496315e-08
     63     55   2   0.50000     0.0300000   -0.0418000   2.680627e-04  1.873879e-07
     63     61   2   0.50000     0.0300000   -0.4000000   2.066619e-04  7.875431e-08
     63     64   2   0.50000     0.0300000    0.0300000   6.128906e-05  1.496315e-08
     53     56   2   0.50000     0.1400000   -0.1150000   1.091018e-03  2.092768e-06
     53     60   2   0.50000     0.1400000   -0.1150000   1.091018e-03  2.092768e-06
     61     56   2   0.50000    -0.4000000   -0.1150000   9.038862e-04  9.862632e-07
     61     60   2   0.50000    -0.4000000   -0.1150000   9.038862e-04  9.862632e-07
     64     56   2   0.50000     0.0300000   -0.1150000   2.680627e-04  1.873879e-07
     64     60   2   0.50000     0.0300000   -0.1150000   2.680627e-04  1.873879e-07
     53     70   2   0.50000     0.1400000    0.1400000   1.015252e-03  1.866303e-06
     55     70   2   0.50000    -0.0418000    0.1400000   1.091018e-03  2.092768e-06
     64     70   2   0.50000     0.0300000    0.1400000   2.494471e-04  1.671101e-07
     54     57   2   0.50000     0.2118000   -0.1150000   1.091018e-03  2.092768e-06
     54     65   2   0.50000     0.2118000    0.1150000   2.262583e-04  1.374848e-07
     60     57   2   0.50000    -0.1150000   -0.1150000   1.172438e-03  2.346713e-06
     60     65   2   0.50000    -0.1150000    0.1150000   2.431434e-04  1.541678e-07
     54     59   2   0.50000     0.2118000   -0.1150000   1.091018e-03  2.092768e-06
     54     69   2   0.50000     0.2118000    0.1150000   2.262583e-04  1.374848e-07
     56     59   2   0.50000    -0.1150000   -0.1150000   1.172438e-03  2.346713e-06
     56     69   2   0.50000    -0.1150000    0.1150000   2.431434e-04  1.541678e-07
     55     58   2   0.50000    -0.0418000   -0.1150000   1.172438e-03  2.346713e-06
     55     66   2   0.50000    -0.0418000    0.1150000   2.431434e-04  1.541678e-07
     65     58   2   0.50000     0.1150000   -0.1150000   2.431434e-04  1.541678e-07
     65     66   2   0.50000     0.1150000    0.1150000   5.042375e-05  1.012808e-08
     56     67   2   0.50000    -0.1150000    0.1150000   2.431434e-04  1.541678e-07
     66     59   2   0.50000     0.1150000   -0.1150000   2.431434e-04  1.541678e-07
     66     67   2   0.50000     0.1150000    0.1150000   5.042375e-05  1.012808e-08
     57     68   2   0.50000    -0.1150000    0.1150000   2.431434e-04  1.541678e-07
     67     60   2   0.50000     0.1150000   -0.1150000   2.431434e-04  1.541678e-07
     67     68   2   0.50000     0.1150000    0.1150000   5.042375e-05  1.012808e-08
     58     69   2   0.50000    -0.1150000    0.1150000   2.431434e-04  1.541678e-07
     68     55   2   0.50000     0.1150000   -0.0418000   2.431434e-04  1.541678e-07
     68     69   2   0.50000     0.1150000    0.1150000   5.042375e-05  1.012808e-08
     54     71   2   0.50000     0.2118000    0.2118000   1.015252e-03  1.866303e-06
     54     79   2   0.50000     0.2118000    0.0300000   2.494471e-04  1.671101e-07
     54     80   2   0.50000     0.2118000    0.0300000   2.494471e-04  1.671101e-07
     61     72   2   0.50000    -0.4000000   -0.0418000   9.038862e-04  9.862632e-07
     61     78   2   0.50000    -0.4000000   -0.4000000   6.968474e-04  4.145011e-07
     61     81   2   0.50000    -0.4000000    0.0300000   2.066619e-04  7.875431e-08
     79     72   2   0.50000     0.0300000   -0.0418000   2.680627e-04  1.873879e-07
     79     78   2   0.50000     0.0300000   -0.4000000   2.066619e-04  7.875431e-08
     79     81   2   0.50000     0.0300000    0.0300000   6.128906e-05  1.496315e-08
     80     72   2   0.50000     0.0300000   -0.0418000   2.680627e-04  1.873879e-07
     80     78   2   0.50000     0.0300000   -0.4000000   2.066619e-04  7.875431e-08
     80     81   2   0.50000     0.0300000    0.0300000   6.128906e-05  1.496315e-08
     70     73   2   0.50000     0.1400000   -0.1150000   1.091018e-03  2.092768e-06
     70     77   2   0.50000     0.1400000   -0.1150000   1.091018e-03  2.092768e-06
     78     73   2   0.50000    -0.4000000   -0.1150000   9.038862e-04  9.862632e-07
     78     77   2   0.50000    -0.4000000   -0.1150000   9.038862e-04  9.862632e-07
     81     73   2   0.50000     0.0300000   -0.1150000   2.680627e-04  1.873879e-07
     81     77   2   0.50000     0.0300000   -0.1150000   2.680627e-04  1.873879e-07
     70     87   2   0.50000     0.1400000    0.1400000   1.015252e-03  1.866303e-06
     72     87   2   0.50000    -0.0418000    0.1400000   1.091018e-03  2.092768e-06
     81     87   2   0.50000     0.0300000    0.1400000   2.494471e-04  1.671101e-07
     71     74   2   0.50000     0.2118000   -0.1150000   1.091018e-03  2.092768e-06
     71     82   2   0.50000     0.2118000    0.1150000   2.262583e-04  1.374848e-07
     77     74   2   0.50000    -0.1150000   -0.1150000   1.172438e-03  2.346713e-06
     77     82   2   0.50000    -0.1150000    0.1150000   2.431434e-04  1.541678e-07
     71     76   2   0.50000     0.2118000   -0.1150000   1.091018e-03  2.092768e-06
     71     86   2   0.50000     0.2118000    0.1150000   2.262583e-04  1.374848e-07
     73     76   2   0.50000    -0.1150000   -0.1150000   1.172438e-03  2.346713e-06
     73     86   2   0.50000    -0.1150000    0.1150000   2.431434e-04  1.541678e-07
     72     75   2   0.50000    -0.0418000   -0.1150000   1.172438e-03  2.346713e-06
     72     83   2   0.50000    -0.0418000    0.1150000   2.431434e-04  1.541678e-07
     82     75   2   0.50000     0.1150000   -0.1150000   2.431434e-04  1.541678e-07
     82     83   2   0.50000     0.1150000    0.1150000   5.042375e-05  1.012808e-08
     73     84   2   0.50000    -0.1150000    0.1150000   2.431434e-04  1.541678e-07
     83     76   2   0.50000     0.1150000   -0.1150000   2.431434e-04  1.541678e-07
     83     84   2   0.50000     0.1150000    0.1150000   5.042375e-05  1.012808e-08
     74     85   2   0.50000    -0.1150000    0.1150000   2.431434e-04  1.541678e-07
     84     77   2   0.50000     0.1150000   -0.1150000   2.431434e-04  1.541678e-07
     84     85   2   0.50000     0.1150000    0.1150000   5.042375e-05  1.012808e-08
     75     86   2   0.50000    -0.1150000    0.1150000   2.431434e-04  1.541678e-07
     85     72   2   0.50000     0.1150000   -0.0418000   2.431434e-04  1.541678e-07
     85     86   2   0.50000     0.1150000    0.1150000   5.042375e-05  1.012808e-08
     71     88   2   0.50000     0.2118000    0.2118000   1.015252e-03  1.866303e-06
     71     96   2   0.50000     0.2118000    0.0300000   2.494471e-04  1.671101e-07
     71     97   2   0.50000     0.2118000    0.0300000   2.494471e-04  1.671101e-07
     78     89   2   0.50000    -0.4000000   -0.0418000   9.038862e-04  9.862632e-07
     78     95   2   0.50000    -0.4000000   -0.4000000   6.968474e-04  4.145011e-07
     78     98   2   0.50000    -0.4000000    0.0300000   2.066619e-04  7.875431e-08
     96     89   2   0.50000     0.0300000   -0.0418000   2.680627e-04  1.873879e-07
     96     95   2   0.50000     0.0300000   -0.4000000   2.066619e-04  7.875431e-08
     96     98   2   0.50000     0.0300000    0.0300000   6.128906e-05  1.496315e-08
     97     89   2   0.50000     0.0300000   -0.0418000   2.680627e-04  1.873879e-07
     97     95   2   0.50000     0.0300000   -0.4000000   2.066619e-04  7.875431e-08
     97     98   2   0.50000     0.0300000    0.0300000   6.128906e-05  1.496315e-08
     87     90   2   0.50000     0.1400000   -0.1150000   1.091018e-03  2.092768e-06
     87     94   2   0.50000     0.1400000   -0.1150000   1.091018e-03  2.092768e-06
     95     90   2   0.50000    -0.4000000   -0.1150000   9.038862e-04  9.862632e-07
     95     94   2   0.50000    -0.4000000   -0.1150000   9.038862e-04  9.862632e-07
     98     90   2   0.50000     0.0300000   -0.1150000   2.680627e-04  1.873879e-07
     98     94   2   0.50000     0.0300000   -0.1150000   2.680627e-04  1.873879e-07
     87    104   2   0.50000     0.1400000    0.1400000   1.015252e-03  1.866303e-06
     89    104   2   0.50000    -0.0418000    0.1400000   1.091018e-03  2.092768e-06
     98    104   2   0.50000     0.0300000    0.1400000   2.494471e-04  1.671101e-07
     88     91   2   0.50000     0.2118000   -0.1150000   1.091018e-03  2.092768e-06
     88     99   2   0.50000     0.2118000    0.1150000   2.262583e-04  1.374848e-07
     94     91   2   0.50000    -0.1150000   -0.1150000   1.172438e-03  2.346713e-06
     94     99   2   0.50000    -0.1150000    0.1150000   2.431434e-04  1.541678e-07
     88     93   2   0.50000     0.2118000   -0.1150000   1.091018e-03  2.092768e-06
     88    103   2   0.50000     0.2118000    0.1150000   2.262583e-04  1.374848e-07
     90     93   2   0.50000    -0.1150000   -0.1150000   1.172438e-03  2.346713e-06
     90    103   2   0.50000    -0.1150000    0.1150000   2.431434e-04  1.541678e-07
     89     92   2   0.50000    -0.0418000   -0.1150000   1.172438e-03  2.346713e-06
     89    100   2   0.50000    -0.0418000    0.1150000   2.431434e-04  1.541678e-07
     99     92   2   0.50000     0.1150000   -0.1150000   2.431434e-04  1.541678e-07
     99    100   2   0.50000     0.1150000    0.1150000   5.042375e-05  1.012808e-08
     90    101   2   0.50000    -0.1150000    0.1150000   2.431434e-04  1.541678e-07
    100     93   2   0.50000     0.1150000   -0.1150000   2.431434e-04  1.541678e-07
    100    101   2   0.50000     0.1150000    0.1150000   5.042375e-05  1.012808e-08
     91    102   2   0.50000    -0.1150000    0.1150000   2.431434e-04  1.541678e-07
    101     94   2   0.50000     0.1150000   -0.1150000   2.431434e-04  1.541678e-07
    101    102   2   0.50000     0.1150000    0.1150000   5.042375e-05  1.012808e-08
     92    103   2   0.50000    -0.1150000    0.1150000   2.431434e-04  1.541678e-07
    102     89   2   0.50000     0.1150000   -0.0418000   2.431434e-04  1.541678e-07
    102    103   2   0.50000     0.1150000    0.1150000   5.042375e-05  1.012808e-08
     88    105   2   0.50000     0.2118000    0.2118000   1.015252e-03  1.866303e-06
     88    113   2   0.50000     0.2118000    0.0300000   2.494471e-04  1.671101e-07
     88    114   2   0.50000     0.2118000    0.0300000   2.494471e-04  1.671101e-07
     95    106   2   0.50000    -0.4000000   -0.0418000   9.038862e-04  9.862632e-07
     95    112   2   0.50000    -0.4000000   -0.4000000   6.968474e-04  4.145011e-07
     95    115   2   0.50000    -0.4000000    0.0300000   2.066619e-04  7.875431e-08
    113    106   2   0.50000     0.0300000   -0.0418000   2.680627e-04  1.873879e-07
    113    112   2   0.50000     0.0300000   -0.4000000   2.066619e-04  7.875431e-08
    113    115   2   0.50000     0.0300000    0.0300000   6.128906e-05  1.496315e-08
    114    106   2   0.50000     0.0300000   -0.0418000   2.680627e-04  1.873879e-07
    114    112   2   0.50000     0.0300000   -0.4000000   2.066619e-04  7.875431e-08
    114    115   2   0.50000     0.0300000    0.0300000   6.128906e-05  1.496315e-08
    104    107   2   0.50000     0.1400000   -0.1150000   1.091018e-03  2.092768e-06
    104    111   2   0.50000     0.1400000   -0.1150000   1.091018e-03  2.092768e-06
    112    107   2   0.50000    -0.4000000   -0.1150000   9.038862e-04  9.862632e-07
    112    111   2   0.50000    -0.4000000   -0.1150000   9.038862e-04  9.862632e-07
    115    107   2   0.50000     0.0300000   -0.1150000   2.680627e-04  1.873879e-07
    115    111   2   0.50000     0.0300000   -0.1150000   2.680627e-04  1.873879e-07
    104    121   2   0.50000     0.1400000    0.1400000   1.015252e-03  1.866303e-06
    106    121   2   0.50000    -0.0418000    0.1400000   1.091018e-03  2.092768e-06
    115    121   2   0.50000     0.0300000    0.1400000   2.494471e-04  1.671101e-07
    105    108   2   0.50000     0.2118000   -0.1150000   1.091018e-03  2.092768e-06
    105    116   2   0.50000     0.2118000    0.1150000   2.262583e-04  1.374848e-07
    111    108   2   0.50000    -0.1150000   -0.1150000   1.172438e-03  2.346713e-06
    111    116   2   0.50000    -0.1150000    0.1150000   2.431434e-04  1.541678e-07
    105    110   2   0.50000     0.2118000   -0.1150000   1.091018e-03  2.092768e-06
    105    120   2   0.50000     0.2118000    0.1150000   2.262583e-04  1.374848e-07
    107    110   2   0.50000    -0.1150000   -0.1150000   1.172438e-03  2.346713e-06
    107    120   2   0.50000    -0.1150000    0.1150000   2.431434e-04  1.541678e-07
    106    109   2   0.50000    -0.0418000   -0.1150000   1.172438e-03  2.346713e-06
    106    117   2   0.50000    -0.0418000    0.1150000   2.431434e-04  1.541678e-07
    116    109   2   0.50000     0.1150000   -0.1150000   2.431434e-04  1.541678e-07
    116    117   2   0.50000     0.1150000    0.1150000   5.042375e-05  1.012808e-08
    107    118   2   0.50000    -0.1150000    0.1150000   2.431434e-04  1.541678e-07
    117    110   2   0.50000     0.1150000   -0.1150000   2.431434e-04  1.541678e-07
    117    118   2   0.50000     0.1150000    0.1150000   5.042375e-05  1.012808e-08
    108    119   2   0.50000    -0.1150000    0.1150000   2.431434e-04  1.541678e-07
    118    111   2   0.50000     0.1150000   -0.1150000   2.431434e-04  1.541678e-07
    118    119   2   0.50000     0.1150000    0.1150000   5.042375e-05  1.012808e-08
    109    120   2   0.50000    -0.1150000    0.1150000   2.431434e-04  1.541678e-07
    119    106   2   0.50000     0.1150000   -0.0418000   2.431434e-04  1.541678e-07
    119    120   2   0.50000     0.1150000    0.1150000   5.042375e-05  1.012808e-08
    105    122   2   0.50000     0.2118000    0.2118000   1.015252e-03  1.866303e-06
    105    130   2   0.50000     0.2118000    0.0300000   2.494471e-04  1.671101e-07
    105    131   2   0.50000     0.2118000    0.0300000   2.494471e-04  1.671101e-07
    112    123   2   0.50000    -0.4000000   -0.0418000   9.038862e-04  9.862632e-07
    112    129   2   0.50000    -0.4000000   -0.4000000   6.968474e-04  4.145011e-07
    112    132   2   0.50000    -0.4000000    0.0300000   2.066619e-04  7.875431e-08
    130    123   2   0.50000     0.0300000   -0.0418000   2.680627e-04  1.873879e-07
    130    129   2   0.50000     0.0300000   -0.4000000   2.066619e-04  7.875431e-08
    130    132   2   0.50000     0.0300000    0.0300000   6.128906e-05  1.496315e-08
    131    123   2   0.50000     0.0300000   -0.0418000   2.680627e-04  1.873879e-07
    131    129   2   0.50000     0.0300000   -0.4000000   2.066619e-04  7.875431e-08
    131    132   2   0.50000     0.0300000    0.0300000   6.128906e-05  1.496315e-08
    121    124   2   0.50000     0.1400000   -0.1150000   1.091018e-03  2.092768e-06
    121    128   2   0.50000     0.1400000   -0.1150000   1.091018e-03  2.092768e-06
    129    124   2   0.50000    -0.4000000   -0.1150000   9.038862e-04  9.862632e-07
    129    128   2   0.50000    -0.4000000   -0.1150000   9.038862e-04  9.862632e-07
    132    124   2   0.50000     0.0300000   -0.1150000   2.680627e-04  1.873879e-07
    132    128   2   0.50000     0.0300000   -0.1150000   2.680627e-04  1.873879e-07
    121    138   2   0.50000     0.1400000    0.1400000   1.015252e-03  1.866303e-06
    123    138   2   0.50000    -0.0418000    0.1400000   1.091018e-03  2.092768e-06
    132    138   2   0.50000     0.0300000    0.1400000   2.494471e-04  1.671101e-07
    122    125   2   0.50000     0.2118000   -0.1150000   1.091018e-03  2.092768e-06
    122    133   2   0.50000     0.2118000    0.1150000   2.262583e-04  1.374848e-07
    128    125   2   0.50000    -0.1150000   -0.1150000   1.172438e-03  2.346713e-06
    128    133   2   0.50000    -0.1150000    0.1150000   2.431434e-04  1.541678e-07
    122    127   2   0.50000     0.2118000   -0.1150000   1.091018e-03  2.092768e-06
    122    137   2   0.50000     0.2118000    0.1150000   2.262583e-04  1.374848e-07
    124    127   2   0.50000    -0.1150000   -0.1150000   1.172438e-03  2.346713e-06
    124    137   2   0.50000    -0.1150000    0.1150000   2.431434e-04  1.541678e-07
    123    126   2   0.50000    -0.0418000   -0.1150000   1.172438e-03  2.346713e-06
    123    134   2   0.50000    -0.0418000    0.1150000   2.431434e-04  1.541678e-07
    133    126   2   0.50000     0.1150000   -0.1150000   2.431434e-04  1.541678e-07
    133    134   2   0.50000     0.1150000    0.1150000   5.042375e-05  1.012808e-08
    124    135   2   0.50000    -0.1150000    0.1150000   2.431434e-04  1.541678e-07
    134    127   2   0.50000     0.1150000   -0.1150000   2.431434e-04  1.541678e-07
    134    135   2   0.50000     0.1150000    0.1150000   5.042375e-05  1.012808e-08
    125    136   2   0.50000    -0.1150000    0.1150000   2.431434e-04  1.541678e-07
    135    128   2   0.50000     0.1150000   -0.1150000   2.431434e-04  1.541678e-07
    135    136   2   0.50000     0.1150000    0.1150000   5.042375e-05  1.012808e-08
    126    137   2   0.50000    -0.1150000    0.1150000   2.431434e-04  1.541678e-07
    136    123   2   0.50000     0.1150000   -0.0418000   2.431434e-04  1.541678e-07
    136    137   2   0.50000     0.1150000    0.1150000   5.042375e-05  1.012808e-08
    122    139   2   0.50000     0.2118000    0.2118000   1.015252e-03  1.866303e-06
    122    147   2   0.50000     0.2118000    0.0300000   2.494471e-04  1.671101e-07
    122    148   2   0.50000     0.2118000    0.0300000   2.494471e-04  1.671101e-07
    129    140   2   0.50000    -0.4000000   -0.0418000   9.038862e-04  9.862632e-07
    129    146   2   0.50000    -0.4000000   -0.4000000   6.968474e-04  4.145011e-07
    129    149   2   0.50000    -0.4000000    0.0300000   2.066619e-04  7.875431e-08
    147    140   2   0.50000     0.0300000   -0.0418000   2.680627e-04  1.873879e-07
    147    146   2   0.50000     0.0300000   -0.4000000   2.066619e-04  7.875431e-08
    147    149   2   0.50000     0.0300000    0.0300000   6.128906e-05  1.496315e-08
    148    140   2   0.50000     0.0300000   -0.0418000   2.680627e-04  1.873879e-07
    148    146   2   0.50000     0.0300000   -0.4000000   2.066619e-04  7.875431e-08
    148    149   2   0.50000     0.0300000    0.0300000   6.128906e-05  1.496315e-08
    138    141   2   0.50000     0.1400000   -0.1150000   1.091018e-03  2.092768e-06
    138    145   2   0.50000     0.1400000   -0.1150000   1.091018e-03  2.092768e-06
    146    141   2   0.50000    -0.4000000   -0.1150000   9.038862e-04  9.862632e-07
    146    145   2   0.50000    -0.4000000   -0.1150000   9.038862e-04  9.862632e-07
    149    141   2   0.50000     0.0300000   -0.1150000   2.680627e-04  1.873879e-07
    149    145   2   0.50000     0.0300000   -0.1150000   2.680627e-04  1.873879e-07
    138    155   2   0.50000     0.1400000    0.1400000   1.015252e-03  1.866303e-06
    140    155   2   0.50000    -0.0418000    0.1400000   1.091018e-03  2.092768e-06
    149    155   2   0.50000     0.0300000    0.1400000   2.494471e-04  1.671101e-07
    139    142   2   0.50000     0.2118000   -0.1150000   1.091018e-03  2.092768e-06
    139    150   2   0.50000     0.2118000    0.1150000   2.262583e-04  1.374848e-07
    145    142   2   0.50000    -0.1150000   -0.1150000   1.172438e-03  2.346713e-06
    145    150   2   0.50000    -0.1150000    0.1150000   2.431434e-04  1.541678e-07
    139    144   2   0.50000     0.2118000   -0.1150000   1.091018e-03  2.092768e-06
    139    154   2   0.50000     0.2118000    0.1150000   2.262583e-04  1.374848e-07
    141    144   2   0.50000    -0.1150000   -0.1150000   1.172438e-03  2.346713e-06
    141    154   2   0.50000    -0.1150000    0.1150000   2.431434e-04  1.541678e-07
    140    143   2   0.50000    -0.0418000   -0.1150000   1.172438e-03  2.346713e-06
    140    151   2   0.50000    -0.0418000    0.1150000   2.431434e-04  1.541678e-07
    150    143   2   0.50000     0.1150000   -0.1150000   2.431434e-04  1.541678e-07
    150    151   2   0.50000     0.1150000    0.1150000   5.042375e-05  1.012808e-08
    141    152   2   0.50000    -0.1150000    0.1150000   2.431434e-04  1.541678e-07
    151    144   2   0.50000     0.1150000   -0.1150000   2.431434e-04  1.541678e-07
    151    152   2   0.50000     0.1150000    0.1150000   5.042375e-05  1.012808e-08
    142    153   2   0.50000    -0.1150000    0.1150000   2.431434e-04  1.541678e-07
    152    145   2   0.50000     0.1150000   -0.1150000   2.431434e-04  1.541678e-07
    152    153   2   0.50000     0.1150000    0.1150000   5.042375e-05  1.012808e-08
    143    154   2   0.50000    -0.1150000    0.1150000   2.431434e-04  1.541678e-07
    153    140   2   0.50000     0.1150000   -0.0418000   2.431434e-04  1.541678e-07
    153    154   2   0.50000     0.1150000    0.1150000   5.042375e-05  1.012808e-08
    139    156   2   0.50000     0.2118000    0.2118000   1.015252e-03  1.866303e-06
    139    164   2   0.50000     0.2118000    0.0300000   2.494471e-04  1.671101e-07
    139    165   2   0.50000     0.2118000    0.0300000   2.494471e-04  1.671101e-07
    146    157   2   0.50000    -0.4000000   -0.0418000   9.038862e-04  9.862632e-07
    146    163   2   0.50000    -0.4000000   -0.4000000   6.968474e-04  4.145011e-07
    146    166   2   0.50000    -0.4000000    0.0300000   2.066619e-04  7.875431e-08
    164    157   2   0.50000     0.0300000   -0.0418000   2.680627e-04  1.873879e-07
    164    163   2   0.50000     0.0300000   -0.4000000   2.066619e-04  7.875431e-08
    164    166   2   0.50000     0.0300000    0.0300000   6.128906e-05  1.496315e-08
    165    157   2   0.50000     0.0300000   -0.0418000   2.680627e-04  1.873879e-07
    165    163   2   0.50000     0.0300000   -0.4000000   2.066619e-04  7.875431e-08
    165    166   2   0.50000     0.0300000    0.0300000   6.128906e-05  1.496315e-08
    155    158   2   0.50000     0.1400000   -0.1150000   1.091018e-03  2.092768e-06
    155    162   2   0.50000     0.1400000   -0.1150000   1.091018e-03  2.092768e-06
    163    158   2   0.50000    -0.4000000   -0.1150000   9.038862e-04  9.862632e-07
    163    162   2   0.50000    -0.4000000   -0.1150000   9.038862e-04  9.862632e-07
    166    158   2   0.50000     0.0300000   -0.1150000   2.680627e-04  1.873879e-07
    166    162   2   0.50000     0.0300000   -0.1150000   2.680627e-04  1.873879e-07
    155    172   2   0.50000     0.1400000    0.1400000   1.015252e-03  1.866303e-06
    157    172   2   0.50000    -0.0418000    0.1400000   1.091018e-03  2.092768e-06
    166    172   2   0.50000     0.0300000    0.1400000   2.494471e-04  1.671101e-07
    156    159   2   0.50000     0.2118000   -0.1150000   1.091018e-03  2.092768e-06
    156    167   2   0.50000     0.2118000    0.1150000   2.262583e-04  1.374848e-07
    162    159   2   0.50000    -0.1150000   -0.1150000   1.172438e-03  2.346713e-06
    162    167   2   0.50000    -0.1150000    0.1150000   2.431434e-04  1.541678e-07
    156    161   2   0.50000     0.2118000   -0.1150000   1.091018e-03  2.092768e-06
    156    171   2   0.50000     0.2118000    0.1150000   2.262583e-04  1.374848e-07
    158    161   2   0.50000    -0.1150000   -0.1150000   1.172438e-03  2.346713e-06
    158    171   2   0.50000    -0.1150000    0.1150000   2.431434e-04  1.541678e-07
    157    160   2   0.50000    -0.0418000   -0.1150000   1.172438e-03  2.346713e-06
    157    168   2   0.50000    -0.0418000    0.1150000   2.431434e-04  1.541678e-07
    167    160   2   0.50000     0.1150000   -0.1150000   2.431434e-04  1.541678e-07
    167    168   2   0.50000     0.1150000    0.1150000   5.042375e-05  1.012808e-08
    158    169   2   0.50000    -0.1150000    0.1150000   2.431434e-04  1.541678e-07
    168    161   2   0.50000     0.1150000   -0.1150000   2.431434e-04  1.541678e-07
    168    169   2   0.50000     0.1150000    0.1150000   5.042375e-05  1.012808e-08
    159    170   2   0.50000    -0.1150000    0.1150000   2.431434e-04  1.541678e-07
    169    162   2   0.50000     0.1150000   -0.1150000   2.431434e-04  1.541678e-07
    169    170   2   0.50000     0.1150000    0.1150000   5.042375e-05  1.012808e-08
    160    171   2   0.50000    -0.1150000    0.1150000   2.431434e-04  1.541678e-07
    170    157   2   0.50000     0.1150000   -0.0418000   2.431434e-04  1.541678e-07
    170    171   2   0.50000     0.1150000    0.1150000   5.042375e-05  1.012808e-08
    156    173   2   0.50000     0.2118000    0.2118000   1.015252e-03  1.866303e-06
    156    181   2   0.50000     0.2118000    0.0300000   2.494471e-04  1.671101e-07
    156    182   2   0.50000     0.2118000    0.0300000   2.494471e-04  1.671101e-07
    163    174   2   0.50000    -0.4000000   -0.0418000   9.038862e-04  9.862632e-07
    163    180   2   0.50000    -0.4000000   -0.4000000   6.968474e-04  4.145011e-07
    163    183   2   0.50000    -0.4000000    0.0300000   2.066619e-04  7.875431e-08
    181    174   2   0.50000     0.0300000   -0.0418000   2.680627e-04  1.873879e-07
    181    180   2   0.50000     0.0300000   -0.4000000   2.066619e-04  7.875431e-08
    181    183   2   0.50000     0.0300000    0.0300000   6.128906e-05  1.496315e-08
    182    174   2   0.50000     0.0300000   -0.0418000   2.680627e-04  1.873879e-07
    182    180   2   0.50000     0.0300000   -0.4000000   2.066619e-04  7.875431e-08
    182    183   2   0.50000     0.0300000    0.0300000   6.128906e-05  1.496315e-08
    172    175   2   0.50000     0.1400000   -0.1150000   1.091018e-03  2.092768e-06
    172    179   2   0.50000     0.1400000   -0.1150000   1.091018e-03  2.092768e-06
    180    175   2   0.50000    -0.4000000   -0.1150000   9.038862e-04  9.862632e-07
    180    179   2   0.50000    -0.4000000   -0.1150000   9.038862e-04  9.862632e-07
    183    175   2   0.50000     0.0300000   -0.1150000   2.680627e-04  1.873879e-07
    183    179   2   0.50000     0.0300000   -0.1150000   2.680627e-04  1.873879e-07
    172    189   2   0.50000     0.1400000    0.1400000   1.015252e-03  1.866303e-06
    174    189   2   0.50000    -0.0418000    0.1400000   1.091018e-03  2.092768e-06
    183    189   2   0.50000     0.0300000    0.1400000   2.494471e-04  1.671101e-07
    173    176   2   0.50000     0.2118000   -0.1150000   1.091018e-03  2.092768e-06
    173    184   2   0.50000     0.2118000    0.1150000   2.262583e-04  1.374848e-07
    179    176   2   0.50000    -0.1150000   -0.1150000   1.172438e-03  2.346713e-06
    179    184   2   0.50000    -0.1150000    0.1150000   2.431434e-04  1.541678e-07
    173    178   2   0.50000     0.2118000   -0.1150000   1.091018e-03  2.092768e-06
    173    188   2   0.50000     0.2118000    0.1150000   2.262583e-04  1.374848e-07
    175    178   2   0.50000    -0.1150000   -0.1150000   1.172438e-03  2.346713e-06
    175    188   2   0.50000    -0.1150000    0.1150000   2.431434e-04  1.541678e-07
    174    177   2   0.50000    -0.0418000   -0.1150000   1.172438e-03  2.346713e-06
    174    185   2   0.50000    -0.0418000    0.1150000   2.431434e-04  1.541678e-07
    184    177   2   0.50000     0.1150000   -0.1150000   2.431434e-04  1.541678e-07
    184    185   2   0.50000     0.1150000    0.1150000   5.042375e-05  1.012808e-08
    175    186   2   0.50000    -0.1150000    0.1150000   2.431434e-04  1.541678e-07
    185    178   2   0.50000     0.1150000   -0.1150000   2.431434e-04  1.541678e-07
    185    186   2   0.50000     0.1150000    0.1150000   5.042375e-05  1.012808e-08
    176    187   2   0.50000    -0.1150000    0.1150000   2.431434e-04  1.541678e-07
    186    179   2   0.50000     0.1150000   -0.1150000   2.431434e-04  1.541678e-07
    186    187   2   0.50000     0.1150000    0.1150000   5.042375e-05  1.012808e-08
    177    188   2   0.50000    -0.1150000    0.1150000   2.431434e-04  1.541678e-07
    187    174   2   0.50000     0.1150000   -0.0418000   2.431434e-04  1.541678e-07
    187    188   2   0.50000     0.1150000    0.1150000   5.042375e-05  1.012808e-08
    173    190   2   0.50000     0.2118000    0.2118000   1.015252e-03  1.866303e-06
    173    198   2   0.50000     0.2118000    0.0300000   2.494471e-04  1.671101e-07
    173    199   2   0.50000     0.2118000    0.0300000   2.494471e-04  1.671101e-07
    180    191   2   0.50000    -0.4000000   -0.0418000   9.038862e-04  9.862632e-07
    180    197   2   0.50000    -0.4000000   -0.4000000   6.968474e-04  4.145011e-07
    180    200   2   0.50000    -0.4000000    0.0300000   2.066619e-04  7.875431e-08
    198    191   2   0.50000     0.0300000   -0.0418000   2.680627e-04  1.873879e-07
    198    197   2   0.50000     0.0300000   -0.4000000   2.066619e-04  7.875431e-08
    198    200   2   0.50000     0.0300000    0.0300000   6.128906e-05  1.496315e-08
    199    191   2   0.50000     0.0300000   -0.0418000   2.680627e-04  1.873879e-07
    199    197   2   0.50000     0.0300000   -0.4000000   2.066619e-04  7.875431e-08
    199    200   2   0.50000     0.0300000    0.0300000   6.128906e-05  1.496315e-08
    189    192   2   0.50000     0.1400000   -0.1150000   1.091018e-03  2.092768e-06
    189    196   2   0.50000     0.1400000   -0.1150000   1.091018e-03  2.092768e-06
    197    192   2   0.50000    -0.4000000   -0.1150000   9.038862e-04  9.862632e-07
    197    196   2   0.50000    -0.4000000   -0.1150000   9.038862e-04  9.862632e-07
    200    192   2   0.50000     0.0300000   -0.1150000   2.680627e-04  1.873879e-07
    200    196   2   0.50000     0.0300000   -0.1150000   2.680627e-04  1.873879e-07
    189    206   2   0.50000     0.1400000    0.1400000   1.015252e-03  1.866303e-06
    191    206   2   0.50000    -0.0418000    0.1400000   1.091018e-03  2.092768e-06
    200    206   2   0.50000     0.0300000    0.1400000   2.494471e-04  1.671101e-07
    190    193   2   0.50000     0.2118000   -0.1150000   1.091018e-03  2.092768e-06
    190    201   2   0.50000     0.2118000    0.1150000   2.262583e-04  1.374848e-07
    196    193   2   0.50000    -0.1150000   -0.1150000   1.172438e-03  2.346713e-06
    196    201   2   0.50000    -0.1150000    0.1150000   2.431434e-04  1.541678e-07
    190    195   2   0.50000     0.2118000   -0.1150000   1.091018e-03  2.092768e-06
    190    205   2   0.50000     0.2118000    0.1150000   2.262583e-04  1.374848e-07
    192    195   2   0.50000    -0.1150000   -0.1150000   1.172438e-03  2.346713e-06
    192    205   2   0.50000    -0.1150000    0.1150000   2.431434e-04  1.541678e-07
    191    194   2   0.50000    -0.0418000   -0.1150000   1.172438e-03  2.346713e-06
    191    202   2   0.50000    -0.0418000    0.1150000   2.431434e-04  1.541678e-07
    201    194   2   0.50000     0.1150000   -0.1150000   2.431434e-04  1.541678e-07
    201    202   2   0.50000     0.1150000    0.1150000   5.042375e-05  1.012808e-08
    192    203   2   0.50000    -0.1150000    0.1150000   2.431434e-04  1.541678e-07
    202    195   2   0.50000     0.1150000   -0.1150000   2.431434e-04  1.541678e-07
    202    203   2   0.50000     0.1150000    0.1150000   5.042375e-05  1.012808e-08
    193    204   2   0.50000    -0.1150000    0.1150000   2.431434e-04  1.541678e-07
    203    196   2   0.50000     0.1150000   -0.1150000   2.431434e-04  1.541678e-07
    203    204   2   0.50000     0.1150000    0.1150000   5.042375e-05  1.012808e-08
    194    205   2   0.50000    -0.1150000    0.1150000   2.431434e-04  1.541678e-07
    204    191   2   0.50000     0.1150000   -0.0418000   2.431434e-04  1.541678e-07
    204    205   2   0.50000     0.1150000    0.1150000   5.042375e-05  1.012808e-08
    190    207   2   0.50000     0.2118000    0.2118000   1.015252e-03  1.866303e-06
    190    215   2   0.50000     0.2118000    0.0300000   2.494471e-04  1.671101e-07
    190    216   2   0.50000     0.2118000    0.0300000   2.494471e-04  1.671101e-07
    197    208   2   0.50000    -0.4000000   -0.0418000   9.038862e-04  9.862632e-07
    197    214   2   0.50000    -0.4000000   -0.4000000   6.968474e-04  4.145011e-07
    197    217   2   0.50000    -0.4000000    0.0300000   2.066619e-04  7.875431e-08
    215    208   2   0.50000     0.0300000   -0.0418000   2.680627e-04  1.873879e-07
    215    214   2   0.50000     0.0300000   -0.4000000   2.066619e-04  7.875431e-08
    215    217   2   0.50000     0.0300000    0.0300000   6.128906e-05  1.496315e-08
    216    208   2   0.50000     0.0300000   -0.0418000   2.680627e-04  1.873879e-07
    216    214   2   0.50000     0.0300000   -0.4000000   2.066619e-04  7.875431e-08
    216    217   2   0.50000     0.0300000    0.0300000   6.128906e-05  1.496315e-08
    206    209   2   0.50000     0.1400000   -0.1150000   1.091018e-03  2.092768e-06
    206    213   2   0.50000     0.1400000   -0.1150000   1.091018e-03  2.092768e-06
    214    209   2   0.50000    -0.4000000   -0.1150000   9.038862e-04  9.862632e-07
    214    213   2   0.50000    -0.4000000   -0.1150000   9.038862e-04  9.862632e-07
    217    209   2   0.50000     0.0300000   -0.1150000   2.680627e-04  1.873879e-07
    217    213   2   0.50000     0.0300000   -0.1150000   2.680627e-04  1.873879e-07
    206    223   2   0.50000     0.1400000    0.1400000   1.015252e-03  1.866303e-06
    208    223   2   0.50000    -0.0418000    0.1400000   1.091018e-03  2.092768e-06
    217    223   2   0.50000     0.0300000    0.1400000   2.494471e-04  1.671101e-07
    207    210   2   0.50000     0.2118000   -0.1150000   1.091018e-03  2.092768e-06
    207    218   2   0.50000     0.2118000    0.1150000   2.262583e-04  1.374848e-07
    213    210   2   0.50000    -0.1150000   -0.1150000   1.172438e-03  2.346713e-06
    213    218   2   0.50000    -0.1150000    0.1150000   2.431434e-04  1.541678e-07
    207    212   2   0.50000     0.2118000   -0.1150000   1.091018e-03  2.092768e-06
    207    222   2   0.50000     0.2118000    0.1150000   2.262583e-04  1.374848e-07
    209    212   2   0.50000    -0.1150000   -0.1150000   1.172438e-03  2.346713e-06
    209    222   2   0.50000    -0.1150000    0.1150000   2.431434e-04  1.541678e-07
    208    211   2   0.50000    -0.0418000   -0.1150000   1.172438e-03  2.346713e-06
    208    219   2   0.50000    -0.0418000    0.1150000   2.431434e-04  1.541678e-07
    218    211   2   0.50000     0.1150000   -0.1150000   2.431434e-04  1.541678e-07
    218    219   2   0.50000     0.1150000    0.1150000   5.042375e-05  1.012808e-08
    209    220   2   0.50000    -0.1150000    0.1150000   2.431434e-04  1.541678e-07
    219    212   2   0.50000     0.1150000   -0.1150000   2.431434e-04  1.541678e-07
    219    220   2   0.50000     0.1150000    0.1150000   5.042375e-05  1.012808e-08
    210    221   2   0.50000    -0.1150000    0.1150000   2.431434e-04  1.541678e-07
    220    213   2   0.50000     0.1150000   -0.1150000   2.431434e-04  1.541678e-07
    220    221   2   0.50000     0.1150000    0.1150000   5.042375e-05  1.012808e-08
    211    222   2   0.50000    -0.1150000    0.1150000   2.431434e-04  1.541678e-07
    221    208   2   0.50000     0.1150000   -0.0418000   2.431434e-04  1.541678e-07
    221    222   2   0.50000     0.1150000    0.1150000   5.042375e-05  1.012808e-08
    207    224   2   0.50000     0.2118000    0.2118000   1.015252e-03  1.866303e-06
    207    232   2   0.50000     0.2118000    0.0300000   2.494471e-04  1.671101e-07
    207    233   2   0.50000     0.2118000    0.0300000   2.494471e-04  1.671101e-07
    214    225   2   0.50000    -0.4000000   -0.0418000   9.038862e-04  9.862632e-07
    214    231   2   0.50000    -0.4000000   -0.4000000   6.968474e-04  4.145011e-07
    214    234   2   0.50000    -0.4000000    0.0300000   2.066619e-04  7.875431e-08
    232    225   2   0.50000     0.0300000   -0.0418000   2.680627e-04  1.873879e-07
    232    231   2   0.50000     0.0300000   -0.4000000   2.066619e-04  7.875431e-08
    232    234   2   0.50000     0.0300000    0.0300000   6.128906e-05  1.496315e-08
    233    225   2   0.50000     0.0300000   -0.0418000   2.680627e-04  1.873879e-07
    233    231   2   0.50000     0.0300000   -0.4000000   2.066619e-04  7.875431e-08
    233    234   2   0.50000     0.0300000    0.0300000   6.128906e-05  1.496315e-08
    223    226   2   0.50000     0.1400000   -0.1150000   1.091018e-03  2.092768e-06
    223    230   2   0.50000     0.1400000   -0.1150000   1.091018e-03  2.092768e-06
    231    226   2   0.50000    -0.4000000   -0.1150000   9.038862e-04  9.862632e-07
    231    230   2   0.50000    -0.4000000   -0.1150000   9.038862e-04  9.862632e-07
    234    226   2   0.50000     0.0300000   -0.1150000   2.680627e-04  1.873879e-07
    234    230   2   0.50000     0.0300000   -0.1150000   2.680627e-04  1.873879e-07
    223    240   2   0.50000     0.1400000    0.1400000   1.015252e-03  1.866303e-06
    225    240   2   0.50000    -0.0418000    0.1400000   1.091018e-03  2.092768e-06
    234    240   2   0.50000     0.0300000    0.1400000   2.494471e-04  1.671101e-07
    224    227   2   0.50000     0.2118000   -0.1150000   1.091018e-03  2.092768e-06
    224    235   2   0.50000     0.2118000    0.1150000   2.262583e-04  1.374848e-07
    230    227   2   0.50000    -0.1150000   -0.1150000   1.172438e-03  2.346713e-06
    230    235   2   0.50000    -0.1150000    0.1150000   2.431434e-04  1.541678e-07
    224    229   2   0.50000     0.2118000   -0.1150000   1.091018e-03  2.092768e-06
    224    239   2   0.50000     0.2118000    0.1150000   2.262583e-04  1.374848e-07
    226    229   2   0.50000    -0.1150000   -0.1150000   1.172438e-03  2.346713e-06
    226    239   2   0.50000    -0.1150000    0.1150000   2.431434e-04  1.541678e-07
    225    228   2   0.50000    -0.0418000   -0.1150000   1.172438e-03  2.346713e-06
    225    236   2   0.50000    -0.0418000    0.1150000   2.431434e-04  1.541678e-07
    235    228   2   0.50000     0.1150000   -0.1150000   2.431434e-04  1.541678e-07
    235    236   2   0.50000     0.1150000    0.1150000   5.042375e-05  1.012808e-08
    226    237   2   0.50000    -0.1150000    0.1150000   2.431434e-04  1.541678e-07
    236    229   2   0.50000     0.1150000   -0.1150000   2.431434e-04  1.541678e-07
    236    237   2   0.50000     0.1150000    0.1150000   5.042375e-05  1.012808e-08
    227    238   2   0.50000    -0.1150000    0.1150000   2.431434e-04  1.541678e-07
    237    230   2   0.50000     0.1150000   -0.1150000   2.431434e-04  1.541678e-07
    237    238   2   0.50000     0.1150000    0.1150000   5.042375e-05  1.012808e-08
    228    239   2   0.50000    -0.1150000    0.1150000   2.431434e-04  1.541678e-07
    238    225   2   0.50000     0.1150000   -0.0418000   2.431434e-04  1.541678e-07
    238    239   2   0.50000     0.1150000    0.1150000   5.042375e-05  1.012808e-08
    224    241   2   0.50000     0.2118000    0.2118000   1.015252e-03  1.866303e-06
    224    249   2   0.50000     0.2118000    0.0300000   2.494471e-04  1.671101e-07
    224    250   2   0.50000     0.2118000    0.0300000   2.494471e-04  1.671101e-07
    231    242   2   0.50000    -0.4000000   -0.0418000   9.038862e-04  9.862632e-07
    231    248   2   0.50000    -0.4000000   -0.4000000   6.968474e-04  4.145011e-07
    231    251   2   0.50000    -0.4000000    0.0300000   2.066619e-04  7.875431e-08
    249    242   2   0.50000     0.0300000   -0.0418000   2.680627e-04  1.873879e-07
    249    248   2   0.50000     0.0300000   -0.4000000   2.066619e-04  7.875431e-08
    249    251   2   0.50000     0.0300000    0.0300000   6.128906e-05  1.496315e-08
    250    242   2   0.50000     0.0300000   -0.0418000   2.680627e-04  1.873879e-07
    250    248   2   0.50000     0.0300000   -0.4000000   2.066619e-04  7.875431e-08
    250    251   2   0.50000     0.0300000    0.0300000   6.128906e-05  1.496315e-08
    240    243   2   0.50000     0.1400000   -0.1150000   1.091018e-03  2.092768e-06
    240    247   2   0.50000     0.1400000   -0.1150000   1.091018e-03  2.092768e-06
    248    243   2   0.50000    -0.4000000   -0.1150000   9.038862e-04  9.862632e-07
    248    247   2   0.50000    -0.4000000   -0.1150000   9.038862e-04  9.862632e-07
    251    243   2   0.50000     0.0300000   -0.1150000   2.680627e-04  1.873879e-07
    251    247   2   0.50000     0.0300000   -0.1150000   2.680627e-04  1.873879e-07
    240    257   2   0.50000     0.1400000    0.1400000   1.015252e-03  1.866303e-06
    242    257   2   0.50000    -0.0418000    0.1400000   1.091018e-03  2.092768e-06
    251    257   2   0.50000     0.0300000    0.1400000   2.494471e-04  1.671101e-07
    241    244   2   0.50000     0.2118000   -0.1150000   1.091018e-03  2.092768e-06
    241    252   2   0.50000     0.2118000    0.1150000   2.262583e-04  1.374848e-07
    247    244   2   0.50000    -0.1150000   -0.1150000   1.172438e-03  2.346713e-06
    247    252   2   0.50000    -0.1150000    0.1150000   2.431434e-04  1.541678e-07
    241    246   2   0.50000     0.2118000   -0.1150000   1.091018e-03  2.092768e-06
    241    256   2   0.50000     0.2118000    0.1150000   2.262583e-04  1.374848e-07
    243    246   2   0.50000    -0.1150000   -0.1150000   1.172438e-03  2.346713e-06
    243    256   2   0.50000    -0.1150000    0.1150000   2.431434e-04  1.541678e-07
    242    245   2   0.50000    -0.0418000   -0.1150000   1.172438e-03  2.346713e-06
    242    253   2   0.50000    -0.0418000    0.1150000   2.431434e-04  1.541678e-07
    252    245   2   0.50000     0.1150000   -0.1150000   2.431434e-04  1.541678e-07
    252    253   2   0.50000     0.1150000    0.1150000   5.042375e-05  1.012808e-08
    243    254   2   0.50000    -0.1150000    0.1150000   2.431434e-04  1.541678e-07
    253    246   2   0.50000     0.1150000   -0.1150000   2.431434e-04  1.541678e-07
    253    254   2   0.50000     0.1150000    0.1150000   5.042375e-05  1.012808e-08
    244    255   2   0.50000    -0.1150000    0.1150000   2.431434e-04  1.541678e-07
    254    247   2   0.50000     0.1150000   -0.1150000   2.431434e-04  1.541678e-07
    254    255   2   0.50000     0.1150000    0.1150000   5.042375e-05  1.012808e-08
    245    256   2   0.50000    -0.1150000    0.1150000   2.431434e-04  1.541678e-07
    255    242   2   0.50000     0.1150000   -0.0418000   2.431434e-04  1.541678e-07
    255    256   2   0.50000     0.1150000    0.1150000   5.042375e-05  1.012808e-08
    241    258   2   0.50000     0.2118000    0.2118000   1.015252e-03  1.866303e-06
    241    266   2   0.50000     0.2118000    0.0300000   2.494471e-04  1.671101e-07
    241    267   2   0.50000     0.2118000    0.0300000   2.494471e-04  1.671101e-07
    248    259   2   0.50000    -0.4000000   -0.0418000   9.038862e-04  9.862632e-07
    248    265   2   0.50000    -0.4000000   -0.4000000   6.968474e-04  4.145011e-07
    248    268   2   0.50000    -0.4000000    0.0300000   2.066619e-04  7.875431e-08
    266    259   2   0.50000     0.0300000   -0.0418000   2.680627e-04  1.873879e-07
    266    265   2   0.50000     0.0300000   -0.4000000   2.066619e-04  7.875431e-08
    266    268   2   0.50000     0.0300000    0.0300000   6.128906e-05  1.496315e-08
    267    259   2   0.50000     0.0300000   -0.0418000   2.680627e-04  1.873879e-07
    267    265   2   0.50000     0.0300000   -0.4000000   2.066619e-04  7.875431e-08
    267    268   2   0.50000     0.0300000    0.0300000   6.128906e-05  1.496315e-08
    257    260   2   0.50000     0.1400000   -0.1150000   1.091018e-03  2.092768e-06
    257    264   2   0.50000     0.1400000   -0.1150000   1.091018e-03  2.092768e-06
    265    260   2   0.50000    -0.4000000   -0.1150000   9.038862e-04  9.862632e-07
    265    264   2   0.50000    -0.4000000   -0.1150000   9.038862e-04  9.862632e-07
    268    260   2   0.50000     0.0300000   -0.1150000   2.680627e-04  1.873879e-07
    268    264   2   0.50000     0.0300000   -0.1150000   2.680627e-04  1.873879e-07
    257    274   2   0.50000     0.1400000    0.1400000   1.015252e-03  1.866303e-06
    259    274   2   0.50000    -0.0418000    0.1400000   1.091018e-03  2.092768e-06
    268    274   2   0.50000     0.0300000    0.1400000   2.494471e-04  1.671101e-07
    258    261   2   0.50000     0.2118000   -0.1150000   1.091018e-03  2.092768e-06
    258    269   2   0.50000     0.2118000    0.1150000   2.262583e-04  1.374848e-07
    264    261   2   0.50000    -0.1150000   -0.1150000   1.172438e-03  2.346713e-06
    264    269   2   0.50000    -0.1150000    0.1150000   2.431434e-04  1.541678e-07
    258    263   2   0.50000     0.2118000   -0.1150000   1.091018e-03  2.092768e-06
    258    273   2   0.50000     0.2118000    0.1150000   2.262583e-04  1.374848e-07
    260    263   2   0.50000    -0.1150000   -0.1150000   1.172438e-03  2.346713e-06
    260    273   2   0.50000    -0.1150000    0.1150000   2.431434e-04  1.541678e-07
    259    262   2   0.50000    -0.0418000   -0.1150000   1.172438e-03  2.346713e-06
    259    270   2   0.50000    -0.0418000    0.1150000   2.431434e-04  1.541678e-07
    269    262   2   0.50000     0.1150000   -0.1150000   2.431434e-04  1.541678e-07
    269    270   2   0.50000     0.1150000    0.1150000   5.042375e-05  1.012808e-08
    260    271   2   0.50000    -0.1150000    0.1150000   2.431434e-04  1.541678e-07
    270    263   2   0.50000     0.1150000   -0.1150000   2.431434e-04  1.541678e-07
    270    271   2   0.50000     0.1150000    0.1150000   5.042375e-05  1.012808e-08
    261    272   2   0.50000    -0.1150000    0.1150000   2.431434e-04  1.541678e-07
    271    264   2   0.50000     0.1150000   -0.1150000   2.431434e-04  1.541678e-07
    271    272   2   0.50000     0.1150000    0.1150000   5.042375e-05  1.012808e-08
    262    273   2   0.50000    -0.1150000    0.1150000   2.431434e-04  1.541678e-07
    272    259   2   0.50000     0.1150000   -0.0418000   2.431434e-04  1.541678e-07
    272    273   2   0.50000     0.1150000    0.1150000   5.042375e-05  1.012808e-08
    258    275   2   0.50000     0.2118000    0.2118000   1.015252e-03  1.866303e-06
    258    283   2   0.50000     0.2118000    0.0300000   2.494471e-04  1.671101e-07
    258    284   2   0.50000     0.2118000    0.0300000   2.494471e-04  1.671101e-07
    265    276   2   0.50000    -0.4000000   -0.0418000   9.038862e-04  9.862632e-07
    265    282   2   0.50000    -0.4000000   -0.4000000   6.968474e-04  4.145011e-07
    265    285   2   0.50000    -0.4000000    0.0300000   2.066619e-04  7.875431e-08
    283    276   2   0.50000     0.0300000   -0.0418000   2.680627e-04  1.873879e-07
    283    282   2   0.50000     0.0300000   -0.4000000   2.066619e-04  7.875431e-08
    283    285   2   0.50000     0.0300000    0.0300000   6.128906e-05  1.496315e-08
    284    276   2   0.50000     0.0300000   -0.0418000   2.680627e-04  1.873879e-07
    284    282   2   0.50000     0.0300000   -0.4000000   2.066619e-04  7.875431e-08
    284    285   2   0.50000     0.0300000    0.0300000   6.128906e-05  1.496315e-08
    274    277   2   0.50000     0.1400000   -0.1150000   1.091018e-03  2.092768e-06
    274    281   2   0.50000     0.1400000   -0.1150000   1.091018e-03  2.092768e-06
    282    277   2   0.50000    -0.4000000   -0.1150000   9.038862e-04  9.862632e-07
    282    281   2   0.50000    -0.4000000   -0.1150000   9.038862e-04  9.862632e-07
    285    277   2   0.50000     0.0300000   -0.1150000   2.680627e-04  1.873879e-07
    285    281   2   0.50000     0.0300000   -0.1150000   2.680627e-04  1.873879e-07
    274    291   2   0.50000     0.1400000    0.1400000   1.015252e-03  1.866303e-06
    276    291   2   0.50000    -0.0418000    0.1400000   1.091018e-03  2.092768e-06
    285    291   2   0.50000     0.0300000    0.1400000   2.494471e-04  1.671101e-07
    275    278   2   0.50000     0.2118000   -0.1150000   1.091018e-03  2.092768e-06
    275    286   2   0.50000     0.2118000    0.1150000   2.262583e-04  1.374848e-07
    281    278   2   0.50000    -0.1150000   -0.1150000   1.172438e-03  2.346713e-06
    281    286   2   0.50000    -0.1150000    0.1150000   2.431434e-04  1.541678e-07
    275    280   2   0.50000     0.2118000   -0.1150000   1.091018e-03  2.092768e-06
    275    290   2   0.50000     0.2118000    0.1150000   2.262583e-04  1.374848e-07
    277    280   2   0.50000    -0.1150000   -0.1150000   1.172438e-03  2.346713e-06
    277    290   2   0.50000    -0.1150000    0.1150000   2.431434e-04  1.541678e-07
    276    279   2   0.50000    -0.0418000   -0.1150000   1.172438e-03  2.346713e-06
    276    287   2   0.50000    -0.0418000    0.1150000   2.431434e-04  1.541678e-07
    286    279   2   0.50000     0.1150000   -0.1150000   2.431434e-04  1.541678e-07
    286    287   2   0.50000     0.1150000    0.1150000   5.042375e-05  1.012808e-08
    277    288   2   0.50000    -0.1150000    0.1150000   2.431434e-04  1.541678e-07
    287    280   2   0.50000     0.1150000   -0.1150000   2.431434e-04  1.541678e-07
    287    288   2   0.50000     0.1150000    0.1150000   5.042375e-05  1.012808e-08
    278    289   2   0.50000    -0.1150000    0.1150000   2.431434e-04  1.541678e-07
    288    281   2   0.50000     0.1150000   -0.1150000   2.431434e-04  1.541678e-07
    288    289   2   0.50000     0.1150000    0.1150000   5.042375e-05  1.012808e-08
    279    290   2   0.50000    -0.1150000    0.1150000   2.431434e-04  1.541678e-07
    289    276   2   0.50000     0.1150000   -0.0418000   2.431434e-04  1.541678e-07
    289    290   2   0.50000     0.1150000    0.1150000   5.042375e-05  1.012808e-08
    275    292   2   0.50000     0.2118000    0.2118000   1.015252e-03  1.866303e-06
    275    300   2   0.50000     0.2118000    0.0300000   2.494471e-04  1.671101e-07
    275    301   2   0.50000     0.2118000    0.0300000   2.494471e-04  1.671101e-07
    282    293   2   0.50000    -0.4000000   -0.0418000   9.038862e-04  9.862632e-07
    282    299   2   0.50000    -0.4000000   -0.4000000   6.968474e-04  4.145011e-07
    282    302   2   0.50000    -0.4000000    0.0300000   2.066619e-04  7.875431e-08
    300    293   2   0.50000     0.0300000   -0.0418000   2.680627e-04  1.873879e-07
    300    299   2   0.50000     0.0300000   -0.4000000   2.066619e-04  7.875431e-08
    300    302   2   0.50000     0.0300000    0.0300000   6.128906e-05  1.496315e-08
    301    293   2   0.50000     0.0300000   -0.0418000   2.680627e-04  1.873879e-07
    301    299   2   0.50000     0.0300000   -0.4000000   2.066619e-04  7.875431e-08
    301    302   2   0.50000     0.0300000    0.0300000   6.128906e-05  1.496315e-08
    291    294   2   0.50000     0.1400000   -0.1150000   1.091018e-03  2.092768e-06
    291    298   2   0.50000     0.1400000   -0.1150000   1.091018e-03  2.092768e-06
    299    294   2   0.50000    -0.4000000   -0.1150000   9.038862e-04  9.862632e-07
    299    298   2   0.50000    -0.4000000   -0.1150000   9.038862e-04  9.862632e-07
    302    294   2   0.50000     0.0300000   -0.1150000   2.680627e-04  1.873879e-07
    302    298   2   0.50000     0.0300000   -0.1150000   2.680627e-04  1.873879e-07
    291    308   2   0.50000     0.1400000    0.1400000   1.015252e-03  1.866303e-06
    293    308   2   0.50000    -0.0418000    0.1400000   1.091018e-03  2.092768e-06
    302    308   2   0.50000     0.0300000    0.1400000   2.494471e-04  1.671101e-07
    292    295   2   0.50000     0.2118000   -0.1150000   1.091018e-03  2.092768e-06
    292    303   2   0.50000     0.2118000    0.1150000   2.262583e-04  1.374848e-07
    298    295   2   0.50000    -0.1150000   -0.1150000   1.172438e-03  2.346713e-06
    298    303   2   0.50000    -0.1150000    0.1150000   2.431434e-04  1.541678e-07
    292    297   2   0.50000     0.2118000   -0.1150000   1.091018e-03  2.092768e-06
    292    307   2   0.50000     0.2118000    0.1150000   2.262583e-04  1.374848e-07
    294    297   2   0.50000    -0.1150000   -0.1150000   1.172438e-03  2.346713e-06
    294    307   2   0.50000    -0.1150000    0.1150000   2.431434e-04  1.541678e-07
    293    296   2   0.50000    -0.0418000   -0.1150000   1.172438e-03  2.346713e-06
    293    304   2   0.50000    -0.0418000    0.1150000   2.431434e-04  1.541678e-07
    303    296   2   0.50000     0.1150000   -0.1150000   2.431434e-04  1.541678e-07
    303    304   2   0.50000     0.1150000    0.1150000   5.042375e-05  1.012808e-08
    294    305   2   0.50000    -0.1150000    0.1150000   2.431434e-04  1.541678e-07
    304    297   2   0.50000     0.1150000   -0.1150000   2.431434e-04  1.541678e-07
    304    305   2   0.50000     0.1150000    0.1150000   5.042375e-05  1.012808e-08
    295    306   2   0.50000    -0.1150000    0.1150000   2.431434e-04  1.541678e-07
    305    298   2   0.50000     0.1150000   -0.1150000   2.431434e-04  1.541678e-07
    305    306   2   0.50000     0.1150000    0.1150000   5.042375e-05  1.012808e-08
    296    307   2   0.50000    -0.1150000    0.1150000   2.431434e-04  1.541678e-07
    306    293   2   0.50000     0.1150000   -0.0418000   2.431434e-04  1.541678e-07
    306    307   2   0.50000     0.1150000    0.1150000   5.042375e-05  1.012808e-08
    292    309   2   0.50000     0.2118000    0.2118000   1.015252e-03  1.866303e-06
    292    317   2   0.50000     0.2118000    0.0300000   2.494471e-04  1.671101e-07
    292    318   2   0.50000     0.2118000    0.0300000   2.494471e-04  1.671101e-07
    299    310   2   0.50000    -0.4000000   -0.0418000   9.038862e-04  9.862632e-07
    299    316   2   0.50000    -0.4000000   -0.4000000   6.968474e-04  4.145011e-07
    299    319   2   0.50000    -0.4000000    0.0300000   2.066619e-04  7.875431e-08
    317    310   2   0.50000     0.0300000   -0.0418000   2.680627e-04  1.873879e-07
    317    316   2   0.50000     0.0300000   -0.4000000   2.066619e-04  7.875431e-08
    317    319   2   0.50000     0.0300000    0.0300000   6.128906e-05  1.496315e-08
    318    310   2   0.50000     0.0300000   -0.0418000   2.680627e-04  1.873879e-07
    318    316   2   0.50000     0.0300000   -0.4000000   2.066619e-04  7.875431e-08
    318    319   2   0.50000     0.0300000    0.0300000   6.128906e-05  1.496315e-08
    308    311   2   0.50000     0.1400000   -0.1150000   1.091018e-03  2.092768e-06
    308    315   2   0.50000     0.1400000   -0.1150000   1.091018e-03  2.092768e-06
    316    311   2   0.50000    -0.4000000   -0.1150000   9.038862e-04  9.862632e-07
    316    315   2   0.50000    -0.4000000   -0.1150000   9.038862e-04  9.862632e-07
    319    311   2   0.50000     0.0300000   -0.1150000   2.680627e-04  1.873879e-07
    319    315   2   0.50000     0.0300000   -0.1150000   2.680627e-04  1.873879e-07
    308    325   2   0.50000     0.1400000    0.1400000   1.015252e-03  1.866303e-06
    310    325   2   0.50000    -0.0418000    0.1400000   1.091018e-03  2.092768e-06
    319    325   2   0.50000     0.0300000    0.1400000   2.494471e-04  1.671101e-07
    309    312   2   0.50000     0.2118000   -0.1150000   1.091018e-03  2.092768e-06
    309    320   2   0.50000     0.2118000    0.1150000   2.262583e-04  1.374848e-07
    315    312   2   0.50000    -0.1150000   -0.1150000   1.172438e-03  2.346713e-06
    315    320   2   0.50000    -0.1150000    0.1150000   2.431434e-04  1.541678e-07
    309    314   2   0.50000     0.2118000   -0.1150000   1.091018e-03  2.092768e-06
    309    324   2   0.50000     0.2118000    0.1150000   2.262583e-04  1.374848e-07
    311    314   2   0.50000    -0.1150000   -0.1150000   1.172438e-03  2.346713e-06
    311    324   2   0.50000    -0.1150000    0.1150000   2.431434e-04  1.541678e-07
    310    313   2   0.50000    -0.0418000   -0.1150000   1.172438e-03  2.346713e-06
    310    321   2   0.50000    -0.0418000    0.1150000   2.431434e-04  1.541678e-07
    320    313   2   0.50000     0.1150000   -0.1150000   2.431434e-04  1.541678e-07
    320    321   2   0.50000     0.1150000    0.1150000   5.042375e-05  1.012808e-08
    311    322   2   0.50000    -0.1150000    0.1150000   2.431434e-04  1.541678e-07
    321    314   2   0.50000     0.1150000   -0.1150000   2.431434e-04  1.541678e-07
    321    322   2   0.50000     0.1150000    0.1150000   5.042375e-05  1.012808e-08
    312    323   2   0.50000    -0.1150000    0.1150000   2.431434e-04  1.541678e-07
    322    315   2   0.50000     0.1150000   -0.1150000   2.431434e-04  1.541678e-07
    322    323   2   0.50000     0.1150000    0.1150000   5.042375e-05  1.012808e-08
    313    324   2   0.50000    -0.1150000    0.1150000   2.431434e-04  1.541678e-07
    323    310   2   0.50000     0.1150000   -0.0418000   2.431434e-04  1.541678e-07
    323    324   2   0.50000     0.1150000    0.1150000   5.042375e-05  1.012808e-08
    309    326   2   0.50000     0.2118000    0.3200000   1.015252e-03  1.866303e-06
    309    334   2   0.50000     0.2118000    0.0300000   2.494471e-04  1.671101e-07
    309    335   2   0.50000     0.2118000    0.0300000   2.494471e-04  1.671101e-07
    316    327   2   0.50000    -0.4000000   -0.1150000   9.038862e-04  9.862632e-07
    316    333   2   0.50000    -0.4000000   -0.6830000   9.562422e-04  7.083138e-07
    316    336   2   0.50000    -0.4000000    0.0600000   2.066619e-04  7.875431e-08
    334    327   2   0.50000     0.0300000   -0.1150000   2.680627e-04  1.873879e-07
    334    333   2   0.50000     0.0300000   -0.6830000   2.835898e-04  1.345781e-07
    334    336   2   0.50000     0.0300000    0.0600000   6.128906e-05  1.496315e-08
    335    327   2   0.50000     0.0300000   -0.1150000   2.680627e-04  1.873879e-07
    335    333   2   0.50000     0.0300000   -0.6830000   2.835898e-04  1.345781e-07
    335    336   2   0.50000     0.0300000    0.0600000   6.128906e-05  1.496315e-08
    325    328   2   0.50000     0.1400000   -0.1150000   1.091018e-03  2.092768e-06
    325    332   2   0.50000     0.1400000   -0.1150000   1.091018e-03  2.092768e-06
    333    328   2   0.50000    -0.6830000   -0.1150000   1.240349e-03  1.685361e-06
    333    332   2   0.50000    -0.6830000   -0.1150000   1.240349e-03  1.685361e-06
    336    328   2   0.50000     0.0600000   -0.1150000   2.680627e-04  1.873879e-07
    336    332   2   0.50000     0.0600000   -0.1150000   2.680627e-04  1.873879e-07
    325    342   2   0.50000     0.1400000    0.4180000   1.995577e-06  1.069504e-11
    327    342   2   0.50000    -0.1150000    0.4180000   2.144502e-06  1.199282e-11
    336    342   2   0.50000     0.0600000    0.4180000   4.903125e-07  9.576416e-13
    326    329   2   0.50000     0.3200000   -0.1150000   1.091018e-03  2.092768e-06
    326    337   2   0.50000     0.3200000    0.1150000   2.262583e-04  1.374848e-07
    332    329   2   0.50000    -0.1150000   -0.1150000   1.172438e-03  2.346713e-06
    332    337   2   0.50000    -0.1150000    0.1150000   2.431434e-04  1.541678e-07
    326    331   2   0.50000     0.3200000   -0.1150000   1.091018e-03  2.092768e-06
    326    341   2   0.50000     0.3200000    0.1150000   2.262583e-04  1.374848e-07
    328    331   2   0.50000    -0.1150000   -0.1150000   1.172438e-03  2.346713e-06
    328    341   2   0.50000    -0.1150000    0.1150000   2.431434e-04  1.541678e-07
    327    330   2   0.50000    -0.1150000   -0.1150000   1.172438e-03  2.346713e-06
    327    338   2   0.50000    -0.1150000    0.1150000   2.431434e-04  1.541678e-07
    337    330   2   0.50000     0.1150000   -0.1150000   2.431434e-04  1.541678e-07
    337    338   2   0.50000     0.1150000    0.1150000   5.042375e-05  1.012808e-08
    328    339   2   0.50000    -0.1150000    0.1150000   2.431434e-04  1.541678e-07
    338    331   2   0.50000     0.1150000   -0.1150000   2.431434e-04  1.541678e-07
    338    339   2   0.50000     0.1150000    0.1150000   5.042375e-05  1.012808e-08
    329    340   2   0.50000    -0.1150000    0.1150000   2.431434e-04  1.541678e-07
    339    332   2   0.50000     0.1150000   -0.1150000   2.431434e-04  1.541678e-07
    339    340   2   0.50000     0.1150000    0.1150000   5.042375e-05  1.012808e-08
    330    341   2   0.50000    -0.1150000    0.1150000   2.431434e-04  1.541678e-07
    340    327   2   0.50000     0.1150000   -0.1150000   2.431434e-04  1.541678e-07
    340    341   2   0.50000     0.1150000    0.1150000   5.042375e-05  1.012808e-08

[ angles ]
; ai  aj  ak
      2      1     10   1    110.7000    313.8000
      2      1     11   1    110.7000    313.8000
      2      1     18   1    110.7000    313.8000
     10      1     11   1    107.8000    276.1440
     10      1     18   1    107.8000    276.1440
     11      1     18   1    107.8000    276.1440
      1      2      3   1    112.1750    585.7600
      1      2      9   1    109.5000    418.4000
      1      2     12   1    110.7000    313.8000
      3      2      9   1    111.8570    711.2800
      3      2     12   1    109.5000    292.8800
      9      2     12   1    109.5000    292.8800
      2      3      4   1    120.0000    585.7600
      2      3      8   1    120.0000    585.7600
      4      3      8   1    120.0000    527.1840
      3      4      5   1    120.0000    527.1840
      3      4     13   1    120.0000    292.8800
      5      4     13   1    120.0000    292.8800
      4      5      6   1    120.0000    527.1840
      4      5     14   1    120.0000    292.8800
      6      5     14   1    120.0000    292.8800
      5      6      7   1    120.0000    527.1840
      5      6     15   1    120.0000    292.8800
      7      6     15   1    120.0000    292.8800
      6      7      8   1    120.0000    527.1840
      6      7     16   1    120.0000    292.8800
      8      7     16   1    120.0000    292.8800
      3      8      7   1    120.0000    527.1840
      3      8     17   1    120.0000    292.8800
      7      8     17   1    120.0000    292.8800
      2      9     19   1    109.5000    502.0800
      9     19     20   1    109.5000    418.4000
      9     19     28   1    109.5000    292.8800
      9     19     29   1    109.5000    292.8800
     20     19     28   1    110.7000    313.8000
     20     19     29   1    110.7000    313.8000
     28     19     29   1    107.8000    276.1440
     19     20     21   1    112.1750    585.7600
     19     20     27   1    109.5000    418.4000
     19     20     30   1    110.7000    313.8000
     21     20     27   1    111.8570    711.2800
     21     20     30   1    109.5000    292.8800
     27     20     30   1    109.5000    292.8800
     20     21     22   1    120.0000    585.7600
     20     21     26   1    120.0000    585.7600
     22     21     26   1    120.0000    527.1840
     21     22     23   1    120.0000    527.1840
     21     22     31   1    120.0000    292.8800
     23     22     31   1    120.0000    292.8800
     22     23     24   1    120.0000    527.1840
     22     23     32   1    120.0000    292.8800
     24     23     32   1    120.0000    292.8800
     23     24     25   1    120.0000    527.1840
     23     24     33   1    120.0000    292.8800
     25     24     33   1    120.0000    292.8800
     24     25     26   1    120.0000    527.1840
     24     25     34   1    120.0000    292.8800
     26     25     34   1    120.0000    292.8800
     21     26     25   1    120.0000    527.1840
     21     26     35   1    120.0000    292.8800
     25     26     35   1    120.0000    292.8800
     20     27     36   1    109.5000    502.0800
     27     36     37   1    109.5000    418.4000
     27     36     45   1    109.5000    292.8800
     27     36     46   1    109.5000    292.8800
     37     36     45   1    110.7000    313.8000
     37     36     46   1    110.7000    313.8000
     45     36     46   1    107.8000    276.1440
     36     37     38   1    112.1750    585.7600
     36     37     44   1    109.5000    418.4000
     36     37     47   1    110.7000    313.8000
     38     37     44   1    111.8570    711.2800
     38     37     47   1    109.5000    292.8800
     44     37     47   1    109.5000    292.8800
     37     38     39   1    120.0000    585.7600
     37     38     43   1    120.0000    585.7600
     39     38     43   1    120.0000    527.1840
     38     39     40   1    120.0000    527.1840
     38     39     48   1    120.0000    292.8800
     40     39     48   1    120.0000    292.8800
     39     40     41   1    120.0000    527.1840
     39     40     49   1    120.0000    292.8800
     41     40     49   1    120.0000    292.8800
     40     41     42   1    120.0000    527.1840
     40     41     50   1    120.0000    292.8800
     42     41     50   1    120.0000    292.8800
     41     42     43   1    120.0000    527.1840
     41     42     51   1    120.0000    292.8800
     43     42     51   1    120.0000    292.8800
     38     43     42   1    120.0000    527.1840
     38     43     52   1    120.0000    292.8800
     42     43     52   1    120.0000    292.8800
     37     44     53   1    109.5000    502.0800
     44     53     54   1    109.5000    418.4000
     44     53     62   1    109.5000    292.8800
     44     53     63   1    109.5000    292.8800
     54     53     62   1    110.7000    313.8000
     54     53     63   1    110.7000    313.8000
     62     53     63   1    107.8000    276.1440
     53     54     55   1    112.1750    585.7600
     53     54     61   1    109.5000    418.4000
     53     54     64   1    110.7000    313.8000
     55     54     61   1    111.8570    711.2800
     55     54     64   1    109.5000    292.8800
     61     54     64   1    109.5000    292.8800
     54     55     56   1    120.0000    585.7600
     54     55     60   1    120.0000    585.7600
     56     55     60   1    120.0000    527.1840
     55     56     57   1    120.0000    527.1840
     55     56     65   1    120.0000    292.8800
     57     56     65   1    120.0000    292.8800
     56     57     58   1    120.0000    527.1840
     56     57     66   1    120.0000    292.8800
     58     57     66   1    120.0000    292.8800
     57     58     59   1    120.0000    527.1840
     57     58     67   1    120.0000    292.8800
     59     58     67   1    120.0000    292.8800
     58     59     60   1    120.0000    527.1840
     58     59     68   1    120.0000    292.8800
     60     59     68   1    120.0000    292.8800
     55     60     59   1    120.0000    527.1840
     55     60     69   1    120.0000    292.8800
     59     60     69   1    120.0000    292.8800
     54     61     70   1    109.5000    502.0800
     61     70     71   1    109.5000    418.4000
     61     70     79   1    109.5000    292.8800
     61     70     80   1    109.5000    292.8800
     71     70     79   1    110.7000    313.8000
     71     70     80   1    110.7000    313.8000
     79     70     80   1    107.8000    276.1440
     70     71     72   1    112.1750    585.7600
     70     71     78   1    109.5000    418.4000
     70     71     81   1    110.7000    313.8000
     72     71     78   1    111.8570    711.2800
     72     71     81   1    109.5000    292.8800
     78     71     81   1    109.5000    292.8800
     71     72     73   1    120.0000    585.7600
     71     72     77   1    120.0000    585.7600
     73     72     77   1    120.0000    527.1840
     72     73     74   1    120.0000    527.1840
     72     73     82   1    120.0000    292.8800
     74     73     82   1    120.0000    292.8800
     73     74     75   1    120.0000    527.1840
     73     74     83   1    120.0000    292.8800
     75     74     83   1    120.0000    292.8800
     74     75     76   1    120.0000    527.1840
     74     75     84   1    120.0000    292.8800
     76     75     84   1    120.0000    292.8800
     75     76     77   1    120.0000    527.1840
     75     76     85   1    120.0000    292.8800
     77     76     85   1    120.0000    292.8800
     72     77     76   1    120.0000    527.1840
     72     77     86   1    120.0000    292.8800
     76     77     86   1    120.0000    292.8800
     71     78     87   1    109.5000    502.0800
     78     87     88   1    109.5000    418.4000
     78     87     96   1    109.5000    292.8800
     78     87     97   1    109.5000    292.8800
     88     87     96   1    110.7000    313.8000
     88     87     97   1    110.7000    313.8000
     96     87     97   1    107.8000    276.1440
     87     88     89   1    112.1750    585.7600
     87     88     95   1    109.5000    418.4000
     87     88     98   1    110.7000    313.8000
     89     88     95   1    111.8570    711.2800
     89     88     98   1    109.5000    292.8800
     95     88     98   1    109.5000    292.8800
     88     89     90   1    120.0000    585.7600
     88     89     94   1    120.0000    585.7600
     90     89     94   1    120.0000    527.1840
     89     90     91   1    120.0000    527.1840
     89     90     99   1    120.0000    292.8800
     91     90     99   1    120.0000    292.8800
     90     91     92   1    120.0000    527.1840
     90     91    100   1    120.0000    292.8800
     92     91    100   1    120.0000    292.8800
     91     92     93   1    120.0000    527.1840
     91     92    101   1    120.0000    292.8800
     93     92    101   1    120.0000    292.8800
     92     93     94   1    120.0000    527.1840
     92     93    102   1    120.0000    292.8800
     94     93    102   1    120.0000    292.8800
     89     94     93   1    120.0000    527.1840
     89     94    103   1    120.0000    292.8800
     93     94    103   1    120.0000    292.8800
     88     95    104   1    109.5000    502.0800
     95    104    105   1    109.5000    418.4000
     95    104    113   1    109.5000    292.8800
     95    104    114   1    109.5000    292.8800
    105    104    113   1    110.7000    313.8000
    105    104    114   1    110.7000    313.8000
    113    104    114   1    107.8000    276.1440
    104    105    106   1    112.1750    585.7600
    104    105    112   1    109.5000    418.4000
    104    105    115   1    110.7000    313.8000
    106    105    112   1    111.8570    711.2800
    106    105    115   1    109.5000    292.8800
    112    105    115   1    109.5000    292.8800
    105    106    107   1    120.0000    585.7600
    105    106    111   1    120.0000    585.7600
    107    106    111   1    120.0000    527.1840
    106    107    108   1    120.0000    527.1840
    106    107    116   1    120.0000    292.8800
    108    107    116   1    120.0000    292.8800
    107    108    109   1    120.0000    527.1840
    107    108    117   1    120.0000    292.8800
    109    108    117   1    120.0000    292.8800
    108    109    110   1    120.0000    527.1840
    108    109    118   1    120.0000    292.8800
    110    109    118   1    120.0000    292.8800
    109    110    111   1    120.0000    527.1840
    109    110    119   1    120.0000    292.8800
    111    110    119   1    120.0000    292.8800
    106    111    110   1    120.0000    527.1840
    106    111    120   1    120.0000    292.8800
    110    111    120   1    120.0000    292.8800
    105    112    121   1    109.5000    502.0800
    112    121    122   1    109.5000    418.4000
    112    121    130   1    109.5000    292.8800
    112    121    131   1    109.5000    292.8800
    122    121    130   1    110.7000    313.8000
    122    121    131   1    110.7000    313.8000
    130    121    131   1    107.8000    276.1440
    121    122    123   1    112.1750    585.7600
    121    122    129   1    109.5000    418.4000
    121    122    132   1    110.7000    313.8000
    123    122    129   1    111.8570    711.2800
    123    122    132   1    109.5000    292.8800
    129    122    132   1    109.5000    292.8800
    122    123    124   1    120.0000    585.7600
    122    123    128   1    120.0000    585.7600
    124    123    128   1    120.0000    527.1840
    123    124    125   1    120.0000    527.1840
    123    124    133   1    120.0000    292.8800
    125    124    133   1    120.0000    292.8800
    124    125    126   1    120.0000    527.1840
    124    125    134   1    120.0000    292.8800
    126    125    134   1    120.0000    292.8800
    125    126    127   1    120.0000    527.1840
    125    126    135   1    120.0000    292.8800
    127    126    135   1    120.0000    292.8800
    126    127    128   1    120.0000    527.1840
    126    127    136   1    120.0000    292.8800
    128    127    136   1    120.0000    292.8800
    123    128    127   1    120.0000    527.1840
    123    128    137   1    120.0000    292.8800
    127    128    137   1    120.0000    292.8800
    122    129    138   1    109.5000    502.0800
    129    138    139   1    109.5000    418.4000
    129    138    147   1    109.5000    292.8800
    129    138    148   1    109.5000    292.8800
    139    138    147   1    110.7000    313.8000
    139    138    148   1    110.7000    313.8000
    147    138    148   1    107.8000    276.1440
    138    139    140   1    112.1750    585.7600
    138    139    146   1    109.5000    418.4000
    138    139    149   1    110.7000    313.8000
    140    139    146   1    111.8570    711.2800
    140    139    149   1    109.5000    292.8800
    146    139    149   1    109.5000    292.8800
    139    140    141   1    120.0000    585.7600
    139    140    145   1    120.0000    585.7600
    141    140    145   1    120.0000    527.1840
    140    141    142   1    120.0000    527.1840
    140    141    150   1    120.0000    292.8800
    142    141    150   1    120.0000    292.8800
    141    142    143   1    120.0000    527.1840
    141    142    151   1    120.0000    292.8800
    143    142    151   1    120.0000    292.8800
    142    143    144   1    120.0000    527.1840
    142    143    152   1    120.0000    292.8800
    144    143    152   1    120.0000    292.8800
    143    144    145   1    120.0000    527.1840
    143    144    153   1    120.0000    292.8800
    145    144    153   1    120.0000    292.8800
    140    145    144   1    120.0000    527.1840
    140    145    154   1    120.0000    292.8800
    144    145    154   1    120.0000    292.8800
    139    146    155   1    109.5000    502.0800
    146    155    156   1    109.5000    418.4000
    146    155    164   1    109.5000    292.8800
    146    155    165   1    109.5000    292.8800
    156    155    164   1    110.7000    313.8000
    156    155    165   1    110.7000    313.8000
    164    155    165   1    107.8000    276.1440
    155    156    157   1    112.1750    585.7600
    155    156    163   1    109.5000    418.4000
    155    156    166   1    110.7000    313.8000
    157    156    163   1    111.8570    711.2800
    157    156    166   1    109.5000    292.8800
    163    156    166   1    109.5000    292.8800
    156    157    158   1    120.0000    585.7600
    156    157    162   1    120.0000    585.7600
    158    157    162   1    120.0000    527.1840
    157    158    159   1    120.0000    527.1840
    157    158    167   1    120.0000    292.8800
    159    158    167   1    120.0000    292.8800
    158    159    160   1    120.0000    527.1840
    158    159    168   1    120.0000    292.8800
    160    159    168   1    120.0000    292.8800
    159    160    161   1    120.0000    527.1840
    159    160    169   1    120.0000    292.8800
    161    160    169   1    120.0000    292.8800
    160    161    162   1    120.0000    527.1840
    160    161    170   1    120.0000    292.8800
    162    161    170   1    120.0000    292.8800
    157    162    161   1    120.0000    527.1840
    157    162    171   1    120.0000    292.8800
    161    162    171   1    120.0000    292.8800
    156    163    172   1    109.5000    502.0800
    163    172    173   1    109.5000    418.4000
    163    172    181   1    109.5000    292.8800
    163    172    182   1    109.5000    292.8800
    173    172    181   1    110.7000    313.8000
    173    172    182   1    110.7000    313.8000
    181    172    182   1    107.8000    276.1440
    172    173    174   1    112.1750    585.7600
    172    173    180   1    109.5000    418.4000
    172    173    183   1    110.7000    313.8000
    174    173    180   1    111.8570    711.2800
    174    173    183   1    109.5000    292.8800
    180    173    183   1    109.5000    292.8800
    173    174    175   1    120.0000    585.7600
    173    174    179   1    120.0000    585.7600
    175    174    179   1    120.0000    527.1840
    174    175    176   1    120.0000    527.1840
    174    175    184   1    120.0000    292.8800
    176    175    184   1    120.0000    292.8800
    175    176    177   1    120.0000    527.1840
    175    176    185   1    120.0000    292.8800
    177    176    185   1    120.0000    292.8800
    176    177    178   1    120.0000    527.1840
    176    177    186   1    120.0000    292.8800
    178    177    186   1    120.0000    292.8800
    177    178    179   1    120.0000    527.1840
    177    178    187   1    120.0000    292.8800
    179    178    187   1    120.0000    292.8800
    174    179    178   1    120.0000    527.1840
    174    179    188   1    120.0000    292.8800
    178    179    188   1    120.0000    292.8800
    173    180    189   1    109.5000    502.0800
    180    189    190   1    109.5000    418.4000
    180    189    198   1    109.5000    292.8800
    180    189    199   1    109.5000    292.8800
    190    189    198   1    110.7000    313.8000
    190    189    199   1    110.7000    313.8000
    198    189    199   1    107.8000    276.1440
    189    190    191   1    112.1750    585.7600
    189    190    197   1    109.5000    418.4000
    189    190    200   1    110.7000    313.8000
    191    190    197   1    111.8570    711.2800
    191    190    200   1    109.5000    292.8800
    197    190    200   1    109.5000    292.8800
    190    191    192   1    120.0000    585.7600
    190    191    196   1    120.0000    585.7600
    192    191    196   1    120.0000    527.1840
    191    192    193   1    120.0000    527.1840
    191    192    201   1    120.0000    292.8800
    193    192    201   1    120.0000    292.8800
    192    193    194   1    120.0000    527.1840
    192    193    202   1    120.0000    292.8800
    194    193    202   1    120.0000    292.8800
    193    194    195   1    120.0000    527.1840
    193    194    203   1    120.0000    292.8800
    195    194    203   1    120.0000    292.8800
    194    195    196   1    120.0000    527.1840
    194    195    204   1    120.0000    292.8800
    196    195    204   1    120.0000    292.8800
    191    196    195   1    120.0000    527.1840
    191    196    205   1    120.0000    292.8800
    195    196    205   1    120.0000    292.8800
    190    197    206   1    109.5000    502.0800
    197    206    207   1    109.5000    418.4000
    197    206    215   1    109.5000    292.8800
    197    206    216   1    109.5000    292.8800
    207    206    215   1    110.7000    313.8000
    207    206    216   1    110.7000    313.8000
    215    206    216   1    107.8000    276.1440
    206    207    208   1    112.1750    585.7600
    206    207    214   1    109.5000    418.4000
    206    207    217   1    110.7000    313.8000
    208    207    214   1    111.8570    711.2800
    208    207    217   1    109.5000    292.8800
    214    207    217   1    109.5000    292.8800
    207    208    209   1    120.0000    585.7600
    207    208    213   1    120.0000    585.7600
    209    208    213   1    120.0000    527.1840
    208    209    210   1    120.0000    527.1840
    208    209    218   1    120.0000    292.8800
    210    209    218   1    120.0000    292.8800
    209    210    211   1    120.0000    527.1840
    209    210    219   1    120.0000    292.8800
    211    210    219   1    120.0000    292.8800
    210    211    212   1    120.0000    527.1840
    210    211    220   1    120.0000    292.8800
    212    211    220   1    120.0000    292.8800
    211    212    213   1    120.0000    527.1840
    211    212    221   1    120.0000    292.8800
    213    212    221   1    120.0000    292.8800
    208    213    212   1    120.0000    527.1840
    208    213    222   1    120.0000    292.8800
    212    213    222   1    120.0000    292.8800
    207    214    223   1    109.5000    502.0800
    214    223    224   1    109.5000    418.4000
    214    223    232   1    109.5000    292.8800
    214    223    233   1    109.5000    292.8800
    224    223    232   1    110.7000    313.8000
    224    223    233   1    110.7000    313.8000
    232    223    233   1    107.8000    276.1440
    223    224    225   1    112.1750    585.7600
    223    224    231   1    109.5000    418.4000
    223    224    234   1    110.7000    313.8000
    225    224    231   1    111.8570    711.2800
    225    224    234   1    109.5000    292.8800
    231    224    234   1    109.5000    292.8800
    224    225    226   1    120.0000    585.7600
    224    225    230   1    120.0000    585.7600
    226    225    230   1    120.0000    527.1840
    225    226    227   1    120.0000    527.1840
    225    226    235   1    120.0000    292.8800
    227    226    235   1    120.0000    292.8800
    226    227    228   1    120.0000    527.1840
    226    227    236   1    120.0000    292.8800
    228    227    236   1    120.0000    292.8800
    227    228    229   1    120.0000    527.1840
    227    228    237   1    120.0000    292.8800
    229    228    237   1    120.0000    292.8800
    228    229    230   1    120.0000    527.1840
    228    229    238   1    120.0000    292.8800
    230    229    238   1    120.0000    292.8800
    225    230    229   1    120.0000    527.1840
    225    230    239   1    120.0000    292.8800
    229    230    239   1    120.0000    292.8800
    224    231    240   1    109.5000    502.0800
    231    240    241   1    109.5000    418.4000
    231    240    249   1    109.5000    292.8800
    231    240    250   1    109.5000    292.8800
    241    240    249   1    110.7000    313.8000
    241    240    250   1    110.7000    313.8000
    249    240    250   1    107.8000    276.1440
    240    241    242   1    112.1750    585.7600
    240    241    248   1    109.5000    418.4000
    240    241    251   1    110.7000    313.8000
    242    241    248   1    111.8570    711.2800
    242    241    251   1    109.5000    292.8800
    248    241    251   1    109.5000    292.8800
    241    242    243   1    120.0000    585.7600
    241    242    247   1    120.0000    585.7600
    243    242    247   1    120.0000    527.1840
    242    243    244   1    120.0000    527.1840
    242    243    252   1    120.0000    292.8800
    244    243    252   1    120.0000    292.8800
    243    244    245   1    120.0000    527.1840
    243    244    253   1    120.0000    292.8800
    245    244    253   1    120.0000    292.8800
    244    245    246   1    120.0000    527.1840
    244    245    254   1    120.0000    292.8800
    246    245    254   1    120.0000    292.8800
    245    246    247   1    120.0000    527.1840
    245    246    255   1    120.0000    292.8800
    247    246    255   1    120.0000    292.8800
    242    247    246   1    120.0000    527.1840
    242    247    256   1    120.0000    292.8800
    246    247    256   1    120.0000    292.8800
    241    248    257   1    109.5000    502.0800
    248    257    258   1    109.5000    418.4000
    248    257    266   1    109.5000    292.8800
    248    257    267   1    109.5000    292.8800
    258    257    266   1    110.7000    313.8000
    258    257    267   1    110.7000    313.8000
    266    257    267   1    107.8000    276.1440
    257    258    259   1    112.1750    585.7600
    257    258    265   1    109.5000    418.4000
    257    258    268   1    110.7000    313.8000
    259    258    265   1    111.8570    711.2800
    259    258    268   1    109.5000    292.8800
    265    258    268   1    109.5000    292.8800
    258    259    260   1    120.0000    585.7600
    258    259    264   1    120.0000    585.7600
    260    259    264   1    120.0000    527.1840
    259    260    261   1    120.0000    527.1840
    259    260    269   1    120.0000    292.8800
    261    260    269   1    120.0000    292.8800
    260    261    262   1    120.0000    527.1840
    260    261    270   1    120.0000    292.8800
    262    261    270   1    120.0000    292.8800
    261    262    263   1    120.0000    527.1840
    261    262    271   1    120.0000    292.8800
    263    262    271   1    120.0000    292.8800
    262    263    264   1    120.0000    527.1840
    262    263    272   1    120.0000    292.8800
    264    263    272   1    120.0000    292.8800
    259    264    263   1    120.0000    527.1840
    259    264    273   1    120.0000    292.8800
    263    264    273   1    120.0000    292.8800
    258    265    274   1    109.5000    502.0800
    265    274    275   1    109.5000    418.4000
    265    274    283   1    109.5000    292.8800
    265    274    284   1    109.5000    292.8800
    275    274    283   1    110.7000    313.8000
    275    274    284   1    110.7000    313.8000
    283    274    284   1    107.8000    276.1440
    274    275    276   1    112.1750    585.7600
    274    275    282   1    109.5000    418.4000
    274    275    285   1    110.7000    313.8000
    276    275    282   1    111.8570    711.2800
    276    275    285   1    109.5000    292.8800
    282    275    285   1    109.5000    292.8800
    275    276    277   1    120.0000    585.7600
    275    276    281   1    120.0000    585.7600
    277    276    281   1    120.0000    527.1840
    276    277    278   1    120.0000    527.1840
    276    277    286   1    120.0000    292.8800
    278    277    286   1    120.0000    292.8800
    277    278    279   1    120.0000    527.1840
    277    278    287   1    120.0000    292.8800
    279    278    287   1    120.0000    292.8800
    278    279    280   1    120.0000    527.1840
    278    279    288   1    120.0000    292.8800
    280    279    288   1    120.0000    292.8800
    279    280    281   1    120.0000    527.1840
    279    280    289   1    120.0000    292.8800
    281    280    289   1    120.0000    292.8800
    276    281    280   1    120.0000    527.1840
    276    281    290   1    120.0000    292.8800
    280    281    290   1    120.0000    292.8800
    275    282    291   1    109.5000    502.0800
    282    291    292   1    109.5000    418.4000
    282    291    300   1    109.5000    292.8800
    282    291    301   1    109.5000    292.8800
    292    291    300   1    110.7000    313.8000
    292    291    301   1    110.7000    313.8000
    300    291    301   1    107.8000    276.1440
    291    292    293   1    112.1750    585.7600
    291    292    299   1    109.5000    418.4000
    291    292    302   1    110.7000    313.8000
    293    292    299   1    111.8570    711.2800
    293    292    302   1    109.5000    292.8800
    299    292    302   1    109.5000    292.8800
    292    293    294   1    120.0000    585.7600
    292    293    298   1    120.0000    585.7600
    294    293    298   1    120.0000    527.1840
    293    294    295   1    120.0000    527.1840
    293    294    303   1    120.0000    292.8800
    295    294    303   1    120.0000    292.8800
    294    295    296   1    120.0000    527.1840
    294    295    304   1    120.0000    292.8800
    296    295    304   1    120.0000    292.8800
    295    296    297   1    120.0000    527.1840
    295    296    305   1    120.0000    292.8800
    297    296    305   1    120.0000    292.8800
    296    297    298   1    120.0000    527.1840
    296    297    306   1    120.0000    292.8800
    298    297    306   1    120.0000    292.8800
    293    298    297   1    120.0000    527.1840
    293    298    307   1    120.0000    292.8800
    297    298    307   1    120.0000    292.8800
    292    299    308   1    109.5000    502.0800
    299    308    309   1    109.5000    418.4000
    299    308    317   1    109.5000    292.8800
    299    308    318   1    109.5000    292.8800
    309    308    317   1    110.7000    313.8000
    309    308    318   1    110.7000    313.8000
    317    308    318   1    107.8000    276.1440
    308    309    310   1    112.1750    585.7600
    308    309    316   1    109.5000    418.4000
    308    309    319   1    110.7000    313.8000
    310    309    316   1    111.8570    711.2800
    310    309    319   1    109.5000    292.8800
    316    309    319   1    109.5000    292.8800
    309    310    311   1    120.0000    585.7600
    309    310    315   1    120.0000    585.7600
    311    310    315   1    120.0000    527.1840
    310    311    312   1    120.0000    527.1840
    310    311    320   1    120.0000    292.8800
    312    311    320   1    120.0000    292.8800
    311    312    313   1    120.0000    527.1840
    311    312    321   1    120.0000    292.8800
    313    312    321   1    120.0000    292.8800
    312    313    314   1    120.0000    527.1840
    312    313    322   1    120.0000    292.8800
    314    313    322   1    120.0000    292.8800
    313    314    315   1    120.0000    527.1840
    313    314    323   1    120.0000    292.8800
    315    314    323   1    120.0000    292.8800
    310    315    314   1    120.0000    527.1840
    310    315    324   1    120.0000    292.8800
    314    315    324   1    120.0000    292.8800
    309    316    325   1    109.5000    502.0800
    316    325    326   1    109.5000    418.4000
    316    325    334   1    109.5000    292.8800
    316    325    335   1    109.5000    292.8800
    326    325    334   1    110.7000    313.8000
    326    325    335   1    110.7000    313.8000
    334    325    335   1    107.8000    276.1440
    325    326    327   1    112.1750    585.7600
    325    326    333   1    109.5000    418.4000
    325    326    336   1    110.7000    313.8000
    327    326    333   1    112.5160    753.1200
    327    326    336   1    109.5000    292.8800
    333    326    336   1    109.5000    292.8800
    326    327    328   1    120.0000    585.7600
    326    327    332   1    120.0000    585.7600
    328    327    332   1    120.0000    527.1840
    327    328    329   1    120.0000    527.1840
    327    328    337   1    120.0000    292.8800
    329    328    337   1    120.0000    292.8800
    328    329    330   1    120.0000    527.1840
    328    329    338   1    120.0000    292.8800
    330    329    338   1    120.0000    292.8800
    329    330    331   1    120.0000    527.1840
    329    330    339   1    120.0000    292.8800
    331    330    339   1    120.0000    292.8800
    330    331    332   1    120.0000    527.1840
    330    331    340   1    120.0000    292.8800
    332    331    340   1    120.0000    292.8800
    327    332    331   1    120.0000    527.1840
    327    332    341   1    120.0000    292.8800
    331    332    341   1    120.0000    292.8800
    326    333    342   1    108.5000    460.2400

[ dihedrals ]
; Proper dihedrals
     10      1      2      3   5     0.00000     0.00000     3.61498  0.0
     10      1      2      9   5     0.00000     0.00000     1.95811  0.0
     10      1      2     12   5     0.00000     0.00000     1.25520  0.0
     11      1      2      3   5     0.00000     0.00000     3.61498  0.0
     11      1      2      9   5     0.00000     0.00000     1.95811  0.0
     11      1      2     12   5     0.00000     0.00000     1.25520  0.0
     18      1      2      3   5     0.00000     0.00000     3.61498  0.0
     18      1      2      9   5     0.00000     0.00000     1.95811  0.0
     18      1      2     12   5     0.00000     0.00000     1.25520  0.0
      1      2      3      4   5     0.00000     0.34727     0.00000  0.0
      1      2      3      8   5     0.00000     0.34727     0.00000  0.0
      9      2      3      4   5     5.39736     1.23846     1.72799  0.0
      9      2      3      8   5     5.39736     1.23846     1.72799  0.0
     12      2      3      4   5     0.00000     0.00000     0.00000  0.0
     12      2      3      8   5     0.00000     0.00000     0.00000  0.0
      1      2      9     19   5     0.52300    -0.09205     2.34722  0.0
      3      2      9     19   5     0.00000     0.00000     3.13800  0.0
     12      2      9     19   5     0.00000     0.00000     3.10034  0.0
      2      3      4      5   5     0.00000    30.33400     0.00000  0.0
      2      3      4     13   5     0.00000    30.33400     0.00000  0.0
      8      3      4      5   5     0.00000    30.33400     0.00000  0.0
      8      3      4     13   5     0.00000    30.33400     0.00000  0.0
      2      3      8      7   5     0.00000    30.33400     0.00000  0.0
      2      3      8     17   5     0.00000    30.33400     0.00000  0.0
      4      3      8      7   5     0.00000    30.33400     0.00000  0.0
      4      3      8     17   5     0.00000    30.33400     0.00000  0.0
      3      4      5      6   5     0.00000    30.33400     0.00000  0.0
      3      4      5     14   5     0.00000    30.33400     0.00000  0.0
     13      4      5      6   5     0.00000    30.33400     0.00000  0.0
     13      4      5     14   5     0.00000    30.33400     0.00000  0.0
      4      5      6      7   5     0.00000    30.33400     0.00000  0.0
      4      5      6     15   5     0.00000    30.33400     0.00000  0.0
     14      5      6      7   5     0.00000    30.33400     0.00000  0.0
     14      5      6     15   5     0.00000    30.33400     0.00000  0.0
      5      6      7      8   5     0.00000    30.33400     0.00000  0.0
      5      6      7     16   5     0.00000    30.33400     0.00000  0.0
     15      6      7      8   5     0.00000    30.33400     0.00000  0.0
     15      6      7     16   5     0.00000    30.33400     0.00000  0.0
      6      7      8      3   5     0.00000    30.33400     0.00000  0.0
      6      7      8     17   5     0.00000    30.33400     0.00000  0.0
     16      7      8      3   5     0.00000    30.33400     0.00000  0.0
     16      7      8     17   5     0.00000    30.33400     0.00000  0.0
      2      9     19     20   5     0.52300    -0.09205     2.34722  0.0
      2      9     19     28   5     0.00000     0.00000     3.10034  0.0
      2      9     19     29   5     0.00000     0.00000     3.10034  0.0
      9     19     20     21   5    -5.38481    -0.35146     1.65686  0.0
      9     19     20     27   5     9.36379    -9.73617    -2.85767  0.0
      9     19     20     30   5     0.00000     0.00000     1.95811  0.0
     28     19     20     21   5     0.00000     0.00000     3.61498  0.0
     28     19     20     27   5     0.00000     0.00000     1.95811  0.0
     28     19     20     30   5     0.00000     0.00000     1.25520  0.0
     29     19     20     21   5     0.00000     0.00000     3.61498  0.0
     29     19     20     27   5     0.00000     0.00000     1.95811  0.0
     29     19     20     30   5     0.00000     0.00000     1.25520  0.0
     19     20     21     22   5     0.00000     0.34727     0.00000  0.0
     19     20     21     26   5     0.00000     0.34727     0.00000  0.0
     27     20     21     22   5     5.39736     1.23846     1.72799  0.0
     27     20     21     26   5     5.39736     1.23846     1.72799  0.0
     30     20     21     22   5     0.00000     0.00000     0.00000  0.0
     30     20     21     26   5     0.00000     0.00000     0.00000  0.0
     19     20     27     36   5     0.52300    -0.09205     2.34722  0.0
     21     20     27     36   5     0.00000     0.00000     3.13800  0.0
     30     20     27     36   5     0.00000     0.00000     3.10034  0.0
     20     21     22     23   5     0.00000    30.33400     0.00000  0.0
     20     21     22     31   5     0.00000    30.33400     0.00000  0.0
     26     21     22     23   5     0.00000    30.33400     0.00000  0.0
     26     21     22     31   5     0.00000    30.33400     0.00000  0.0
     20     21     26     25   5     0.00000    30.33400     0.00000  0.0
     20     21     26     35   5     0.00000    30.33400     0.00000  0.0
     22     21     26     25   5     0.00000    30.33400     0.00000  0.0
     22     21     26     35   5     0.00000    30.33400     0.00000  0.0
     21     22     23     24   5     0.00000    30.33400     0.00000  0.0
     21     22     23     32   5     0.00000    30.33400     0.00000  0.0
     31     22     23     24   5     0.00000    30.33400     0.00000  0.0
     31     22     23     32   5     0.00000    30.33400     0.00000  0.0
     22     23     24     25   5     0.00000    30.33400     0.00000  0.0
     22     23     24     33   5     0.00000    30.33400     0.00000  0.0
     32     23     24     25   5     0.00000    30.33400     0.00000  0.0
     32     23     24     33   5     0.00000    30.33400     0.00000  0.0
     23     24     25     26   5     0.00000    30.33400     0.00000  0.0
     23     24     25     34   5     0.00000    30.33400     0.00000  0.0
     33     24     25     26   5     0.00000    30.33400     0.00000  0.0
     33     24     25     34   5     0.00000    30.33400     0.00000  0.0
     24     25     26     21   5     0.00000    30.33400     0.00000  0.0
     24     25     26     35   5     0.00000    30.33400     0.00000  0.0
     34     25     26     21   5     0.00000    30.33400     0.00000  0.0
     34     25     26     35   5     0.00000    30.33400     0.00000  0.0
     20     27     36     37   5     0.52300    -0.09205     2.34722  0.0
     20     27     36     45   5     0.00000     0.00000     3.10034  0.0
     20     27     36     46   5     0.00000     0.00000     3.10034  0.0
     27     36     37     38   5    -5.38481    -0.35146     1.65686  0.0
     27     36     37     44   5     9.36379    -9.73617    -2.85767  0.0
     27     36     37     47   5     0.00000     0.00000     1.95811  0.0
     45     36     37     38   5     0.00000     0.00000     3.61498  0.0
     45     36     37     44   5     0.00000     0.00000     1.95811  0.0
     45     36     37     47   5     0.00000     0.00000     1.25520  0.0
     46     36     37     38   5     0.00000     0.00000     3.61498  0.0
     46     36     37     44   5     0.00000     0.00000     1.95811  0.0
     46     36     37     47   5     0.00000     0.00000     1.25520  0.0
     36     37     38     39   5     0.00000     0.34727     0.00000  0.0
     36     37     38     43   5     0.00000     0.34727     0.00000  0.0
     44     37     38     39   5     5.39736     1.23846     1.72799  0.0
     44     37     38     43   5     5.39736     1.23846     1.72799  0.0
     47     37     38     39   5     0.00000     0.00000     0.00000  0.0
     47     37     38     43   5     0.00000     0.00000     0.00000  0.0
     36     37     44     53   5     0.52300    -0.09205     2.34722  0.0
     38     37     44     53   5     0.00000     0.00000     3.13800  0.0
     47     37     44     53   5     0.00000     0.00000     3.10034  0.0
     37     38     39     40   5     0.00000    30.33400     0.00000  0.0
     37     38     39     48   5     0.00000    30.33400     0.00000  0.0
     43     38     39     40   5     0.00000    30.33400     0.00000  0.0
     43     38     39     48   5     0.00000    30.33400     0.00000  0.0
     37     38     43     42   5     0.00000    30.33400     0.00000  0.0
     37     38     43     52   5     0.00000    30.33400     0.00000  0.0
     39     38     43     42   5     0.00000    30.33400     0.00000  0.0
     39     38     43     52   5     0.00000    30.33400     0.00000  0.0
     38     39     40     41   5     0.00000    30.33400     0.00000  0.0
     38     39     40     49   5     0.00000    30.33400     0.00000  0.0
     48     39     40     41   5     0.00000    30.33400     0.00000  0.0
     48     39     40     49   5     0.00000    30.33400     0.00000  0.0
     39     40     41     42   5     0.00000    30.33400     0.00000  0.0
     39     40     41     50   5     0.00000    30.33400     0.00000  0.0
     49     40     41     42   5     0.00000    30.33400     0.00000  0.0
     49     40     41     50   5     0.00000    30.33400     0.00000  0.0
     40     41     42     43   5     0.00000    30.33400     0.00000  0.0
     40     41     42     51   5     0.00000    30.33400     0.00000  0.0
     50     41     42     43   5     0.00000    30.33400     0.00000  0.0
     50     41     42     51   5     0.00000    30.33400     0.00000  0.0
     41     42     43     38   5     0.00000    30.33400     0.00000  0.0
     41     42     43     52   5     0.00000    30.33400     0.00000  0.0
     51     42     43     38   5     0.00000    30.33400     0.00000  0.0
     51     42     43     52   5     0.00000    30.33400     0.00000  0.0
     37     44     53     54   5     0.52300    -0.09205     2.34722  0.0
     37     44     53     62   5     0.00000     0.00000     3.10034  0.0
     37     44     53     63   5     0.00000     0.00000     3.10034  0.0
     44     53     54     55   5    -5.38481    -0.35146     1.65686  0.0
     44     53     54     61   5     9.36379    -9.73617    -2.85767  0.0
     44     53     54     64   5     0.00000     0.00000     1.95811  0.0
     62     53     54     55   5     0.00000     0.00000     3.61498  0.0
     62     53     54     61   5     0.00000     0.00000     1.95811  0.0
     62     53     54     64   5     0.00000     0.00000     1.25520  0.0
     63     53     54     55   5     0.00000     0.00000     3.61498  0.0
     63     53     54     61   5     0.00000     0.00000     1.95811  0.0
     63     53     54     64   5     0.00000     0.00000     1.25520  0.0
     53     54     55     56   5     0.00000     0.34727     0.00000  0.0
     53     54     55     60   5     0.00000     0.34727     0.00000  0.0
     61     54     55     56   5     5.39736     1.23846     1.72799  0.0
     61     54     55     60   5     5.39736     1.23846     1.72799  0.0
     64     54     55     56   5     0.00000     0.00000     0.00000  0.0
     64     54     55     60   5     0.00000     0.00000     0.00000  0.0
     53     54     61     70   5     0.52300    -0.09205     2.34722  0.0
     55     54     61     70   5     0.00000     0.00000     3.13800  0.0
     64     54     61     70   5     0.00000     0.00000     3.10034  0.0
     54     55     56     57   5     0.00000    30.33400     0.00000  0.0
     54     55     56     65   5     0.00000    30.33400     0.00000  0.0
     60     55     56     57   5     0.00000    30.33400     0.00000  0.0
     60     55     56     65   5     0.00000    30.33400     0.00000  0.0
     54     55     60     59   5     0.00000    30.33400     0.00000  0.0
     54     55     60     69   5     0.00000    30.33400     0.00000  0.0
     56     55     60     59   5     0.00000    30.33400     0.00000  0.0
     56     55     60     69   5     0.00000    30.33400     0.00000  0.0
     55     56     57     58   5     0.00000    30.33400     0.00000  0.0
     55     56     57     66   5     0.00000    30.33400     0.00000  0.0
     65     56     57     58   5     0.00000    30.33400     0.00000  0.0
     65     56     57     66   5     0.00000    30.33400     0.00000  0.0
     56     57     58     59   5     0.00000    30.33400     0.00000  0.0
     56     57     58     67   5     0.00000    30.33400     0.00000  0.0
     66     57     58     59   5     0.00000    30.33400     0.00000  0.0
     66     57     58     67   5     0.00000    30.33400     0.00000  0.0
     57     58     59     60   5     0.00000    30.33400     0.00000  0.0
     57     58     59     68   5     0.00000    30.33400     0.00000  0.0
     67     58     59     60   5     0.00000    30.33400     0.00000  0.0
     67     58     59     68   5     0.00000    30.33400     0.00000  0.0
     58     59     60     55   5     0.00000    30.33400     0.00000  0.0
     58     59     60     69   5     0.00000    30.33400     0.00000  0.0
     68     59     60     55   5     0.00000    30.33400     0.00000  0.0
     68     59     60     69   5     0.00000    30.33400     0.00000  0.0
     54     61     70     71   5     0.52300    -0.09205     2.34722  0.0
     54     61     70     79   5     0.00000     0.00000     3.10034  0.0
     54     61     70     80   5     0.00000     0.00000     3.10034  0.0
     61     70     71     72   5    -5.38481    -0.35146     1.65686  0.0
     61     70     71     78   5     9.36379    -9.73617    -2.85767  0.0
     61     70     71     81   5     0.00000     0.00000     1.95811  0.0
     79     70     71     72   5     0.00000     0.00000     3.61498  0.0
     79     70     71     78   5     0.00000     0.00000     1.95811  0.0
     79     70     71     81   5     0.00000     0.00000     1.25520  0.0
     80     70     71     72   5     0.00000     0.00000     3.61498  0.0
     80     70     71     78   5     0.00000     0.00000     1.95811  0.0
     80     70     71     81   5     0.00000     0.00000     1.25520  0.0
     70     71     72     73   5     0.00000     0.34727     0.00000  0.0
     70     71     72     77   5     0.00000     0.34727     0.00000  0.0
     78     71     72     73   5     5.39736     1.23846     1.72799  0.0
     78     71     72     77   5     5.39736     1.23846     1.72799  0.0
     81     71     72     73   5     0.00000     0.00000     0.00000  0.0
     81     71     72     77   5     0.00000     0.00000     0.00000  0.0
     70     71     78     87   5     0.52300    -0.09205     2.34722  0.0
     72     71     78     87   5     0.00000     0.00000     3.13800  0.0
     81     71     78     87   5     0.00000     0.00000     3.10034  0.0
     71     72     73     74   5     0.00000    30.33400     0.00000  0.0
     71     72     73     82   5     0.00000    30.33400     0.00000  0.0
     77     72     73     74   5     0.00000    30.33400     0.00000  0.0
     77     72     73     82   5     0.00000    30.33400     0.00000  0.0
     71     72     77     76   5     0.00000    30.33400     0.00000  0.0
     71     72     77     86   5     0.00000    30.33400     0.00000  0.0
     73     72     77     76   5     0.00000    30.33400     0.00000  0.0
     73     72     77     86   5     0.00000    30.33400     0.00000  0.0
     72     73     74     75   5     0.00000    30.33400     0.00000  0.0
     72     73     74     83   5     0.00000    30.33400     0.00000  0.0
     82     73     74     75   5     0.00000    30.33400     0.00000  0.0
     82     73     74     83   5     0.00000    30.33400     0.00000  0.0
     73     74     75     76   5     0.00000    30.33400     0.00000  0.0
     73     74     75     84   5     0.00000    30.33400     0.00000  0.0
     83     74     75     76   5     0.00000    30.33400     0.00000  0.0
     83     74     75     84   5     0.00000    30.33400     0.00000  0.0
     74     75     76     77   5     0.00000    30.33400     0.00000  0.0
     74     75     76     85   5     0.00000    30.33400     0.00000  0.0
     84     75     76     77   5     0.00000    30.33400     0.00000  0.0
     84     75     76     85   5     0.00000    30.33400     0.00000  0.0
     75     76     77     72   5     0.00000    30.33400     0.00000  0.0
     75     76     77     86   5     0.00000    30.33400     0.00000  0.0
     85     76     77     72   5     0.00000    30.33400     0.00000  0.0
     85     76     77     86   5     0.00000    30.33400     0.00000  0.0
     71     78     87     88   5     0.52300    -0.09205     2.34722  0.0
     71     78     87     96   5     0.00000     0.00000     3.10034  0.0
     71     78     87     97   5     0.00000     0.00000     3.10034  0.0
     78     87     88     89   5    -5.38481    -0.35146     1.65686  0.0
     78     87     88     95   5     9.36379    -9.73617    -2.85767  0.0
     78     87     88     98   5     0.00000     0.00000     1.95811  0.0
     96     87     88     89   5     0.00000     0.00000     3.61498  0.0
     96     87     88     95   5     0.00000     0.00000     1.95811  0.0
     96     87     88     98   5     0.00000     0.00000     1.25520  0.0
     97     87     88     89   5     0.00000     0.00000     3.61498  0.0
     97     87     88     95   5     0.00000     0.00000     1.95811  0.0
     97     87     88     98   5     0.00000     0.00000     1.25520  0.0
     87     88     89     90   5     0.00000     0.34727     0.00000  0.0
     87     88     89     94   5     0.00000     0.34727     0.00000  0.0
     95     88     89     90   5     5.39736     1.23846     1.72799  0.0
     95     88     89     94   5     5.39736     1.23846     1.72799  0.0
     98     88     89     90   5     0.00000     0.00000     0.00000  0.0
     98     88     89     94   5     0.00000     0.00000     0.00000  0.0
     87     88     95    104   5     0.52300    -0.09205     2.34722  0.0
     89     88     95    104   5     0.00000     0.00000     3.13800  0.0
     98     88     95    104   5     0.00000     0.00000     3.10034  0.0
     88     89     90     91   5     0.00000    30.33400     0.00000  0.0
     88     89     90     99   5     0.00000    30.33400     0.00000  0.0
     94     89     90     91   5     0.00000    30.33400     0.00000  0.0
     94     89     90     99   5     0.00000    30.33400     0.00000  0.0
     88     89     94     93   5     0.00000    30.33400     0.00000  0.0
     88     89     94    103   5     0.00000    30.33400     0.00000  0.0
     90     89     94     93   5     0.00000    30.33400     0.00000  0.0
     90     89     94    103   5     0.00000    30.33400     0.00000  0.0
     89     90     91     92   5     0.00000    30.33400     0.00000  0.0
     89     90     91    100   5     0.00000    30.33400     0.00000  0.0
     99     90     91     92   5     0.00000    30.33400     0.00000  0.0
     99     90     91    100   5     0.00000    30.33400     0.00000  0.0
     90     91     92     93   5     0.00000    30.33400     0.00000  0.0
     90     91     92    101   5     0.00000    30.33400     0.00000  0.0
    100     91     92     93   5     0.00000    30.33400     0.00000  0.0
    100     91     92    101   5     0.00000    30.33400     0.00000  0.0
     91     92     93     94   5     0.00000    30.33400     0.00000  0.0
     91     92     93    102   5     0.00000    30.33400     0.00000  0.0
    101     92     93     94   5     0.00000    30.33400     0.00000  0.0
    101     92     93    102   5     0.00000    30.33400     0.00000  0.0
     92     93     94     89   5     0.00000    30.33400     0.00000  0.0
     92     93     94    103   5     0.00000    30.33400     0.00000  0.0
    102     93     94     89   5     0.00000    30.33400     0.00000  0.0
    102     93     94    103   5     0.00000    30.33400     0.00000  0.0
     88     95    104    105   5     0.52300    -0.09205     2.34722  0.0
     88     95    104    113   5     0.00000     0.00000     3.10034  0.0
     88     95    104    114   5     0.00000     0.00000     3.10034  0.0
     95    104    105    106   5    -5.38481    -0.35146     1.65686  0.0
     95    104    105    112   5     9.36379    -9.73617    -2.85767  0.0
     95    104    105    115   5     0.00000     0.00000     1.95811  0.0
    113    104    105    106   5     0.00000     0.00000     3.61498  0.0
    113    104    105    112   5     0.00000     0.00000     1.95811  0.0
    113    104    105    115   5     0.00000     0.00000     1.25520  0.0
    114    104    105    106   5     0.00000     0.00000     3.61498  0.0
    114    104    105    112   5     0.00000     0.00000     1.95811  0.0
    114    104    105    115   5     0.00000     0.00000     1.25520  0.0
    104    105    106    107   5     0.00000     0.34727     0.00000  0.0
    104    105    106    111   5     0.00000     0.34727     0.00000  0.0
    112    105    106    107   5     5.39736     1.23846     1.72799  0.0
    112    105    106    111   5     5.39736     1.23846     1.72799  0.0
    115    105    106    107   5     0.00000     0.00000     0.00000  0.0
    115    105    106    111   5     0.00000     0.00000     0.00000  0.0
    104    105    112    121   5     0.52300    -0.09205     2.34722  0.0
    106    105    112    121   5     0.00000     0.00000     3.13800  0.0
    115    105    112    121   5     0.00000     0.00000     3.10034  0.0
    105    106    107    108   5     0.00000    30.33400     0.00000  0.0
    105    106    107    116   5     0.00000    30.33400     0.00000  0.0
    111    106    107    108   5     0.00000    30.33400     0.00000  0.0
    111    106    107    116   5     0.00000    30.33400     0.00000  0.0
    105    106    111    110   5     0.00000    30.33400     0.00000  0.0
    105    106    111    120   5     0.00000    30.33400     0.00000  0.0
    107    106    111    110   5     0.00000    30.33400     0.00000  0.0
    107    106    111    120   5     0.00000    30.33400     0.00000  0.0
    106    107    108    109   5     0.00000    30.33400     0.00000  0.0
    106    107    108    117   5     0.00000    30.33400     0.00000  0.0
    116    107    108    109   5     0.00000    30.33400     0.00000  0.0
    116    107    108    117   5     0.00000    30.33400     0.00000  0.0
    107    108    109    110   5     0.00000    30.33400     0.00000  0.0
    107    108    109    118   5     0.00000    30.33400     0.00000  0.0
    117    108    109    110   5     0.00000    30.33400     0.00000  0.0
    117    108    109    118   5     0.00000    30.33400     0.00000  0.0
    108    109    110    111   5     0.00000    30.33400     0.00000  0.0
    108    109    110    119   5     0.00000    30.33400     0.00000  0.0
    118    109    110    111   5     0.00000    30.33400     0.00000  0.0
    118    109    110    119   5     0.00000    30.33400     0.00000  0.0
    109    110    111    106   5     0.00000    30.33400     0.00000  0.0
    109    110    111    120   5     0.00000    30.33400     0.00000  0.0
    119    110    111    106   5     0.00000    30.33400     0.00000  0.0
    119    110    111    120   5     0.00000    30.33400     0.00000  0.0
    105    112    121    122   5     0.52300    -0.09205     2.34722  0.0
    105    112    121    130   5     0.00000     0.00000     3.10034  0.0
    105    112    121    131   5     0.00000     0.00000     3.10034  0.0
    112    121    122    123   5    -5.38481    -0.35146     1.65686  0.0
    112    121    122    129   5     9.36379    -9.73617    -2.85767  0.0
    112    121    122    132   5     0.00000     0.00000     1.95811  0.0
    130    121    122    123   5     0.00000     0.00000     3.61498  0.0
    130    121    122    129   5     0.00000     0.00000     1.95811  0.0
    130    121    122    132   5     0.00000     0.00000     1.25520  0.0
    131    121    122    123   5     0.00000     0.00000     3.61498  0.0
    131    121    122    129   5     0.00000     0.00000     1.95811  0.0
    131    121    122    132   5     0.00000     0.00000     1.25520  0.0
    121    122    123    124   5     0.00000     0.34727     0.00000  0.0
    121    122    123    128   5     0.00000     0.34727     0.00000  0.0
    129    122    123    124   5     5.39736     1.23846     1.72799  0.0
    129    122    123    128   5     5.39736     1.23846     1.72799  0.0
    132    122    123    124   5     0.00000     0.00000     0.00000  0.0
    132    122    123    128   5     0.00000     0.00000     0.00000  0.0
    121    122    129    138   5     0.52300    -0.09205     2.34722  0.0
    123    122    129    138   5     0.00000     0.00000     3.13800  0.0
    132    122    129    138   5     0.00000     0.00000     3.10034  0.0
    122    123    124    125   5     0.00000    30.33400     0.00000  0.0
    122    123    124    133   5     0.00000    30.33400     0.00000  0.0
    128    123    124    125   5     0.00000    30.33400     0.00000  0.0
    128    123    124    133   5     0.00000    30.33400     0.00000  0.0
    122    123    128    127   5     0.00000    30.33400     0.00000  0.0
    122    123    128    137   5     0.00000    30.33400     0.00000  0.0
    124    123    128    127   5     0.00000    30.33400     0.00000  0.0
    124    123    128    137   5     0.00000    30.33400     0.00000  0.0
    123    124    125    126   5     0.00000    30.33400     0.00000  0.0
    123    124    125    134   5     0.00000    30.33400     0.00000  0.0
    133    124    125    126   5     0.00000    30.33400     0.00000  0.0
    133    124    125    134   5     0.00000    30.33400     0.00000  0.0
    124    125    126    127   5     0.00000    30.33400     0.00000  0.0
    124    125    126    135   5     0.00000    30.33400     0.00000  0.0
    134    125    126    127   5     0.00000    30.33400     0.00000  0.0
    134    125    126    135   5     0.00000    30.33400     0.00000  0.0
    125    126    127    128   5     0.00000    30.33400     0.00000  0.0
    125    126    127    136   5     0.00000    30.33400     0.00000  0.0
    135    126    127    128   5     0.00000    30.33400     0.00000  0.0
    135    126    127    136   5     0.00000    30.33400     0.00000  0.0
    126    127    128    123   5     0.00000    30.33400     0.00000  0.0
    126    127    128    137   5     0.00000    30.33400     0.00000  0.0
    136    127    128    123   5     0.00000    30.33400     0.00000  0.0
    136    127    128    137   5     0.00000    30.33400     0.00000  0.0
    122    129    138    139   5     0.52300    -0.09205     2.34722  0.0
    122    129    138    147   5     0.00000     0.00000     3.10034  0.0
    122    129    138    148   5     0.00000     0.00000     3.10034  0.0
    129    138    139    140   5    -5.38481    -0.35146     1.65686  0.0
    129    138    139    146   5     9.36379    -9.73617    -2.85767  0.0
    129    138    139    149   5     0.00000     0.00000     1.95811  0.0
    147    138    139    140   5     0.00000     0.00000     3.61498  0.0
    147    138    139    146   5     0.00000     0.00000     1.95811  0.0
    147    138    139    149   5     0.00000     0.00000     1.25520  0.0
    148    138    139    140   5     0.00000     0.00000     3.61498  0.0
    148    138    139    146   5     0.00000     0.00000     1.95811  0.0
    148    138    139    149   5     0.00000     0.00000     1.25520  0.0
    138    139    140    141   5     0.00000     0.34727     0.00000  0.0
    138    139    140    145   5     0.00000     0.34727     0.00000  0.0
    146    139    140    141   5     5.39736     1.23846     1.72799  0.0
    146    139    140    145   5     5.39736     1.23846     1.72799  0.0
    149    139    140    141   5     0.00000     0.00000     0.00000  0.0
    149    139    140    145   5     0.00000     0.00000     0.00000  0.0
    138    139    146    155   5     0.52300    -0.09205     2.34722  0.0
    140    139    146    155   5     0.00000     0.00000     3.13800  0.0
    149    139    146    155   5     0.00000     0.00000     3.10034  0.0
    139    140    141    142   5     0.00000    30.33400     0.00000  0.0
    139    140    141    150   5     0.00000    30.33400     0.00000  0.0
    145    140    141    142   5     0.00000    30.33400     0.00000  0.0
    145    140    141    150   5     0.00000    30.33400     0.00000  0.0
    139    140    145    144   5     0.00000    30.33400     0.00000  0.0
    139    140    145    154   5     0.00000    30.33400     0.00000  0.0
    141    140    145    144   5     0.00000    30.33400     0.00000  0.0
    141    140    145    154   5     0.00000    30.33400     0.00000  0.0
    140    141    142    143   5     0.00000    30.33400     0.00000  0.0
    140    141    142    151   5     0.00000    30.33400     0.00000  0.0
    150    141    142    143   5     0.00000    30.33400     0.00000  0.0
    150    141    142    151   5     0.00000    30.33400     0.00000  0.0
    141    142    143    144   5     0.00000    30.33400     0.00000  0.0
    141    142    143    152   5     0.00000    30.33400     0.00000  0.0
    151    142    143    144   5     0.00000    30.33400     0.00000  0.0
    151    142    143    152   5     0.00000    30.33400     0.00000  0.0
    142    143    144    145   5     0.00000    30.33400     0.00000  0.0
    142    143    144    153   5     0.00000    30.33400     0.00000  0.0
    152    143    144    145   5     0.00000    30.33400     0.00000  0.0
    152    143    144    153   5     0.00000    30.33400     0.00000  0.0
    143    144    145    140   5     0.00000    30.33400     0.00000  0.0
    143    144    145    154   5     0.00000    30.33400     0.00000  0.0
    153    144    145    140   5     0.00000    30.33400     0.00000  0.0
    153    144    145    154   5     0.00000    30.33400     0.00000  0.0
    139    146    155    156   5     0.52300    -0.09205     2.34722  0.0
    139    146    155    164   5     0.00000     0.00000     3.10034  0.0
    139    146    155    165   5     0.00000     0.00000     3.10034  0.0
    146    155    156    157   5    -5.38481    -0.35146     1.65686  0.0
    146    155    156    163   5     9.36379    -9.73617    -2.85767  0.0
    146    155    156    166   5     0.00000     0.00000     1.95811  0.0
    164    155    156    157   5     0.00000     0.00000     3.61498  0.0
    164    155    156    163   5     0.00000     0.00000     1.95811  0.0
    164    155    156    166   5     0.00000     0.00000     1.25520  0.0
    165    155    156    157   5     0.00000     0.00000     3.61498  0.0
    165    155    156    163   5     0.00000     0.00000     1.95811  0.0
    165    155    156    166   5     0.00000     0.00000     1.25520  0.0
    155    156    157    158   5     0.00000     0.34727     0.00000  0.0
    155    156    157    162   5     0.00000     0.34727     0.00000  0.0
    163    156    157    158   5     5.39736     1.23846     1.72799  0.0
    163    156    157    162   5     5.39736     1.23846     1.72799  0.0
    166    156    157    158   5     0.00000     0.00000     0.00000  0.0
    166    156    157    162   5     0.00000     0.00000     0.00000  0.0
    155    156    163    172   5     0.52300    -0.09205     2.34722  0.0
    157    156    163    172   5     0.00000     0.00000     3.13800  0.0
    166    156    163    172   5     0.00000     0.00000     3.10034  0.0
    156    157    158    159   5     0.00000    30.33400     0.00000  0.0
    156    157    158    167   5     0.00000    30.33400     0.00000  0.0
    162    157    158    159   5     0.00000    30.33400     0.00000  0.0
    162    157    158    167   5     0.00000    30.33400     0.00000  0.0
    156    157    162    161   5     0.00000    30.33400     0.00000  0.0
    156    157    162    171   5     0.00000    30.33400     0.00000  0.0
    158    157    162    161   5     0.00000    30.33400     0.00000  0.0
    158    157    162    171   5     0.00000    30.33400     0.00000  0.0
    157    158    159    160   5     0.00000    30.33400     0.00000  0.0
    157    158    159    168   5     0.00000    30.33400     0.00000  0.0
    167    158    159    160   5     0.00000    30.33400     0.00000  0.0
    167    158    159    168   5     0.00000    30.33400     0.00000  0.0
    158    159    160    161   5     0.00000    30.33400     0.00000  0.0
    158    159    160    169   5     0.00000    30.33400     0.00000  0.0
    168    159    160    161   5     0.00000    30.33400     0.00000  0.0
    168    159    160    169   5     0.00000    30.33400     0.00000  0.0
    159    160    161    162   5     0.00000    30.33400     0.00000  0.0
    159    160    161    170   5     0.00000    30.33400     0.00000  0.0
    169    160    161    162   5     0.00000    30.33400     0.00000  0.0
    169    160    161    170   5     0.00000    30.33400     0.00000  0.0
    160    161    162    157   5     0.00000    30.33400     0.00000  0.0
    160    161    162    171   5     0.00000    30.33400     0.00000  0.0
    170    161    162    157   5     0.00000    30.33400     0.00000  0.0
    170    161    162    171   5     0.00000    30.33400     0.00000  0.0
    156    163    172    173   5     0.52300    -0.09205     2.34722  0.0
    156    163    172    181   5     0.00000     0.00000     3.10034  0.0
    156    163    172    182   5     0.00000     0.00000     3.10034  0.0
    163    172    173    174   5    -5.38481    -0.35146     1.65686  0.0
    163    172    173    180   5     9.36379    -9.73617    -2.85767  0.0
    163    172    173    183   5     0.00000     0.00000     1.95811  0.0
    181    172    173    174   5     0.00000     0.00000     3.61498  0.0
    181    172    173    180   5     0.00000     0.00000     1.95811  0.0
    181    172    173    183   5     0.00000     0.00000     1.25520  0.0
    182    172    173    174   5     0.00000     0.00000     3.61498  0.0
    182    172    173    180   5     0.00000     0.00000     1.95811  0.0
    182    172    173    183   5     0.00000     0.00000     1.25520  0.0
    172    173    174    175   5     0.00000     0.34727     0.00000  0.0
    172    173    174    179   5     0.00000     0.34727     0.00000  0.0
    180    173    174    175   5     5.39736     1.23846     1.72799  0.0
    180    173    174    179   5     5.39736     1.23846     1.72799  0.0
    183    173    174    175   5     0.00000     0.00000     0.00000  0.0
    183    173    174    179   5     0.00000     0.00000     0.00000  0.0
    172    173    180    189   5     0.52300    -0.09205     2.34722  0.0
    174    173    180    189   5     0.00000     0.00000     3.13800  0.0
    183    173    180    189   5     0.00000     0.00000     3.10034  0.0
    173    174    175    176   5     0.00000    30.33400     0.00000  0.0
    173    174    175    184   5     0.00000    30.33400     0.00000  0.0
    179    174    175    176   5     0.00000    30.33400     0.00000  0.0
    179    174    175    184   5     0.00000    30.33400     0.00000  0.0
    173    174    179    178   5     0.00000    30.33400     0.00000  0.0
    173    174    179    188   5     0.00000    30.33400     0.00000  0.0
    175    174    179    178   5     0.00000    30.33400     0.00000  0.0
    175    174    179    188   5     0.00000    30.33400     0.00000  0.0
    174    175    176    177   5     0.00000    30.33400     0.00000  0.0
    174    175    176    185   5     0.00000    30.33400     0.00000  0.0
    184    175    176    177   5     0.00000    30.33400     0.00000  0.0
    184    175    176    185   5     0.00000    30.33400     0.00000  0.0
    175    176    177    178   5     0.00000    30.33400     0.00000  0.0
    175    176    177    186   5     0.00000    30.33400     0.00000  0.0
    185    176    177    178   5     0.00000    30.33400     0.00000  0.0
    185    176    177    186   5     0.00000    30.33400     0.00000  0.0
    176    177    178    179   5     0.00000    30.33400     0.00000  0.0
    176    177    178    187   5     0.00000    30.33400     0.00000  0.0
    186    177    178    179   5     0.00000    30.33400     0.00000  0.0
    186    177    178    187   5     0.00000    30.33400     0.00000  0.0
    177    178    179    174   5     0.00000    30.33400     0.00000  0.0
    177    178    179    188   5     0.00000    30.33400     0.00000  0.0
    187    178    179    174   5     0.00000    30.33400     0.00000  0.0
    187    178    179    188   5     0.00000    30.33400     0.00000  0.0
    173    180    189    190   5     0.52300    -0.09205     2.34722  0.0
    173    180    189    198   5     0.00000     0.00000     3.10034  0.0
    173    180    189    199   5     0.00000     0.00000     3.10034  0.0
    180    189    190    191   5    -5.38481    -0.35146     1.65686  0.0
    180    189    190    197   5     9.36379    -9.73617    -2.85767  0.0
    180    189    190    200   5     0.00000     0.00000     1.95811  0.0
    198    189    190    191   5     0.00000     0.00000     3.61498  0.0
    198    189    190    197   5     0.00000     0.00000     1.95811  0.0
    198    189    190    200   5     0.00000     0.00000     1.25520  0.0
    199    189    190    191   5     0.00000     0.00000     3.61498  0.0
    199    189    190    197   5     0.00000     0.00000     1.95811  0.0
    199    189    190    200   5     0.00000     0.00000     1.25520  0.0
    189    190    191    192   5     0.00000     0.34727     0.00000  0.0
    189    190    191    196   5     0.00000     0.34727     0.00000  0.0
    197    190    191    192   5     5.39736     1.23846     1.72799  0.0
    197    190    191    196   5     5.39736     1.23846     1.72799  0.0
    200    190    191    192   5     0.00000     0.00000     0.00000  0.0
    200    190    191    196   5     0.00000     0.00000     0.00000  0.0
    189    190    197    206   5     0.52300    -0.09205     2.34722  0.0
    191    190    197    206   5     0.00000     0.00000     3.13800  0.0
    200    190    197    206   5     0.00000     0.00000     3.10034  0.0
    190    191    192    193   5     0.00000    30.33400     0.00000  0.0
    190    191    192    201   5     0.00000    30.33400     0.00000  0.0
    196    191    192    193   5     0.00000    30.33400     0.00000  0.0
    196    191    192    201   5     0.00000    30.33400     0.00000  0.0
    190    191    196    195   5     0.00000    30.33400     0.00000  0.0
    190    191    196    205   5     0.00000    30.33400     0.00000  0.0
    192    191    196    195   5     0.00000    30.33400     0.00000  0.0
    192    191    196    205   5     0.00000    30.33400     0.00000  0.0
    191    192    193    194   5     0.00000    30.33400     0.00000  0.0
    191    192    193    202   5     0.00000    30.33400     0.00000  0.0
    201    192    193    194   5     0.00000    30.33400     0.00000  0.0
    201    192    193    202   5     0.00000    30.33400     0.00000  0.0
    192    193    194    195   5     0.00000    30.33400     0.00000  0.0
    192    193    194    203   5     0.00000    30.33400     0.00000  0.0
    202    193    194    195   5     0.00000    30.33400     0.00000  0.0
    202    193    194    203   5     0.00000    30.33400     0.00000  0.0
    193    194    195    196   5     0.00000    30.33400     0.00000  0.0
    193    194    195    204   5     0.00000    30.33400     0.00000  0.0
    203    194    195    196   5     0.00000    30.33400     0.00000  0.0
    203    194    195    204   5     0.00000    30.33400     0.00000  0.0
    194    195    196    191   5     0.00000    30.33400     0.00000  0.0
    194    195    196    205   5     0.00000    30.33400     0.00000  0.0
    204    195    196    191   5     0.00000    30.33400     0.00000  0.0
    204    195    196    205   5     0.00000    30.33400     0.00000  0.0
    190    197    206    207   5     0.52300    -0.09205     2.34722  0.0
    190    197    206    215   5     0.00000     0.00000     3.10034  0.0
    190    197    206    216   5     0.00000     0.00000     3.10034  0.0
    197    206    207    208   5    -5.38481    -0.35146     1.65686  0.0
    197    206    207    214   5     9.36379    -9.73617    -2.85767  0.0
    197    206    207    217   5     0.00000     0.00000     1.95811  0.0
    215    206    207    208   5     0.00000     0.00000     3.61498  0.0
    215    206    207    214   5     0.00000     0.00000     1.95811  0.0
    215    206    207    217   5     0.00000     0.00000     1.25520  0.0
    216    206    207    208   5     0.00000     0.00000     3.61498  0.0
    216    206    207    214   5     0.00000     0.00000     1.95811  0.0
    216    206    207    217   5     0.00000     0.00000     1.25520  0.0
    206    207    208    209   5     0.00000     0.34727     0.00000  0.0
    206    207    208    213   5     0.00000     0.34727     0.00000  0.0
    214    207    208    209   5     5.39736     1.23846     1.72799  0.0
    214    207    208    213   5     5.39736     1.23846     1.72799  0.0
    217    207    208    209   5     0.00000     0.00000     0.00000  0.0
    217    207    208    213   5     0.00000     0.00000     0.00000  0.0
    206    207    214    223   5     0.52300    -0.09205     2.34722  0.0
    208    207    214    223   5     0.00000     0.00000     3.13800  0.0
    217    207    214    223   5     0.00000     0.00000     3.10034  0.0
    207    208    209    210   5     0.00000    30.33400     0.00000  0.0
    207    208    209    218   5     0.00000    30.33400     0.00000  0.0
    213    208    209    210   5     0.00000    30.33400     0.00000  0.0
    213    208    209    218   5     0.00000    30.33400     0.00000  0.0
    207    208    213    212   5     0.00000    30.33400     0.00000  0.0
    207    208    213    222   5     0.00000    30.33400     0.00000  0.0
    209    208    213    212   5     0.00000    30.33400     0.00000  0.0
    209    208    213    222   5     0.00000    30.33400     0.00000  0.0
    208    209    210    211   5     0.00000    30.33400     0.00000  0.0
    208    209    210    219   5     0.00000    30.33400     0.00000  0.0
    218    209    210    211   5     0.00000    30.33400     0.00000  0.0
    218    209    210    219   5     0.00000    30.33400     0.00000  0.0
    209    210    211    212   5     0.00000    30.33400     0.00000  0.0
    209    210    211    220   5     0.00000    30.33400     0.00000  0.0
    219    210    211    212   5     0.00000    30.33400     0.00000  0.0
    219    210    211    220   5     0.00000    30.33400     0.00000  0.0
    210    211    212    213   5     0.00000    30.33400     0.00000  0.0
    210    211    212    221   5     0.00000    30.33400     0.00000  0.0
    220    211    212    213   5     0.00000    30.33400     0.00000  0.0
    220    211    212    221   5     0.00000    30.33400     0.00000  0.0
    211    212    213    208   5     0.00000    30.33400     0.00000  0.0
    211    212    213    222   5     0.00000    30.33400     0.00000  0.0
    221    212    213    208   5     0.00000    30.33400     0.00000  0.0
    221    212    213    222   5     0.00000    30.33400     0.00000  0.0
    207    214    223    224   5     0.52300    -0.09205     2.34722  0.0
    207    214    223    232   5     0.00000     0.00000     3.10034  0.0
    207    214    223    233   5     0.00000     0.00000     3.10034  0.0
    214    223    224    225   5    -5.38481    -0.35146     1.65686  0.0
    214    223    224    231   5     9.36379    -9.73617    -2.85767  0.0
    214    223    224    234   5     0.00000     0.00000     1.95811  0.0
    232    223    224    225   5     0.00000     0.00000     3.61498  0.0
    232    223    224    231   5     0.00000     0.00000     1.95811  0.0
    232    223    224    234   5     0.00000     0.00000     1.25520  0.0
    233    223    224    225   5     0.00000     0.00000     3.61498  0.0
    233    223    224    231   5     0.00000     0.00000     1.95811  0.0
    233    223    224    234   5     0.00000     0.00000     1.25520  0.0
    223    224    225    226   5     0.00000     0.34727     0.00000  0.0
    223    224    225    230   5     0.00000     0.34727     0.00000  0.0
    231    224    225    226   5     5.39736     1.23846     1.72799  0.0
    231    224    225    230   5     5.39736     1.23846     1.72799  0.0
    234    224    225    226   5     0.00000     0.00000     0.00000  0.0
    234    224    225    230   5     0.00000     0.00000     0.00000  0.0
    223    224    231    240   5     0.52300    -0.09205     2.34722  0.0
    225    224    231    240   5     0.00000     0.00000     3.13800  0.0
    234    224    231    240   5     0.00000     0.00000     3.10034  0.0
    224    225    226    227   5     0.00000    30.33400     0.00000  0.0
    224    225    226    235   5     0.00000    30.33400     0.00000  0.0
    230    225    226    227   5     0.00000    30.33400     0.00000  0.0
    230    225    226    235   5     0.00000    30.33400     0.00000  0.0
    224    225    230    229   5     0.00000    30.33400     0.00000  0.0
    224    225    230    239   5     0.00000    30.33400     0.00000  0.0
    226    225    230    229   5     0.00000    30.33400     0.00000  0.0
    226    225    230    239   5     0.00000    30.33400     0.00000  0.0
    225    226    227    228   5     0.00000    30.33400     0.00000  0.0
    225    226    227    236   5     0.00000    30.33400     0.00000  0.0
    235    226    227    228   5     0.00000    30.33400     0.00000  0.0
    235    226    227    236   5     0.00000    30.33400     0.00000  0.0
    226    227    228    229   5     0.00000    30.33400     0.00000  0.0
    226    227    228    237   5     0.00000    30.33400     0.00000  0.0
    236    227    228    229   5     0.00000    30.33400     0.00000  0.0
    236    227    228    237   5     0.00000    30.33400     0.00000  0.0
    227    228    229    230   5     0.00000    30.33400     0.00000  0.0
    227    228    229    238   5     0.00000    30.33400     0.00000  0.0
    237    228    229    230   5     0.00000    30.33400     0.00000  0.0
    237    228    229    238   5     0.00000    30.33400     0.00000  0.0
    228    229    230    225   5     0.00000    30.33400     0.00000  0.0
    228    229    230    239   5     0.00000    30.33400     0.00000  0.0
    238    229    230    225   5     0.00000    30.33400     0.00000  0.0
    238    229    230    239   5     0.00000    30.33400     0.00000  0.0
    224    231    240    241   5     0.52300    -0.09205     2.34722  0.0
    224    231    240    249   5     0.00000     0.00000     3.10034  0.0
    224    231    240    250   5     0.00000     0.00000     3.10034  0.0
    231    240    241    242   5    -5.38481    -0.35146     1.65686  0.0
    231    240    241    248   5     9.36379    -9.73617    -2.85767  0.0
    231    240    241    251   5     0.00000     0.00000     1.95811  0.0
    249    240    241    242   5     0.00000     0.00000     3.61498  0.0
    249    240    241    248   5     0.00000     0.00000     1.95811  0.0
    249    240    241    251   5     0.00000     0.00000     1.25520  0.0
    250    240    241    242   5     0.00000     0.00000     3.61498  0.0
    250    240    241    248   5     0.00000     0.00000     1.95811  0.0
    250    240    241    251   5     0.00000     0.00000     1.25520  0.0
    240    241    242    243   5     0.00000     0.34727     0.00000  0.0
    240    241    242    247   5     0.00000     0.34727     0.00000  0.0
    248    241    242    243   5     5.39736     1.23846     1.72799  0.0
    248    241    242    247   5     5.39736     1.23846     1.72799  0.0
    251    241    242    243   5     0.00000     0.00000     0.00000  0.0
    251    241    242    247   5     0.00000     0.00000     0.00000  0.0
    240    241    248    257   5     0.52300    -0.09205     2.34722  0.0
    242    241    248    257   5     0.00000     0.00000     3.13800  0.0
    251    241    248    257   5     0.00000     0.00000     3.10034  0.0
    241    242    243    244   5     0.00000    30.33400     0.00000  0.0
    241    242    243    252   5     0.00000    30.33400     0.00000  0.0
    247    242    243    244   5     0.00000    30.33400     0.00000  0.0
    247    242    243    252   5     0.00000    30.33400     0.00000  0.0
    241    242    247    246   5     0.00000    30.33400     0.00000  0.0
    241    242    247    256   5     0.00000    30.33400     0.00000  0.0
    243    242    247    246   5     0.00000    30.33400     0.00000  0.0
    243    242    247    256   5     0.00000    30.33400     0.00000  0.0
    242    243    244    245   5     0.00000    30.33400     0.00000  0.0
    242    243    244    253   5     0.00000    30.33400     0.00000  0.0
    252    243    244    245   5     0.00000    30.33400     0.00000  0.0
    252    243    244    253   5     0.00000    30.33400     0.00000  0.0
    243    244    245    246   5     0.00000    30.33400     0.00000  0.0
    243    244    245    254   5     0.00000    30.33400     0.00000  0.0
    253    244    245    246   5     0.00000    30.33400     0.00000  0.0
    253    244    245    254   5     0.00000    30.33400     0.00000  0.0
    244    245    246    247   5     0.00000    30.33400     0.00000  0.0
    244    245    246    255   5     0.00000    30.33400     0.00000  0.0
    254    245    246    247   5     0.00000    30.33400     0.00000  0.0
    254    245    246    255   5     0.00000    30.33400     0.00000  0.0
    245    246    247    242   5     0.00000    30.33400     0.00000  0.0
    245    246    247    256   5     0.00000    30.33400     0.00000  0.0
    255    246    247    242   5     0.00000    30.33400     0.00000  0.0
    255    246    247    256   5     0.00000    30.33400     0.00000  0.0
    241    248    257    258   5     0.52300    -0.09205     2.34722  0.0
    241    248    257    266   5     0.00000     0.00000     3.10034  0.0
    241    248    257    267   5     0.00000     0.00000     3.10034  0.0
    248    257    258    259   5    -5.38481    -0.35146     1.65686  0.0
    248    257    258    265   5     9.36379    -9.73617    -2.85767  0.0
    248    257    258    268   5     0.00000     0.00000     1.95811  0.0
    266    257    258    259   5     0.00000     0.00000     3.61498  0.0
    266    257    258    265   5     0.00000     0.00000     1.95811  0.0
    266    257    258    268   5     0.00000     0.00000     1.25520  0.0
    267    257    258    259   5     0.00000     0.00000     3.61498  0.0
    267    257    258    265   5     0.00000     0.00000     1.95811  0.0
    267    257    258    268   5     0.00000     0.00000     1.25520  0.0
    257    258    259    260   5     0.00000     0.34727     0.00000  0.0
    257    258    259    264   5     0.00000     0.34727     0.00000  0.0
    265    258    259    260   5     5.39736     1.23846     1.72799  0.0
    265    258    259    264   5     5.39736     1.23846     1.72799  0.0
    268    258    259    260   5     0.00000     0.00000     0.00000  0.0
    268    258    259    264   5     0.00000     0.00000     0.00000  0.0
    257    258    265    274   5     0.52300    -0.09205     2.34722  0.0
    259    258    265    274   5     0.00000     0.00000     3.13800  0.0
    268    258    265    274   5     0.00000     0.00000     3.10034  0.0
    258    259    260    261   5     0.00000    30.33400     0.00000  0.0
    258    259    260    269   5     0.00000    30.33400     0.00000  0.0
    264    259    260    261   5     0.00000    30.33400     0.00000  0.0
    264    259    260    269   5     0.00000    30.33400     0.00000  0.0
    258    259    264    263   5     0.00000    30.33400     0.00000  0.0
    258    259    264    273   5     0.00000    30.33400     0.00000  0.0
    260    259    264    263   5     0.00000    30.33400     0.00000  0.0
    260    259    264    273   5     0.00000    30.33400     0.00000  0.0
    259    260    261    262   5     0.00000    30.33400     0.00000  0.0
    259    260    261    270   5     0.00000    30.33400     0.00000  0.0
    269    260    261    262   5     0.00000    30.33400     0.00000  0.0
    269    260    261    270   5     0.00000    30.33400     0.00000  0.0
    260    261    262    263   5     0.00000    30.33400     0.00000  0.0
    260    261    262    271   5     0.00000    30.33400     0.00000  0.0
    270    261    262    263   5     0.00000    30.33400     0.00000  0.0
    270    261    262    271   5     0.00000    30.33400     0.00000  0.0
    261    262    263    264   5     0.00000    30.33400     0.00000  0.0
    261    262    263    272   5     0.00000    30.33400     0.00000  0.0
    271    262    263    264   5     0.00000    30.33400     0.00000  0.0
    271    262    263    272   5     0.00000    30.33400     0.00000  0.0
    262    263    264    259   5     0.00000    30.33400     0.00000  0.0
    262    263    264    273   5     0.00000    30.33400     0.00000  0.0
    272    263    264    259   5     0.00000    30.33400     0.00000  0.0
    272    263    264    273   5     0.00000    30.33400     0.00000  0.0
    258    265    274    275   5     0.52300    -0.09205     2.34722  0.0
    258    265    274    283   5     0.00000     0.00000     3.10034  0.0
    258    265    274    284   5     0.00000     0.00000     3.10034  0.0
    265    274    275    276   5    -5.38481    -0.35146     1.65686  0.0
    265    274    275    282   5     9.36379    -9.73617    -2.85767  0.0
    265    274    275    285   5     0.00000     0.00000     1.95811  0.0
    283    274    275    276   5     0.00000     0.00000     3.61498  0.0
    283    274    275    282   5     0.00000     0.00000     1.95811  0.0
    283    274    275    285   5     0.00000     0.00000     1.25520  0.0
    284    274    275    276   5     0.00000     0.00000     3.61498  0.0
    284    274    275    282   5     0.00000     0.00000     1.95811  0.0
    284    274    275    285   5     0.00000     0.00000     1.25520  0.0
    274    275    276    277   5     0.00000     0.34727     0.00000  0.0
    274    275    276    281   5     0.00000     0.34727     0.00000  0.0
    282    275    276    277   5     5.39736     1.23846     1.72799  0.0
    282    275    276    281   5     5.39736     1.23846     1.72799  0.0
    285    275    276    277   5     0.00000     0.00000     0.00000  0.0
    285    275    276    281   5     0.00000     0.00000     0.00000  0.0
    274    275    282    291   5     0.52300    -0.09205     2.34722  0.0
    276    275    282    291   5     0.00000     0.00000     3.13800  0.0
    285    275    282    291   5     0.00000     0.00000     3.10034  0.0
    275    276    277    278   5     0.00000    30.33400     0.00000  0.0
    275    276    277    286   5     0.00000    30.33400     0.00000  0.0
    281    276    277    278   5     0.00000    30.33400     0.00000  0.0
    281    276    277    286   5     0.00000    30.33400     0.00000  0.0
    275    276    281    280   5     0.00000    30.33400     0.00000  0.0
    275    276    281    290   5     0.00000    30.33400     0.00000  0.0
    277    276    281    280   5     0.00000    30.33400     0.00000  0.0
    277    276    281    290   5     0.00000    30.33400     0.00000  0.0
    276    277    278    279   5     0.00000    30.33400     0.00000  0.0
    276    277    278    287   5     0.00000    30.33400     0.00000  0.0
    286    277    278    279   5     0.00000    30.33400     0.00000  0.0
    286    277    278    287   5     0.00000    30.33400     0.00000  0.0
    277    278    279    280   5     0.00000    30.33400     0.00000  0.0
    277    278    279    288   5     0.00000    30.33400     0.00000  0.0
    287    278    279    280   5     0.00000    30.33400     0.00000  0.0
    287    278    279    288   5     0.00000    30.33400     0.00000  0.0
    278    279    280    281   5     0.00000    30.33400     0.00000  0.0
    278    279    280    289   5     0.00000    30.33400     0.00000  0.0
    288    279    280    281   5     0.00000    30.33400     0.00000  0.0
    288    279    280    289   5     0.00000    30.33400     0.00000  0.0
    279    280    281    276   5     0.00000    30.33400     0.00000  0.0
    279    280    281    290   5     0.00000    30.33400     0.00000  0.0
    289    280    281    276   5     0.00000    30.33400     0.00000  0.0
    289    280    281    290   5     0.00000    30.33400     0.00000  0.0
    275    282    291    292   5     0.52300    -0.09205     2.34722  0.0
    275    282    291    300   5     0.00000     0.00000     3.10034  0.0
    275    282    291    301   5     0.00000     0.00000     3.10034  0.0
    282    291    292    293   5    -5.38481    -0.35146     1.65686  0.0
    282    291    292    299   5     9.36379    -9.73617    -2.85767  0.0
    282    291    292    302   5     0.00000     0.00000     1.95811  0.0
    300    291    292    293   5     0.00000     0.00000     3.61498  0.0
    300    291    292    299   5     0.00000     0.00000     1.95811  0.0
    300    291    292    302   5     0.00000     0.00000     1.25520  0.0
    301    291    292    293   5     0.00000     0.00000     3.61498  0.0
    301    291    292    299   5     0.00000     0.00000     1.95811  0.0
    301    291    292    302   5     0.00000     0.00000     1.25520  0.0
    291    292    293    294   5     0.00000     0.34727     0.00000  0.0
    291    292    293    298   5     0.00000     0.34727     0.00000  0.0
    299    292    293    294   5     5.39736     1.23846     1.72799  0.0
    299    292    293    298   5     5.39736     1.23846     1.72799  0.0
    302    292    293    294   5     0.00000     0.00000     0.00000  0.0
    302    292    293    298   5     0.00000     0.00000     0.00000  0.0
    291    292    299    308   5     0.52300    -0.09205     2.34722  0.0
    293    292    299    308   5     0.00000     0.00000     3.13800  0.0
    302    292    299    308   5     0.00000     0.00000     3.10034  0.0
    292    293    294    295   5     0.00000    30.33400     0.00000  0.0
    292    293    294    303   5     0.00000    30.33400     0.00000  0.0
    298    293    294    295   5     0.00000    30.33400     0.00000  0.0
    298    293    294    303   5     0.00000    30.33400     0.00000  0.0
    292    293    298    297   5     0.00000    30.33400     0.00000  0.0
    292    293    298    307   5     0.00000    30.33400     0.00000  0.0
    294    293    298    297   5     0.00000    30.33400     0.00000  0.0
    294    293    298    307   5     0.00000    30.33400     0.00000  0.0
    293    294    295    296   5     0.00000    30.33400     0.00000  0.0
    293    294    295    304   5     0.00000    30.33400     0.00000  0.0
    303    294    295    296   5     0.00000    30.33400     0.00000  0.0
    303    294    295    304   5     0.00000    30.33400     0.00000  0.0
    294    295    296    297   5     0.00000    30.33400     0.00000  0.0
    294    295    296    305   5     0.00000    30.33400     0.00000  0.0
    304    295    296    297   5     0.00000    30.33400     0.00000  0.0
    304    295    296    305   5     0.00000    30.33400     0.00000  0.0
    295    296    297    298   5     0.00000    30.33400     0.00000  0.0
    295    296    297    306   5     0.00000    30.33400     0.00000  0.0
    305    296    297    298   5     0.00000    30.33400     0.00000  0.0
    305    296    297    306   5     0.00000    30.33400     0.00000  0.0
    296    297    298    293   5     0.00000    30.33400     0.00000  0.0
    296    297    298    307   5     0.00000    30.33400     0.00000  0.0
    306    297    298    293   5     0.00000    30.33400     0.00000  0.0
    306    297    298    307   5     0.00000    30.33400     0.00000  0.0
    292    299    308    309   5     0.52300    -0.09205     2.34722  0.0
    292    299    308    317   5     0.00000     0.00000     3.10034  0.0
    292    299    308    318   5     0.00000     0.00000     3.10034  0.0
    299    308    309    310   5    -5.38481    -0.35146     1.65686  0.0
    299    308    309    316   5     9.36379    -9.73617    -2.85767  0.0
    299    308    309    319   5     0.00000     0.00000     1.95811  0.0
    317    308    309    310   5     0.00000     0.00000     3.61498  0.0
    317    308    309    316   5     0.00000     0.00000     1.95811  0.0
    317    308    309    319   5     0.00000     0.00000     1.25520  0.0
    318    308    309    310   5     0.00000     0.00000     3.61498  0.0
    318    308    309    316   5     0.00000     0.00000     1.95811  0.0
    318    308    309    319   5     0.00000     0.00000     1.25520  0.0
    308    309    310    311   5     0.00000     0.34727     0.00000  0.0
    308    309    310    315   5     0.00000     0.34727     0.00000  0.0
    316    309    310    311   5     5.39736     1.23846     1.72799  0.0
    316    309    310    315   5     5.39736     1.23846     1.72799  0.0
    319    309    310    311   5     0.00000     0.00000     0.00000  0.0
    319    309    310    315   5     0.00000     0.00000     0.00000  0.0
    308    309    316    325   5     0.52300    -0.09205     2.34722  0.0
    310    309    316    325   5     0.00000     0.00000     3.13800  0.0
    319    309    316    325   5     0.00000     0.00000     3.10034  0.0
    309    310    311    312   5     0.00000    30.33400     0.00000  0.0
    309    310    311    320   5     0.00000    30.33400     0.00000  0.0
    315    310    311    312   5     0.00000    30.33400     0.00000  0.0
    315    310    311    320   5     0.00000    30.33400     0.00000  0.0
    309    310    315    314   5     0.00000    30.33400     0.00000  0.0
    309    310    315    324   5     0.00000    30.33400     0.00000  0.0
    311    310    315    314   5     0.00000    30.33400     0.00000  0.0
    311    310    315    324   5     0.00000    30.33400     0.00000  0.0
    310    311    312    313   5     0.00000    30.33400     0.00000  0.0
    310    311    312    321   5     0.00000    30.33400     0.00000  0.0
    320    311    312    313   5     0.00000    30.33400     0.00000  0.0
    320    311    312    321   5     0.00000    30.33400     0.00000  0.0
    311    312    313    314   5     0.00000    30.33400     0.00000  0.0
    311    312    313    322   5     0.00000    30.33400     0.00000  0.0
    321    312    313    314   5     0.00000    30.33400     0.00000  0.0
    321    312    313    322   5     0.00000    30.33400     0.00000  0.0
    312    313    314    315   5     0.00000    30.33400     0.00000  0.0
    312    313    314    323   5     0.00000    30.33400     0.00000  0.0
    322    313    314    315   5     0.00000    30.33400     0.00000  0.0
    322    313    314    323   5     0.00000    30.33400     0.00000  0.0
    313    314    315    310   5     0.00000    30.33400     0.00000  0.0
    313    314    315    324   5     0.00000    30.33400     0.00000  0.0
    323    314    315    310   5     0.00000    30.33400     0.00000  0.0
    323    314    315    324   5     0.00000    30.33400     0.00000  0.0
    309    316    325    326   5     0.52300    -0.09205     2.34722  0.0
    309    316    325    334   5     0.00000     0.00000     3.10034  0.0
    309    316    325    335   5     0.00000     0.00000     3.10034  0.0
    316    325    326    327   5    -5.38481    -0.35146     1.65686  0.0
    316    325    326    333   5    30.90721   -15.30926     0.00000  0.0
    316    325    326    336   5     0.00000     0.00000     1.95811  0.0
    334    325    326    327   5     0.00000     0.00000     3.61498  0.0
    334    325    326    333   5     0.00000     0.00000     1.95811  0.0
    334    325    326    336   5     0.00000     0.00000     1.25520  0.0
    335    325    326    327   5     0.00000     0.00000     3.61498  0.0
    335    325    326    333   5     0.00000     0.00000     1.95811  0.0
    335    325    326    336   5     0.00000     0.00000     1.25520  0.0
    325    326    327    328   5     0.00000     0.34727     0.00000  0.0
    325    326    327    332   5     0.00000     0.34727     0.00000  0.0
    333    326    327    328   5     0.00000     1.19662     0.02510  0.0
    333    326    327    332   5     0.00000     1.19662     0.02510  0.0
    336    326    327    328   5     0.00000     0.00000     0.00000  0.0
    336    326    327    332   5     0.00000     0.00000     0.00000  0.0
    325    326    333    342   5    -0.97069    -0.79078     1.77820  0.0
    327    326    333    342   5     2.66939    -0.98742     3.24260  0.0
    336    326    333    342   5     0.00000     0.00000     1.62758  0.0
    326    327    328    329   5     0.00000    30.33400     0.00000  0.0
    326    327    328    337   5     0.00000    30.33400     0.00000  0.0
    332    327    328    329   5     0.00000    30.33400     0.00000  0.0
    332    327    328    337   5     0.00000    30.33400     0.00000  0.0
    326    327    332    331   5     0.00000    30.33400     0.00000  0.0
    326    327    332    341   5     0.00000    30.33400     0.00000  0.0
    328    327    332    331   5     0.00000    30.33400     0.00000  0.0
    328    327    332    341   5     0.00000    30.33400     0.00000  0.0
    327    328    329    330   5     0.00000    30.33400     0.00000  0.0
    327    328    329    338   5     0.00000    30.33400     0.00000  0.0
    337    328    329    330   5     0.00000    30.33400     0.00000  0.0
    337    328    329    338   5     0.00000    30.33400     0.00000  0.0
    328    329    330    331   5     0.00000    30.33400     0.00000  0.0
    328    329    330    339   5     0.00000    30.33400     0.00000  0.0
    338    329    330    331   5     0.00000    30.33400     0.00000  0.0
    338    329    330    339   5     0.00000    30.33400     0.00000  0.0
    329    330    331    332   5     0.00000    30.33400     0.00000  0.0
    329    330    331    340   5     0.00000    30.33400     0.00000  0.0
    339    330    331    332   5     0.00000    30.33400     0.00000  0.0
    339    330    331    340   5     0.00000    30.33400     0.00000  0.0
    330    331    332    327   5     0.00000    30.33400     0.00000  0.0
    330    331    332    341   5     0.00000    30.33400     0.00000  0.0
    340    331    332    327   5     0.00000    30.33400     0.00000  0.0
    340    331    332    341   5     0.00000    30.33400     0.00000  0.0

[ dihedrals ]
; Improper dihedrals
; h   i   j   k   funct
      2      4      3      8   5     0.00000    33.47200     0.00000  0.0
      3      5      4     13   5     0.00000     9.20480     0.00000  0.0
      4      6      5     14   5     0.00000     9.20480     0.00000  0.0
      5      7      6     15   5     0.00000     9.20480     0.00000  0.0
      6      8      7     16   5     0.00000     9.20480     0.00000  0.0
      3      7      8     17   5     0.00000     9.20480     0.00000  0.0
     20     22     21     26   5     0.00000    33.47200     0.00000  0.0
     21     23     22     31   5     0.00000     9.20480     0.00000  0.0
     22     24     23     32   5     0.00000     9.20480     0.00000  0.0
     23     25     24     33   5     0.00000     9.20480     0.00000  0.0
     24     26     25     34   5     0.00000     9.20480     0.00000  0.0
     21     25     26     35   5     0.00000     9.20480     0.00000  0.0
     37     39     38     43   5     0.00000    33.47200     0.00000  0.0
     38     40     39     48   5     0.00000     9.20480     0.00000  0.0
     39     41     40     49   5     0.00000     9.20480     0.00000  0.0
     40     42     41     50   5     0.00000     9.20480     0.00000  0.0
     41     43     42     51   5     0.00000     9.20480     0.00000  0.0
     38     42     43     52   5     0.00000     9.20480     0.00000  0.0
     54     56     55     60   5     0.00000    33.47200     0.00000  0.0
     55     57     56     65   5     0.00000     9.20480     0.00000  0.0
     56     58     57     66   5     0.00000     9.20480     0.00000  0.0
     57     59     58     67   5     0.00000     9.20480     0.00000  0.0
     58     60     59     68   5     0.00000     9.20480     0.00000  0.0
     55     59     60     69   5     0.00000     9.20480     0.00000  0.0
     71     73     72     77   5     0.00000    33.47200     0.00000  0.0
     72     74     73     82   5     0.00000     9.20480     0.00000  0.0
     73     75     74     83   5     0.00000     9.20480     0.00000  0.0
     74     76     75     84   5     0.00000     9.20480     0.00000  0.0
     75     77     76     85   5     0.00000     9.20480     0.00000  0.0
     72     76     77     86   5     0.00000     9.20480     0.00000  0.0
     88     90     89     94   5     0.00000    33.47200     0.00000  0.0
     89     91     90     99   5     0.00000     9.20480     0.00000  0.0
     90     92     91    100   5     0.00000     9.20480     0.00000  0.0
     91     93     92    101   5     0.00000     9.20480     0.00000  0.0
     92     94     93    102   5     0.00000     9.20480     0.00000  0.0
     89     93     94    103   5     0.00000     9.20480     0.00000  0.0
    105    107    106    111   5     0.00000    33.47200     0.00000  0.0
    106    108    107    116   5     0.00000     9.20480     0.00000  0.0
    107    109    108    117   5     0.00000     9.20480     0.00000  0.0
    108    110    109    118   5     0.00000     9.20480     0.00000  0.0
    109    111    110    119   5     0.00000     9.20480     0.00000  0.0
    106    110    111    120   5     0.00000     9.20480     0.00000  0.0
    122    124    123    128   5     0.00000    33.47200     0.00000  0.0
    123    125    124    133   5     0.00000     9.20480     0.00000  0.0
    124    126    125    134   5     0.00000     9.20480     0.00000  0.0
    125    127    126    135   5     0.00000     9.20480     0.00000  0.0
    126    128    127    136   5     0.00000     9.20480     0.00000  0.0
    123    127    128    137   5     0.00000     9.20480     0.00000  0.0
    139    141    140    145   5     0.00000    33.47200     0.00000  0.0
    140    142    141    150   5     0.00000     9.20480     0.00000  0.0
    141    143    142    151   5     0.00000     9.20480     0.00000  0.0
    142    144    143    152   5     0.00000     9.20480     0.00000  0.0
    143    145    144    153   5     0.00000     9.20480     0.00000  0.0
    140    144    145    154   5     0.00000     9.20480     0.00000  0.0
    156    158    157    162   5     0.00000    33.47200     0.00000  0.0
    157    159    158    167   5     0.00000     9.20480     0.00000  0.0
    158    160    159    168   5     0.00000     9.20480     0.00000  0.0
    159    161    160    169   5     0.00000     9.20480     0.00000  0.0
    160    162    161    170   5     0.00000     9.20480     0.00000  0.0
    157    161    162    171   5     0.00000     9.20480     0.00000  0.0
    173    175    174    179   5     0.00000    33.47200     0.00000  0.0
    174    176    175    184   5     0.00000     9.20480     0.00000  0.0
    175    177    176    185   5     0.00000     9.20480     0.00000  0.0
    176    178    177    186   5     0.00000     9.20480     0.00000  0.0
    177    179    178    187   5     0.00000     9.20480     0.00000  0.0
    174    178    179    188   5     0.00000     9.20480     0.00000  0.0
    190    192    191    196   5     0.00000    33.47200     0.00000  0.0
    191    193    192    201   5     0.00000     9.20480     0.00000  0.0
    192    194    193    202   5     0.00000     9.20480     0.00000  0.0
    193    195    194    203   5     0.00000     9.20480     0.00000  0.0
    194    196    195    204   5     0.00000     9.20480     0.00000  0.0
    191    195    196    205   5     0.00000     9.20480     0.00000  0.0
    207    209    208    213   5     0.00000    33.47200     0.00000  0.0
    208    210    209    218   5     0.00000     9.20480     0.00000  0.0
    209    211    210    219   5     0.00000     9.20480     0.00000  0.0
    210    212    211    220   5     0.00000     9.20480     0.00000  0.0
    211    213    212    221   5     0.00000     9.20480     0.00000  0.0
    208    212    213    222   5     0.00000     9.20480     0.00000  0.0
    224    226    225    230   5     0.00000    33.47200     0.00000  0.0
    225    227    226    235   5     0.00000     9.20480     0.00000  0.0
    226    228    227    236   5     0.00000     9.20480     0.00000  0.0
    227    229    228    237   5     0.00000     9.20480     0.00000  0.0
    228    230    229    238   5     0.00000     9.20480     0.00000  0.0
    225    229    230    239   5     0.00000     9.20480     0.00000  0.0
    241    243    242    247   5     0.00000    33.47200     0.00000  0.0
    242    244    243    252   5     0.00000     9.20480     0.00000  0.0
    243    245    244    253   5     0.00000     9.20480     0.00000  0.0
    244    246    245    254   5     0.00000     9.20480     0.00000  0.0
    245    247    246    255   5     0.00000     9.20480     0.00000  0.0
    242    246    247    256   5     0.00000     9.20480     0.00000  0.0
    258    260    259    264   5     0.00000    33.47200     0.00000  0.0
    259    261    260    269   5     0.00000     9.20480     0.00000  0.0
    260    262    261    270   5     0.00000     9.20480     0.00000  0.0
    261    263    262    271   5     0.00000     9.20480     0.00000  0.0
    262    264    263    272   5     0.00000     9.20480     0.00000  0.0
    259    263    264    273   5     0.00000     9.20480     0.00000  0.0
    275    277    276    281   5     0.00000    33.47200     0.00000  0.0
    276    278    277    286   5     0.00000     9.20480     0.00000  0.0
    277    279    278    287   5     0.00000     9.20480     0.00000  0.0
    278    280    279    288   5     0.00000     9.20480     0.00000  0.0
    279    281    280    289   5     0.00000     9.20480     0.00000  0.0
    276    280    281    290   5     0.00000     9.20480     0.00000  0.0
    292    294    293    298   5     0.00000    33.47200     0.00000  0.0
    293    295    294    303   5     0.00000     9.20480     0.00000  0.0
    294    296    295    304   5     0.00000     9.20480     0.00000  0.0
    295    297    296    305   5     0.00000     9.20480     0.00000  0.0
    296    298    297    306   5     0.00000     9.20480     0.00000  0.0
    293    297    298    307   5     0.00000     9.20480     0.00000  0.0
    309    311    310    315   5     0.00000    33.47200     0.00000  0.0
    310    312    311    320   5     0.00000     9.20480     0.00000  0.0
    311    313    312    321   5     0.00000     9.20480     0.00000  0.0
    312    314    313    322   5     0.00000     9.20480     0.00000  0.0
    313    315    314    323   5     0.00000     9.20480     0.00000  0.0
    310    314    315    324   5     0.00000     9.20480     0.00000  0.0
    326    328    327    332   5     0.00000    33.47200     0.00000  0.0
    327    329    328    337   5     0.00000     9.20480     0.00000  0.0
    328    330    329    338   5     0.00000     9.20480     0.00000  0.0
    329    331    330    339   5     0.00000     9.20480     0.00000  0.0
    330    332    331    340   5     0.00000     9.20480     0.00000  0.0
    327    331    332    341   5     0.00000     9.20480     0.00000  0.0
