Control file title. For DL_FIELD 4.10
49932
    1MOL     C1    1   5.821   1.608   7.681 -0.6114  0.3857  0.0862
    1MOL     C2    2   5.878   1.483   7.609 -0.2765  0.3728  0.3916
    1MOL     C3    3   6.015   1.509   7.550  0.0518  0.2719 -0.2069
    1MOL     C4    4   6.032   1.595   7.439  0.2399 -0.1328 -0.8057
    1MOL     C5    5   6.161   1.612   7.383  1.2855 -0.0437 -0.1906
    1MOL     C6    6   6.271   1.548   7.445 -0.1135 -0.0024  0.1657
    1MOL     C7    7   6.259   1.454   7.553  0.9432  0.4125 -0.5904
    1MOL     C8    8   6.128   1.438   7.604  0.2621  0.0058 -0.1787
    1MOL     O9    9   5.786   1.415   7.523  0.0921 -0.2626  0.2012
    1MOL    H10   10   5.900   1.659   7.737 -0.3138 -0.2299  0.2331
    1MOL    H11   11   5.780   1.674   7.605 -0.2455 -0.1949 -0.6142
    1MOL    H12   12   5.895   1.407   7.686  0.7868 -0.4191 -0.6053
    1MOL    H13   13   5.956   1.666   7.407  0.7405  0.4473 -0.7131
    1MOL    H14   14   6.182   1.684   7.305 -1.9247 -1.3472 -2.3828
    1MOL    H15   15   6.370   1.571   7.408 -0.3706  1.1822  0.1902
    1MOL    H16   16   6.336   1.401   7.606  1.6490 -0.4771 -2.4938
    1MOL    H17   17   6.118   1.367   7.685  2.5739  0.2173  0.3326
    1MOL    H18   18   5.749   1.581   7.758 -0.9430  0.0135 -0.3542
    1MOL    C19   19   5.836   1.291   7.477  0.1264  0.1081 -0.0713
    1MOL    C20   20   5.735   1.210   7.403  0.0172  0.6852  1.0439
    1MOL    C21   21   5.603   1.196   7.476  0.3179 -0.4454  0.4951
    1MOL    C22   22   5.494   1.287   7.455 -0.4570  0.4604 -0.1368
    1MOL    C23   23   5.373   1.264   7.527  0.3067 -0.3622 -0.3058
    1MOL    C24   24   5.363   1.157   7.621 -0.5491 -0.0956 -0.4663
    1MOL    C25   25   5.469   1.068   7.643  0.3064 -0.3768 -0.4307
    1MOL    C26   26   5.587   1.091   7.568 -0.1162  1.1713  0.1176
    1MOL    O27   27   5.801   1.087   7.379  0.6478  0.0430 -0.2200
    1MOL    H28   28   5.910   1.312   7.399  1.2715 -0.1708  0.9221
    1MOL    H29   29   5.879   1.232   7.558 -1.4398 -0.2070  0.5583
    1MOL    H30   30   5.718   1.268   7.311  1.7255  0.7395  0.7574
    1MOL    H31   31   5.499   1.369   7.386 -0.1357 -1.7926 -2.8626
    1MOL    H32   32   5.287   1.328   7.511  0.8571  0.7105  0.9013
    1MOL    H33   33   5.268   1.149   7.672 -1.4832 -4.0892 -2.5662
    1MOL    H34   34   5.463   0.990   7.718  1.0899  0.6799  0.7391
    1MOL    H35   35   5.660   1.013   7.586 -0.3760  1.1463  1.0769
    1MOL    C36   36   5.725   1.023   7.276  0.2447 -0.1210  0.6639
    1MOL    C37   37   5.793   0.889   7.234  0.0039 -0.3486  0.7142
    1MOL    C38   38   5.947   0.900   7.221  0.1962 -0.2256  0.6567
    1MOL    C39   39   6.006   0.990   7.134 -0.1777  0.4428 -0.5822
    1MOL    C40   40   6.149   0.998   7.116 -0.0971 -0.4288 -0.2379
    1MOL    C41   41   6.233   0.911   7.192  0.2613 -0.0581  0.6638
    1MOL    C42   42   6.173   0.823   7.288 -0.3817  0.4196 -0.5926
    1MOL    C43   43   6.030   0.816   7.299 -0.0190 -0.1663 -0.3867
    1MOL    O44   44   5.722   0.839   7.121 -0.1676 -0.0951  0.4582
    1MOL    H45   45   5.628   0.987   7.309  0.0075  0.4268  0.5661
    1MOL    H46   46   5.715   1.081   7.184 -0.7999  0.1535  0.9456
    1MOL    H47   47   5.770   0.820   7.315  2.9160 -2.6309 -0.3343
    1MOL    H48   48   5.939   1.046   7.071 -2.1561  0.2379  1.2476
    1MOL    H49   49   6.189   1.065   7.042  1.1336  1.1332  1.7997
    1MOL    H50   50   6.339   0.923   7.179  0.0562  1.4451  0.2318
    1MOL    H51   51   6.239   0.752   7.335 -2.5723 -0.3289  1.4467
    1MOL    H52   52   5.982   0.745   7.364  0.6415 -0.6570 -0.4288
    1MOL    C53   53   5.754   0.706   7.089 -0.1878  0.6610 -0.0943
    1MOL    C54   54   5.653   0.644   6.988  0.3670 -0.2457  0.3757
    1MOL    C55   55   5.695   0.506   6.932  0.5283  0.1478 -0.1459
    1MOL    C56   56   5.727   0.488   6.796 -0.0249  0.4019  0.5661
    1MOL    C57   57   5.769   0.358   6.749  0.0707 -0.0718 -0.5893
    1MOL    C58   58   5.797   0.259   6.849  0.4173 -0.0370  0.0259
    1MOL    C59   59   5.783   0.278   6.986 -0.6922  0.0574 -0.4389
    1MOL    C60   60   5.733   0.402   7.028 -0.0648  0.3961 -0.6286
    1MOL    O61   61   5.540   0.637   7.070  0.1130  0.6960 -0.3650
    1MOL    H62   62   5.858   0.713   7.057 -0.0402 -0.5916  0.0563
    1MOL    H63   63   5.759   0.639   7.175  2.4827 -0.3150 -0.9473
    1MOL    H64   64   5.643   0.711   6.903 -1.6422 -3.0851 -1.7080
    1MOL    H65   65   5.716   0.569   6.726 -0.7882  0.4102  0.6898
    1MOL    H66   66   5.790   0.354   6.643 -1.2406  0.9558 -0.8992
    1MOL    H67   67   5.839   0.163   6.822 -0.0628 -0.1398 -0.3627
    1MOL    H68   68   5.819   0.210   7.062 -1.6161  1.3677  1.1707
    1MOL    H69   69   5.721   0.419   7.134  2.2156  0.7707 -0.4085
    1MOL    C70   70   5.418   0.603   7.007  0.2739  0.3353  0.3416
    1MOL    C71   71   5.293   0.610   7.097 -0.1555 -0.2724 -0.1976
    1MOL    C72   72   5.269   0.738   7.182 -0.1667  0.5364  0.1694
    1MOL    C73   73   5.136   0.768   7.215  0.0596 -0.1514 -0.0151
    1MOL    C74   74   5.104   0.879   7.284 -0.1988  1.0018  0.4365
    1MOL    C75   75   5.204   0.965   7.342 -0.6644 -0.8485  0.3488
    1MOL    C76   76   5.337   0.935   7.314 -0.4005 -0.0766 -0.1591
    1MOL    C77   77   5.369   0.822   7.232  0.0484 -0.3185  0.6422
    1MOL    O78   78   5.271   0.489   7.167  1.3039  0.0006  0.8526
    1MOL    H79   79   5.406   0.671   6.922  2.8034 -0.7865 -0.9714
    1MOL    H80   80   5.435   0.511   6.951  2.5675 -0.0858  1.6789
    1MOL    H81   81   5.223   0.617   7.014  1.8719  0.9879 -1.8804
    1MOL    H82   82   5.063   0.704   7.167  0.0365  1.6168 -2.4806
    1MOL    H83   83   5.000   0.886   7.311 -0.9067  0.5304 -2.0802
    1MOL    H84   84   5.182   1.049   7.407  0.6784 -0.3000  0.1161
    1MOL    H85   85   5.411   0.998   7.362  0.4676  0.2342 -1.8864
    1MOL    H86   86   5.471   0.790   7.219  0.0856 -0.1884  0.6246
    1MOL    C87   87   5.367   0.446   7.262  0.5924  0.4935  1.1004
    1MOL    C88   88   5.330   0.304   7.302  0.4034  0.0487 -0.5958
    1MOL    C89   89   5.366   0.202   7.194  0.0502  0.2504  0.0507
    1MOL    C90   90   5.277   0.183   7.088  0.0522 -0.1022 -0.5822
    1MOL    C91   91   5.320   0.100   6.986 -0.3106 -0.6075  0.4614
    1MOL    C92   92   5.449   0.051   6.977  0.5153  0.0073  0.7776
    1MOL    C93   93   5.535   0.070   7.080 -0.0615 -0.7839 -0.6672
    1MOL    C94   94   5.498   0.156   7.188  0.3938 -0.3377 -0.2202
    1MOL    O95   95   5.194   0.294   7.345 -0.1225  0.5200 -0.0050
    1MOL    H96   96   5.358   0.503   7.354 -2.0841  0.1952  1.0857
    1MOL    H97   97   5.466   0.457   7.218  0.0253  1.8191  0.1172
    1MOL    H98   98   5.393   0.282   7.388  0.8136  0.0931 -0.8817
    1MOL    H99   99   5.177   0.223   7.096 -0.0283 -0.3513 -0.3219
    1MOL   H100  100   5.244   0.074   6.914 -0.0652  0.0660 -0.0497
    1MOL   H101  101   5.473   8.066   6.894  0.9159  1.4825 -0.2785
    1MOL   H102  102   5.632   0.024   7.067  1.3024  1.4045  1.1668
    1MOL   H103  103   5.565   0.186   7.267 -0.0609 -1.1688  0.4832
    1MOL   C104  104   5.158   0.346   7.476 -0.4934 -0.0086  0.1571
    1MOL   C105  105   5.199   0.259   7.596 -0.4853  0.2862  0.9743
    1MOL   C106  106   5.175   0.115   7.556 -0.2772  0.0163 -0.2161
    1MOL   C107  107   5.273   0.040   7.498 -0.0904 -0.4036 -0.1865
    1MOL   C108  108   5.234   7.996   7.434 -0.2168 -0.4510 -0.1600
    1MOL   C109  109   5.105   7.948   7.439  0.6580  0.3759  1.1836
    1MOL   C110  110   5.006   8.024   7.511 -0.1573  0.1365  0.6155
    1MOL   C111  111   5.045   0.063   7.570  0.7429  0.2679  0.5691
    1MOL   O112  112   5.337   0.281   7.632  0.8190 -0.5245 -0.4087
    1MOL   H113  113   5.183   0.452   7.483  0.3584 -0.1235 -0.9944
    1MOL   H114  114   5.050   0.336   7.461 -0.1426 -0.8568 -1.9537
    1MOL   H115  115   5.126   0.271   7.677 -2.2002  1.2515 -0.6610
    1MOL   H116  116   5.374   0.072   7.481 -0.5576  0.6312 -1.0302
    1MOL   H117  117   5.317   7.944   7.388 -0.5468 -0.8385 -0.3164
    1MOL   H118  118   5.069   7.859   7.391 -1.9418  2.5274 -1.0953
    1MOL   H119  119   4.901   7.999   7.514  0.0304 -0.7686 -0.1516
    1MOL   H120  120   4.970   0.123   7.618  0.6210  0.0738  0.6223
    1MOL   C121  121   5.380   0.276   7.770  0.5019 -0.6403  0.5810
    1MOL   C122  122   5.390   0.414   7.831 -0.6008 -0.3517  0.0607
    1MOL   C123  123   5.420   0.522   7.731 -0.0894  1.0615 -0.1385
    1MOL   C124  124   5.320   0.599   7.673 -0.0994 -0.5391  0.5268
    1MOL   C125  125   5.352   0.700   7.579 -0.2595  0.2220  0.5322
    1MOL   C126  126   5.486   0.718   7.544 -0.3803  0.0536  0.5575
    1MOL   C127  127   5.583   0.636   7.602 -0.2866  0.5577  0.4121
    1MOL   C128  128   5.555   0.539   7.696  0.5910 -0.5421 -0.2012
    1MOL   O129  129   5.265   0.426   7.885  0.3831  0.0724 -0.4256
    1MOL   H130  130   5.483   0.241   7.764  1.1542  0.9617  1.8717
    1MOL   H131  131   5.322   0.203   7.827 -1.3241 -0.2859 -0.7703
    1MOL   H132  132   5.468   0.412   7.907  0.6098 -0.8903 -1.1802
    1MOL   H133  133   5.222   0.587   7.715 -0.3580 -1.1261 -0.2384
    1MOL   H134  134   5.284   0.774   7.537  1.1088  0.5416 -1.2043
    1MOL   H135  135   5.515   0.796   7.475  1.2386  0.0093  1.1682
    1MOL   H136  136   5.688   0.644   7.576 -0.8865  2.3367 -1.6197
    1MOL   H137  137   5.632   0.477   7.742  0.5846  0.7314  1.5821
    1MOL   C138  138   5.259   0.519   7.993 -0.3007 -0.8783 -0.5435
    1MOL   C139  139   5.299   0.474   0.058  0.2881 -0.4872  0.6573
    1MOL   C140  140   5.223   0.343   0.089  0.4469  0.4199 -0.4309
    1MOL   C141  141   5.092   0.353   0.154  0.2267  0.1029  0.1202
    1MOL   C142  142   5.024   0.238   0.197 -1.1505 -0.3223 -0.3403
    1MOL   C143  143   5.084   0.108   0.183  0.1117 -0.2118 -0.1724
    1MOL   C144  144   5.205   0.090   0.116  0.1886  0.4315 -0.3005
    1MOL   C145  145   5.276   0.208   0.074 -0.4351 -0.1347 -0.2195
    1MOL   O146  146   5.439   0.471   0.072  0.0866 -0.2023 -0.0385
    1MOL   H147  147   5.153   0.542   8.002 -0.2058 -1.6288  3.0361
    1MOL   H148  148   5.308   0.615   7.979 -2.4846  0.2976 -0.3019
    1MOL   H149  149   5.262   0.554   0.122  1.2665 -1.3848  2.3837
    1MOL   H150  150   5.049   0.451   0.166 -1.5100 -0.7440  0.8914
    1MOL   H151  151   4.928   0.245   0.245 -0.3341 -1.9753  1.5706
    1MOL   H152  152   5.033   0.023   0.225 -1.5132  0.4489 -0.7583
    1MOL   H153  153   5.259   8.077   0.110  3.2278  2.2396 -2.1868
    1MOL   H154  154   5.376   0.210   0.034  0.6740  2.4982  2.4454
    1MOL   C155  155   5.499   0.544   0.182 -0.0248  0.1887  1.0246
    1MOL   C156  156   5.532   0.690   0.146 -0.8856 -0.0108 -0.1600
    1MOL   C157  157   5.623   0.709   0.022 -0.6592  0.3586  0.1413
    1MOL   C158  158   5.583   0.766   7.981 -0.2140  0.6720  0.7968
    1MOL   C159  159   5.683   0.790   7.886  0.3158  0.1318 -0.4267
    1MOL   C160  160   5.821   0.750   7.899 -0.4354 -0.1420  0.4055
    1MOL   C161  161   5.857   0.674   8.017  0.8539  0.0920 -0.4537
    1MOL   C162  162   5.758   0.663   0.037  0.1130  0.2812 -0.5023
    1MOL   O163  163   5.409   0.761   0.147  1.0022  0.2437  0.3212
    1MOL   H164  164   5.596   0.508   0.218  0.7037  1.1977  0.1035
    1MOL   H165  165   5.433   0.552   0.269 -1.6466  0.3843 -0.2056
    1MOL   H166  166   5.587   0.729   0.232  0.4920 -1.1290 -0.5224
    1MOL   H167  167   5.483   0.803   7.961  0.4722  1.4545 -1.2916
    1MOL   H168  168   5.644   0.844   7.801 -4.5266 -0.4932  1.2264
    1MOL   H169  169   5.897   0.772   7.825  0.2591  0.2166  1.2200
    1MOL   H170  170   5.951   0.626   8.039  1.0610 -0.1873 -1.9056
    1MOL   H171  171   5.793   0.627   0.133  1.0004  1.4806 -0.3613
    1MOL   C172  172   5.416   0.905   0.160  0.1105 -0.3504  0.3840
    1MOL   C173  173   5.283   0.974   0.202 -0.2792  0.3153 -0.3193
    1MOL   C174  174   5.285   1.137   0.193 -0.6463 -0.1460 -0.7399
    1MOL   C175  175   5.170   1.203   0.241  0.0802  0.2742 -0.5680
    1MOL   C176  176   5.167   1.336   0.272  0.2400  0.4536 -0.4366
    1MOL   C177  177   5.280   1.410   0.235  0.4367 -0.4059  0.1181
    1MOL   C178  178   5.398   1.346   0.183  0.3112 -0.3194  0.3827
    1MOL   C179  179   5.401   1.209   0.164  0.4068  0.5904 -0.3111
    1MOL   O180  180   5.260   0.940   0.338 -0.2550  0.1524  0.5368
    1MOL   H181  181   5.482   0.921   0.245 -2.0186 -0.8736  2.1494
    1MOL   H182  182   5.469   0.947   0.074  1.8526 -1.7818  0.7161
    1MOL   H183  183   5.208   0.937   0.131  0.6531 -1.1704 -0.5475
    1MOL   H184  184   5.079   1.146   0.255  1.2911 -1.8120 -0.9973
    1MOL   H185  185   5.082   1.392   0.308  0.5076  0.2920  0.4491
    1MOL   H186  186   5.270   1.515   0.257  3.1291  0.2632 -1.6184
    1MOL   H187  187   5.474   1.416   0.150 -0.1376 -0.5456 -1.1544
    1MOL   H188  188   5.493   1.160   0.134 -0.6018 -0.7794 -1.2347
    1MOL   C189  189   5.193   0.815   0.361 -0.1051  0.0992  0.2575
    1MOL   C190  190   5.048   0.845   0.402  0.5079 -0.0126 -0.4033
    1MOL   C191  191   4.994   0.731   0.484  0.0323 -0.4067 -0.0338
    1MOL   C192  192   5.020   0.721   0.623 -0.7438  0.6520 -0.0756
    1MOL   C193  193   4.965   0.615   0.697 -0.1345  0.2560 -0.1628
    1MOL   C194  194   4.908   0.504   0.631  0.3001  0.5934  0.6505
    1MOL   C195  195   4.893   0.504   0.491  0.1411 -0.7133 -0.3995
    1MOL   C196  196   4.930   0.621   0.417 -1.1209 -0.8334 -0.6023
    1MOL   O197  197   4.973   0.858   0.278  0.8827  0.9168  0.1328
    1MOL   H198  198   5.201   0.742   0.281  0.5187 -0.7336  1.0669
    1MOL   H199  199   5.233   0.775   0.454  0.9068  0.6394  0.0697
    1MOL   H200  200   5.047   0.937   0.459 -0.6756  1.3617 -2.5787
    1MOL   H201  201   5.086   0.789   0.675 -0.0745  0.1599 -0.2726
    1MOL   H202  202   4.980   0.618   0.804 -1.3217  1.3082 -0.0078
    1MOL   H203  203   4.875   0.415   0.683 -0.4989  0.0520 -0.7524
    1MOL   H204  204   4.855   0.419   0.437  1.3922 -1.3581 -0.2805
    1MOL   H205  205   4.906   0.630   0.312 -3.1674  2.4380  0.0822
    1MOL   C206  206   4.854   0.927   0.302 -0.1182 -0.0854 -0.6961
    1MOL   C207  207   4.744   0.914   0.188 -0.6660 -0.4633  0.0916
    1MOL   C208  208   4.699   0.770   0.171 -0.4534 -0.0472 -0.6437
    1MOL   C209  209   4.572   0.715   0.205  0.9755 -0.1668  0.0772
    1MOL   C210  210   4.545   0.581   0.177 -0.1657 -0.1451  0.2964
    1MOL   C211  211   4.636   0.500   0.106 -0.2934  0.2074  1.2111
    1MOL   C212  212   4.764   0.549   0.072 -1.1196  0.9560  0.5248
    1MOL   C213  213   4.788   0.686   0.100 -0.2597 -1.0964  0.6482
    1MOL   O214  214   4.801   0.954   0.069 -0.7882  0.4007 -0.2258
    1MOL   H215  215   4.809   0.885   0.392  0.0953 -0.0520 -0.5728
    1MOL   H216  216   4.857   1.036   0.313  0.5530 -0.3294  1.7384
    1MOL   H217  217   4.653   0.972   0.199 -2.6316 -3.5599  0.8776
    1MOL   H218  218   4.504   0.775   0.264  0.8813 -1.6862  1.5188
    1MOL   H219  219   4.452   0.535   0.209 -1.4471  2.1633  0.0043
    1MOL   H220  220   4.602   0.400   0.087 -1.4670  0.6317  1.0256
    1MOL   H221  221   4.834   0.480   0.026 -0.6231 -1.1838  4.2480
    1MOL   H222  222   4.881   0.729   0.065 -0.6149  0.8928  1.9962
    1MOL   C223  223   4.835   1.096   0.052  0.3642  1.1061 -0.9625
    1MOL   C224  224   4.896   1.127   7.999 -0.1122  0.6115  0.3316
    1MOL   C225  225   5.007   1.044   7.944 -0.3588 -0.0500 -0.3754
    1MOL   C226  226   4.974   0.916   7.888  1.0466  0.0786 -0.5866
    1MOL   C227  227   5.076   0.837   7.833  0.2654  0.5800  0.2507
    1MOL   C228  228   5.210   0.878   7.852 -0.3898 -0.5855  0.7417
    1MOL   C229  229   5.243   1.004   7.902  0.7778 -0.5092 -0.9627
    1MOL   C230  230   5.137   1.089   7.952 -0.2461  0.4229  0.0211
    1MOL   O231  231   4.777   1.125   7.917  0.4536 -0.4022  0.1063
    1MOL   H232  232   4.759   1.166   0.088 -0.5981 -0.2843 -0.2327
    1MOL   H233  233   4.919   1.104   0.121  0.6290 -2.3493 -0.8003
    1MOL   H234  234   4.929   1.230   7.992  0.8385  0.2542 -0.6322
    1MOL   H235  235   4.872   0.883   7.893  1.7806 -2.0217  1.8716
    1MOL   H236  236   5.055   0.741   7.789  3.5346 -0.7347  1.4409
    1MOL   H237  237   5.295   0.819   7.822  0.5649  1.3661 -0.4858
    1MOL   H238  238   5.345   1.033   7.918  0.5688  0.2267 -0.9213
    1MOL   H239  239   5.158   1.186   7.996  2.2574 -1.2255  2.6654
    1MOL   C240  240   4.782   1.198   7.795 -0.0840 -0.2261 -0.1868
    1MOL   C241  241   4.776   1.355   7.805  0.3611 -0.6856  0.4940
    1MOL   C242  242   4.707   1.405   7.931 -0.0249  0.2747 -0.1534
    1MOL   C243  243   4.568   1.383   7.960  0.4964 -0.4582  0.1138
    1MOL   C244  244   4.509   1.432   8.078 -0.0987  0.2936  0.3206
    1MOL   C245  245   4.596   1.494   0.094 -0.0345 -0.1246  0.1525
    1MOL   C246  246   4.734   1.518   0.063  0.3012 -0.1222  0.1848
    1MOL   C247  247   4.792   1.472   8.025 -0.1366  0.1991  0.3162
    1MOL   O248  248   4.905   1.411   7.782  0.1001 -0.0965  0.3085
    1MOL   H249  249   4.869   1.162   7.740  0.0482  0.7645 -0.6462
    1MOL   H250  250   4.693   1.156   7.748  0.0607  0.4408 -1.0818
    1MOL   H251  251   4.701   1.392   7.735  0.3213  2.4299  2.0852
    1MOL   H252  252   4.514   1.318   7.892 -1.1687  1.3350 -0.3079
    1MOL   H253  253   4.404   1.414   0.013 -0.3575 -1.2675 -2.9805
    1MOL   H254  254   4.555   1.527   0.188 -0.9752 -0.9072  0.0307
    1MOL   H255  255   4.788   1.578   0.135  1.7691 -0.5052 -0.5840
    1MOL   H256  256   4.893   1.505   8.003 -0.4961  2.6335  1.9916
    1MOL   C257  257   4.903   1.534   7.715  0.1166  0.2752 -0.0307
    1MOL   C258  258   5.043   1.557   7.660  0.4033  0.4141  0.2396
    1MOL   C259  259   5.146   1.558   7.777  0.4603  0.1480 -0.2238
    1MOL   C260  260   5.193   1.438   7.831 -0.1272 -0.0816 -0.1371
    1MOL   C261  261   5.289   1.429   7.931 -0.6922 -0.5467 -0.1370
    1MOL   C262  262   5.345   1.552   7.978 -0.4515 -0.5142  0.1425
    1MOL   C263  263   5.304   1.675   7.921  0.0787 -0.0899  0.1508
    1MOL   C264  264   5.202   1.677   7.825 -0.4437  0.6669  0.4359
    1MOL   O265  265   5.018   1.683   7.594 -0.9402  0.0411  0.4843
    1MOL   H266  266   4.883   1.610   7.791 -2.0606 -1.1165  0.8450
    1MOL   H267  267   4.821   1.554   7.645 -0.7621  0.7913  1.1329
    1MOL   H268  268   5.068   1.476   7.591 -1.2591  1.4886 -1.6935
    1MOL   H269  269   5.149   1.346   7.793  0.4347 -0.5680  0.3889
    1MOL   H270  270   5.323   1.335   7.972  1.5466 -0.1790 -1.1129
    1MOL   H271  271   5.423   1.565   8.053 -0.7576 -0.9323  0.5413
    1MOL   H272  272   5.353   1.764   7.957  1.6004 -0.7354 -0.2557
    1MOL   H273  273   5.159   1.773   7.799  0.1507  1.8097  3.3802
    1MOL   C274  274   5.123   1.734   7.513 -0.8625  0.1640 -0.1908
    1MOL   C275  275   5.133   1.648   7.381  0.2192  0.4076 -0.1530
    1MOL   C276  276   5.279   1.659   7.321 -0.1005  0.5660 -0.5950
    1MOL   C277  277   5.305   1.686   7.182 -0.1314 -0.3614 -0.1636
    1MOL   C278  278   5.435   1.678   7.132  0.7628 -0.2751  0.7415
    1MOL   C279  279   5.542   1.643   7.215  0.2277 -0.5536 -0.2399
    1MOL   C280  280   5.524   1.632   7.355  0.5308 -0.0626 -0.7809
    1MOL   C281  281   5.393   1.630   7.407 -0.1287 -0.3777  0.1227
    1MOL   O282  282   5.053   1.712   7.290 -0.3572  0.0996 -0.4902
    1MOL   H283  283   5.100   1.834   7.476 -0.4310  0.4124  0.2067
    1MOL   H284  284   5.222   1.739   7.560 -1.6051  3.1830  1.1279
    1MOL   H285  285   5.109   1.543   7.397  0.0830  0.6920  1.5624
    1MOL   H286  286   5.215   1.711   7.128 -0.8904 -3.5506 -0.4424
    1MOL   H287  287   5.444   1.687   7.024 -1.8564  0.7240  0.5557
    1MOL   H288  288   5.637   1.647   7.165 -0.5972 -0.0811 -1.8105
    1MOL   H289  289   5.608   1.609   7.418  0.1923 -2.6145 -1.2162
    1MOL   H290  290   5.372   1.597   7.507  2.5741 -0.9966  0.5254
    1MOL   C291  291   4.910   1.700   7.287  0.1423  0.3822  0.0541
    1MOL   C292  292   4.855   1.809   7.200 -0.3850 -0.4209 -0.2056
    1MOL   C293  293   4.898   1.946   7.233 -0.4037 -0.5518  0.0222
    1MOL   C294  294   4.864   1.996   7.362  1.1392 -0.5900  0.2427
    1MOL   C295  295   4.890   2.130   7.395 -0.2621 -0.2199 -0.6520
    1MOL   C296  296   4.960   2.209   7.299  0.0538  0.5189 -0.5301
    1MOL   C297  297   4.990   2.160   7.174 -0.1793 -0.9464  0.0230
    1MOL   C298  298   4.962   2.027   7.138 -0.0950 -0.1823 -0.5992
    1MOL   O299  299   4.871   1.780   7.063  0.1670 -0.0610  0.2995
    1MOL   H300  300   4.874   1.692   7.390  1.5886  1.1581  0.6498
    1MOL   H301  301   4.906   1.600   7.244 -0.4184 -0.5374  2.1624
    1MOL   H302  302   4.748   1.810   7.216 -0.3678  0.6827 -0.0921
    1MOL   H303  303   4.818   1.933   7.437 -2.2044  1.6670  0.1675
    1MOL   H304  304   4.868   2.161   7.497  0.6126 -0.6947 -0.3124
    1MOL   H305  305   4.989   2.309   7.326  0.5476 -0.4716  2.7730
    1MOL   H306  306   5.035   2.225   7.101 -1.9902  3.0314  2.3230
    1MOL   H307  307   4.985   1.993   7.038  2.4285  0.8546 -0.4179
    1MOL   C308  308   4.796   1.683   7.001  0.4313 -0.5567  0.2817
    1MOL   C309  309   4.835   1.694   6.851 -0.4140 -0.3475 -0.2903
    1MOL   C310  310   4.815   1.559   6.777  0.0959 -0.6935 -0.4052
    1MOL   C311  311   4.688   1.520   6.733 -0.3299  0.1971 -0.1659
    1MOL   C312  312   4.681   1.397   6.668 -0.2922  0.0560  0.0198
    1MOL   C313  313   4.794   1.317   6.644 -0.0031 -0.3426  0.3659
    1MOL   C314  314   4.917   1.351   6.699  0.2739  0.0838  0.8296
    1MOL   C315  315   4.928   1.476   6.759 -0.6519 -0.1008 -0.0445
    1MOL   O316  316   4.759   1.804   6.798  0.5008  0.4460 -0.6639
    1MOL   H317  317   4.688   1.689   7.018  0.7541 -0.3250  2.4346
    1MOL   H318  318   4.839   1.591   7.041  1.2774 -0.9112 -1.4165
    1MOL   H319  319   4.940   1.720   6.837 -1.1164  1.4945 -2.5419
    1MOL   H320  320   4.601   1.582   6.746 -1.2733 -1.2724  0.6053
    1MOL   H321  321   4.585   1.353   6.647  0.4439 -0.5845 -2.0976
    1MOL   H322  322   4.787   1.222   6.593 -1.6842  0.6461 -1.3222
    1MOL   H323  323   5.005   1.292   6.679  2.1736  3.6663 -1.9030
    1MOL   H324  324   5.022   1.505   6.802 -1.1391  2.1258 -0.4499
    1MOL   C325  325   4.822   1.881   6.696  0.1995 -1.2655  0.3167
    1MOL   C326  326   4.803   1.831   6.547 -0.3340 -0.5690  0.5247
    1MOL   C327  327   4.672   1.884   6.487 -0.6912  0.0942  0.2806
    1MOL   C328  328   4.669   2.014   6.431  0.5752 -0.0625  0.0143
    1MOL   C329  329   4.558   2.066   6.359  0.1818 -0.6148 -0.2563
    1MOL   C330  330   4.451   1.977   6.337  0.4280 -0.3292 -0.6630
    1MOL   C331  331   4.446   1.851   6.394 -0.3578 -0.0334 -0.4960
    1MOL   C332  332   4.558   1.806   6.472  0.1465 -0.2255  1.2847
    1MOL   O333  333   4.919   1.864   6.468 -0.0897 -0.5313 -0.6243
    1MOL   H334  334   4.930   1.890   6.708  0.2872  2.1860 -2.1387
    1MOL   H335  335   4.772   1.978   6.695  0.2861 -1.2226 -1.3822
    1MOL   H336  336   4.795   1.723   6.561 -0.9836 -0.9158 -2.2226
    1MOL   H337  337   4.756   2.077   6.436 -0.7112  1.7111  0.5186
    1MOL   H338  338   4.556   2.166   6.320  0.8490  0.5959  2.6765
    1MOL   H339  339   4.363   2.011   6.285  0.1104 -0.4266 -0.1871
    1MOL   H340  340   4.357   1.790   6.382 -1.9407  2.7215 -3.4435
    1MOL   H341  341   4.558   1.709   6.518 -1.6481 -2.0169 -2.2965
    1MOL   H342  342   4.903   1.819   6.386 -3.4765  1.4111 -1.1222
    2MOL     C1  343   2.252   4.847   7.025  0.3530  0.0023  0.2858
    2MOL     C2  344   2.177   4.930   6.923  0.7652  0.0127 -0.8999
    2MOL     C3  345   2.045   4.870   6.890 -0.3691  0.4286 -0.2283
    2MOL     C4  346   2.035   4.746   6.824  0.3872  0.7075 -0.1152
    2MOL     C5  347   1.914   4.687   6.800 -0.1375  0.6909 -0.5997
    2MOL     C6  348   1.796   4.749   6.848  0.5601  0.5516 -0.4929
    2MOL     C7  349   1.801   4.878   6.908  0.5677  0.0502  0.1437
    2MOL     C8  350   1.927   4.942   6.925 -0.2895 -0.5156 -0.7629
    2MOL     O9  351   2.263   4.929   6.810 -0.0089 -0.0480 -0.2183
    2MOL    H10  352   2.194   4.869   7.115 -0.1438 -1.3495  0.3131
    2MOL    H11  353   2.252   4.744   6.990  0.4068 -0.2347  0.9750
    2MOL    H12  354   2.159   5.030   6.964 -0.3813 -0.5225 -0.0679
    2MOL    H13  355   2.125   4.694   6.797 -0.0443  0.2356 -0.6648
    2MOL    H14  356   1.907   4.595   6.745 -2.4322 -0.0452  0.8634
    2MOL    H15  357   1.700   4.702   6.836  1.2648 -0.9599 -0.3119
    2MOL    H16  358   1.706   4.924   6.929 -0.0415 -1.3049  0.4029
    2MOL    H17  359   1.929   5.038   6.974  0.5209 -0.8202 -0.1851
    2MOL    H18  360   2.356   4.878   7.035  0.2650  0.2321  0.4972
    2MOL    C19  361   2.367   5.025   6.800 -0.5004  0.4677  0.1305
    2MOL    C20  362   2.439   5.009   6.664 -0.2945 -0.5835  0.3610
    2MOL    C21  363   2.584   5.067   6.673 -0.1822 -0.3620  0.1166
    2MOL    C22  364   2.613   5.206   6.664  0.5300  0.3358 -0.5605
    2MOL    C23  365   2.743   5.254   6.692 -0.5010 -0.5891  0.0663
    2MOL    C24  366   2.850   5.172   6.715  0.8335  0.5687  0.3123
    2MOL    C25  367   2.832   5.030   6.715  0.1580  0.9766  0.0583
    2MOL    C26  368   2.695   4.981   6.707  0.8532  0.2698  0.0937
    2MOL    O27  369   2.381   5.078   6.562  0.0731  0.2748  0.4928
    2MOL    H28  370   2.336   5.128   6.815 -1.1850  0.0071  1.9371
    2MOL    H29  371   2.442   5.009   6.877 -1.2061 -0.4838  0.6202
    2MOL    H30  372   2.446   4.903   6.637  0.0697 -0.3284 -0.5736
    2MOL    H31  373   2.535   5.277   6.642  0.9952  0.9661 -0.1835
    2MOL    H32  374   2.756   5.361   6.684 -0.5653 -0.7149 -2.0438
    2MOL    H33  375   2.946   5.216   6.739  1.1669  0.4693 -0.7919
    2MOL    H34  376   2.913   4.960   6.726 -0.3378 -0.0116 -2.2066
    2MOL    H35  377   2.678   4.875   6.719 -2.8134  0.3337 -3.3624
    2MOL    C36  378   2.250   5.027   6.522 -0.7634  0.6110  0.0675
    2MOL    C37  379   2.128   5.097   6.569  0.5883 -0.8959 -0.3025
    2MOL    C38  380   2.008   5.054   6.490  0.2856 -0.1774 -0.7398
    2MOL    C39  381   1.935   4.939   6.522 -0.6459  0.4910 -0.2461
    2MOL    C40  382   1.821   4.899   6.442  0.2387 -0.1238  0.1089
    2MOL    C41  383   1.777   4.982   6.337  0.1957 -0.1568 -0.1632
    2MOL    C42  384   1.852   5.091   6.302  0.0626 -0.2838 -0.4788
    2MOL    C43  385   1.969   5.124   6.371  0.2032 -0.3013 -0.0644
    2MOL    O44  386   2.161   5.236   6.540  0.6889 -0.5392 -0.1050
    2MOL    H45  387   2.255   5.026   6.413 -1.3487 -0.4442  0.0443
    2MOL    H46  388   2.243   4.922   6.551 -2.1264  0.3223 -1.2499
    2MOL    H47  389   2.092   5.075   6.669  3.3096  1.4777  1.2591
    2MOL    H48  390   1.973   4.878   6.602  0.4894 -0.3816 -1.4318
    2MOL    H49  391   1.758   4.812   6.457  0.3430  0.2286  2.8219
    2MOL    H50  392   1.684   4.952   6.289 -0.3842 -0.1673  0.9420
    2MOL    H51  393   1.831   5.149   6.213  0.7898 -0.6669 -0.8997
    2MOL    H52  394   2.038   5.197   6.332 -1.6379  0.2997 -2.2897
    2MOL    C53  395   2.193   5.320   6.656  0.1269  0.5676 -0.1124
    2MOL    C54  396   2.152   5.459   6.615 -0.1771  0.5677  0.0735
    2MOL    C55  397   2.008   5.490   6.657  0.2960 -1.1764 -0.0039
    2MOL    C56  398   1.902   5.474   6.577  0.3437  0.0163  0.0182
    2MOL    C57  399   1.767   5.475   6.634 -0.1366 -0.0978  0.1343
    2MOL    C58  400   1.748   5.507   6.774 -0.8878  0.0096 -0.1452
    2MOL    C59  401   1.861   5.534   6.855 -0.3415  0.1409  0.9986
    2MOL    C60  402   1.985   5.526   6.796 -0.1824 -0.1903  0.1427
    2MOL    O61  403   2.238   5.558   6.664  0.1014  0.5218  0.6184
    2MOL    H62  404   2.140   5.274   6.740 -0.4661 -3.6927 -2.6497
    2MOL    H63  405   2.298   5.319   6.686  0.7925 -1.6975 -2.2983
    2MOL    H64  406   2.164   5.459   6.506  1.8178  0.1373  0.2888
    2MOL    H65  407   1.915   5.456   6.471  1.0886 -0.5282  0.1983
    2MOL    H66  408   1.679   5.454   6.577 -1.1945 -4.4890  3.1003
    2MOL    H67  409   1.651   5.518   6.819  0.1145  1.0953  1.8289
    2MOL    H68  410   1.853   5.558   6.961 -1.7763  0.8215  0.7404
    2MOL    H69  411   2.072   5.542   6.857 -0.0129  2.9539 -0.8236
    2MOL    C70  412   2.362   5.567   6.589  0.3247  0.2787  0.3062
    2MOL    C71  413   2.463   5.675   6.655 -0.0616  0.0643 -0.1318
    2MOL    C72  414   2.577   5.723   6.557  0.3019  0.3057  0.5529
    2MOL    C73  415   2.543   5.822   6.460 -0.1786  0.0322 -0.5547
    2MOL    C74  416   2.640   5.875   6.372  0.6919 -0.5839  0.0737
    2MOL    C75  417   2.762   5.809   6.359  0.0940 -0.0309 -0.2448
    2MOL    C76  418   2.797   5.709   6.452  0.0829  0.0455  0.8316
    2MOL    C77  419   2.705   5.662   6.549  0.4022 -0.3256 -0.3475
    2MOL    O78  420   2.517   5.604   6.764  0.3213  0.1275 -0.1003
    2MOL    H79  421   2.398   5.464   6.585  0.3940  0.3201 -0.2993
    2MOL    H80  422   2.344   5.597   6.485  0.1310  3.0675  1.1174
    2MOL    H81  423   2.408   5.762   6.689 -0.3475  0.2382 -1.0319
    2MOL    H82  424   2.445   5.866   6.466 -0.1242 -0.1766  3.2352
    2MOL    H83  425   2.613   5.963   6.315 -1.0035 -0.8389  0.4626
    2MOL    H84  426   2.834   5.839   6.284  2.9327 -3.9098  0.7611
    2MOL    H85  427   2.899   5.674   6.453  1.1385  2.8959 -1.6440
    2MOL    H86  428   2.729   5.589   6.624 -1.1922 -0.9579 -0.4344
    2MOL    C87  429   2.445   5.638   6.887 -1.0303  0.3760 -0.7683
    2MOL    C88  430   2.493   5.543   7.004  0.4017  0.2716 -0.3064
    2MOL    C89  431   2.641   5.532   7.004  0.3695  0.9655 -0.0694
    2MOL    C90  432   2.707   5.409   6.987 -0.3605 -0.4813  0.4823
    2MOL    C91  433   2.848   5.396   7.002  0.3924  0.7352  0.2762
    2MOL    C92  434   2.924   5.509   7.033 -0.6818 -0.4791 -0.8134
    2MOL    C93  435   2.860   5.632   7.043  0.9694 -1.1715  0.9099
    2MOL    C94  436   2.720   5.650   7.027  0.1758 -0.0667 -0.2202
    2MOL    O95  437   2.428   5.414   6.986 -0.0328 -0.1166  0.1996
    2MOL    H96  438   2.336   5.635   6.884 -1.1384 -0.2138  1.9164
    2MOL    H97  439   2.481   5.740   6.906 -0.2749 -0.1877  0.9057
    2MOL    H98  440   2.460   5.593   7.095 -1.3209 -1.9140  0.3224
    2MOL    H99  441   2.648   5.322   6.962 -2.6089  0.4305  2.4558
    2MOL   H100  442   2.893   5.298   6.992 -1.1447  0.2855 -2.9790
    2MOL   H101  443   3.031   5.498   7.048 -0.6470 -0.1683 -0.8244
    2MOL   H102  444   2.922   5.720   7.057  0.4321 -0.6193 -0.1197
    2MOL   H103  445   2.680   5.748   7.051  0.9868 -0.2042  1.8129
    2MOL   C104  446   2.356   5.376   7.098 -0.4205 -0.1692  0.1596
    2MOL   C105  447   2.208   5.432   7.115 -0.4691  0.1313 -0.5424
    2MOL   C106  448   2.120   5.347   7.202 -0.6488  0.1203 -0.0803
    2MOL   C107  449   2.035   5.250   7.152 -0.3125 -0.6360  0.5081
    2MOL   C108  450   1.951   5.175   7.240 -0.0314 -0.4536 -0.3147
    2MOL   C109  451   1.953   5.205   7.375 -0.2044 -0.2479 -0.2315
    2MOL   C110  452   2.039   5.305   7.428  0.2067  0.8270  0.0865
    2MOL   C111  453   2.120   5.378   7.342 -0.5583  0.2196 -0.4806
    2MOL   O112  454   2.228   5.566   7.161 -0.2527 -0.3926  0.0962
    2MOL   H113  455   2.351   5.268   7.083 -2.3062  0.0735 -1.1922
    2MOL   H114  456   2.404   5.398   7.193 -0.3919  0.4744  0.0008
    2MOL   H115  457   2.163   5.421   7.016 -2.1907 -0.9181  0.3358
    2MOL   H116  458   2.034   5.229   7.046 -1.9784  0.5704  0.2622
    2MOL   H117  459   1.893   5.092   7.202 -2.3145  1.0530 -0.2129
    2MOL   H118  460   1.886   5.144   7.433 -0.1561  0.7395  0.8864
    2MOL   H119  461   2.047   5.321   7.534 -0.8300  1.5204  0.0681
    2MOL   H120  462   2.183   5.458   7.377  0.7270 -1.4387  1.0999
    2MOL   C121  463   2.130   5.667   7.121 -0.5095 -0.1763  0.5744
    2MOL   C122  464   2.158   5.794   7.215  0.0666 -0.8957 -0.1460
    2MOL   C123  465   2.291   5.861   7.190 -0.0380 -0.5470 -0.1096
    2MOL   C124  466   2.320   5.930   7.071  0.0840  0.3587 -0.4848
    2MOL   C125  467   2.438   6.010   7.059 -0.8299 -0.5205  0.1666
    2MOL   C126  468   2.528   6.021   7.169  0.4345 -0.1566  0.2030
    2MOL   C127  469   2.508   5.943   7.284 -0.2856 -1.1518  0.1690
    2MOL   C128  470   2.389   5.866   7.296  0.3506 -0.0733  0.3172
    2MOL   O129  471   2.042   5.873   7.215  0.1747  0.6070  0.4471
    2MOL   H130  472   2.029   5.632   7.140  0.1816 -1.6001  1.6404
    2MOL   H131  473   2.136   5.683   7.013 -2.1594 -1.2710  0.3027
    2MOL   H132  474   2.156   5.762   7.319 -2.7538  1.4811  0.6138
    2MOL   H133  475   2.250   5.935   6.989  0.1100  0.4414 -0.5026
    2MOL   H134  476   2.452   6.067   6.968  0.9577 -1.4214 -0.1382
    2MOL   H135  477   2.618   6.078   7.154 -0.8007  1.1061 -2.6326
    2MOL   H136  478   2.568   5.957   7.372 -2.2156  2.5329  1.0117
    2MOL   H137  479   2.370   5.829   7.395 -1.2043  0.2392  0.1554
    2MOL   C138  480   2.050   5.994   7.291  0.2573  0.0532  0.5643
    2MOL   C139  481   1.909   6.038   7.343 -0.0580  0.5804  0.4167
    2MOL   C140  482   1.923   6.133   7.461  0.2616 -0.0272  0.1795
    2MOL   C141  483   1.935   6.273   7.444  0.1271  0.5704  0.2798
    2MOL   C142  484   1.965   6.353   7.553 -0.4043  0.0432  0.3640
    2MOL   C143  485   1.973   6.296   7.684  0.2666 -0.4731 -0.3177
    2MOL   C144  486   1.973   6.157   7.700  0.3844 -0.5204  0.6699
    2MOL   C145  487   1.939   6.080   7.586 -0.0235  0.1460  0.0029
    2MOL   O146  488   1.837   6.098   7.232  0.0132  0.0751 -0.2626
    2MOL   H147  489   2.088   6.080   7.236 -1.6657  0.1093 -0.7166
    2MOL   H148  490   2.114   5.984   7.379 -0.5464 -1.2998  1.0164
    2MOL   H149  491   1.861   5.945   7.373  0.1255  1.2836  2.9785
    2MOL   H150  492   1.920   6.318   7.346  2.8879 -0.5766 -0.7269
    2MOL   H151  493   1.975   6.457   7.525  0.8751 -0.3107 -0.5546
    2MOL   H152  494   1.993   6.361   7.768  1.5558 -2.6002  1.0716
    2MOL   H153  495   1.981   6.115   7.799 -1.5421 -0.3437  0.9234
    2MOL   H154  496   1.922   5.975   7.600 -1.1805  0.0805 -1.7778
    2MOL   C155  497   1.777   6.010   7.140 -0.5537  0.1246 -0.3223
    2MOL   C156  498   1.666   6.065   7.056 -0.7545  0.2654 -0.3218
    2MOL   C157  499   1.618   5.960   6.958  0.1376 -0.0573 -0.0798
    2MOL   C158  500   1.522   5.869   7.004  0.0822 -0.0680  0.1081
    2MOL   C159  501   1.481   5.764   6.924 -0.5776  0.5846 -0.0249
    2MOL   C160  502   1.527   5.757   6.789 -0.0562  0.0167  0.2403
    2MOL   C161  503   1.614   5.855   6.740  0.2917  0.3247 -0.3634
    2MOL   C162  504   1.671   5.946   6.828  0.7425 -0.0232  0.0077
    2MOL   O163  505   1.562   6.107   7.150  0.8620  0.2739 -0.2437
    2MOL   H164  506   1.731   5.926   7.192 -0.3702  0.2107 -0.0209
    2MOL   H165  507   1.853   5.962   7.078  1.5247 -0.1529  2.3370
    2MOL   H166  508   1.716   6.150   7.009 -0.1735  0.6906  1.0365
    2MOL   H167  509   1.481   5.890   7.102  1.6274 -1.0757  0.9784
    2MOL   H168  510   1.405   5.698   6.964 -0.2111  1.0253  1.4067
    2MOL   H169  511   1.488   5.688   6.716 -2.0407 -0.0802  1.3518
    2MOL   H170  512   1.656   5.850   6.641  1.0372 -1.2806  0.0283
    2MOL   H171  513   1.743   6.020   6.794  0.6976 -0.5739 -1.3304
    2MOL   C172  514   1.467   6.199   7.107  0.6704  0.1103 -0.3206
    2MOL   C173  515   1.381   6.216   7.235  0.0848 -0.8336 -0.7266
    2MOL   C174  516   1.447   6.270   7.357  0.4078 -0.2683  0.0864
    2MOL   C175  517   1.519   6.179   7.443 -0.6675  0.2653 -0.1105
    2MOL   C176  518   1.604   6.230   7.544  0.2537  0.6232 -0.6888
    2MOL   C177  519   1.613   6.371   7.563 -1.0249  0.3594  0.8369
    2MOL   C178  520   1.548   6.458   7.476 -0.2083  0.3258  0.2441
    2MOL   C179  521   1.470   6.408   7.367 -0.0233 -0.7383  0.0315
    2MOL   O180  522   1.305   6.093   7.260 -0.1520 -0.3753 -0.7487
    2MOL   H181  523   1.520   6.292   7.090  0.0308  0.5982  0.2998
    2MOL   H182  524   1.397   6.179   7.026 -2.2334  0.8434  1.9181
    2MOL   H183  525   1.301   6.284   7.207 -0.0842 -0.4513  0.6513
    2MOL   H184  526   1.510   6.076   7.413  0.2921 -0.1281  0.9244
    2MOL   H185  527   1.661   6.156   7.599  0.1901  0.9647 -0.1625
    2MOL   H186  528   1.679   6.402   7.643 -0.5333  1.7022 -0.0774
    2MOL   H187  529   1.567   6.564   7.481 -0.7768  0.4586 -0.3500
    2MOL   H188  530   1.431   6.480   7.296 -0.1101 -0.6996  0.1166
    2MOL   C189  531   1.192   6.115   7.344 -0.1835  0.4044  0.3151
    2MOL   C190  532   1.073   6.024   7.296  0.2671 -0.0636 -0.0563
    2MOL   C191  533   1.025   6.055   7.152 -0.6611  0.2741 -0.3764
    2MOL   C192  534   1.074   5.977   7.043  0.1449 -0.6108 -0.0758
    2MOL   C193  535   1.015   5.996   6.914 -0.5056  0.2238 -0.6374
    2MOL   C194  536   0.935   6.103   6.893 -0.5334 -0.1486 -0.3009
    2MOL   C195  537   0.883   6.174   6.999 -0.2483 -0.2863  0.1136
    2MOL   C196  538   0.925   6.151   7.130 -0.0838  0.5403  0.5287
    2MOL   O197  539   0.962   6.030   7.390  0.1687 -0.4720 -0.0857
    2MOL   H198  540   1.220   6.109   7.449  0.9131 -0.9309 -0.0452
    2MOL   H199  541   1.153   6.216   7.330  1.0000  0.9204  0.6858
    2MOL   H200  542   1.094   5.917   7.292 -3.0606 -0.7166 -1.5178
    2MOL   H201  543   1.157   5.910   7.060  0.5566  0.1338  0.9066
    2MOL   H202  544   1.056   5.936   6.835  0.1522 -1.6793  1.1247
    2MOL   H203  545   0.918   6.134   6.791 -1.0288 -1.0928 -0.5111
    2MOL   H204  546   0.803   6.244   6.979  2.0317  1.7691 -2.2462
    2MOL   H205  547   0.887   6.207   7.214 -1.7502 -0.9120  0.7646
    2MOL   C206  548   0.880   5.910   7.391  0.2165 -0.0703  0.0497
    2MOL   C207  549   0.745   5.947   7.455  0.3895 -0.2658  0.7855
    2MOL   C208  550   0.677   6.070   7.390 -0.6419 -0.5312 -0.2520
    2MOL   C209  551   0.714   6.201   7.432 -0.1588  0.1752 -0.6285
    2MOL   C210  552   0.652   6.310   7.383 -0.7110 -0.0785  0.3717
    2MOL   C211  553   0.548   6.298   7.288 -0.2666 -0.1510 -0.2499
    2MOL   C212  554   0.512   6.176   7.235  0.6873  0.0337 -0.0745
    2MOL   C213  555   0.567   6.061   7.299  0.3779 -0.0718  0.8952
    2MOL   O214  556   0.751   5.969   7.595 -0.1510 -0.1272  0.1429
    2MOL   H215  557   0.854   5.895   7.286  0.5145  2.6084 -0.4561
    2MOL   H216  558   0.930   5.818   7.421 -0.7662 -0.8574 -0.6933
    2MOL   H217  559   0.685   5.856   7.448 -0.6425  0.4697 -0.2447
    2MOL   H218  560   0.794   6.207   7.504  0.2543  0.1751 -1.0824
    2MOL   H219  561   0.688   6.408   7.412 -0.2803 -0.4140  0.9774
    2MOL   H220  562   0.507   6.388   7.245 -1.6580  0.0105  1.3351
    2MOL   H221  563   0.436   6.164   7.160  0.1584 -1.3665  0.6547
    2MOL   H222  564   0.524   5.966   7.271 -0.9470  0.2273  1.8600
    2MOL   C223  565   0.819   5.877   7.678  0.4688 -0.5141 -0.5496
    2MOL   C224  566   0.757   5.738   7.686  1.3001 -0.0855  0.2714
    2MOL   C225  567   0.603   5.742   7.698  0.2510 -0.2701 -0.3442
    2MOL   C226  568   0.550   5.785   7.824  0.3737 -0.0553 -0.2677
    2MOL   C227  569   0.413   5.783   7.841 -0.4295 -0.4289  0.1400
    2MOL   C228  570   0.328   5.736   7.738  0.1298 -0.1619 -0.3359
    2MOL   C229  571   0.382   5.695   7.617 -0.6113 -0.7867 -0.4210
    2MOL   C230  572   0.521   5.695   7.593  0.2864 -0.5443 -0.4884
    2MOL   O231  573   0.801   5.658   7.583 -0.1389 -0.2495 -0.5296
    2MOL   H232  574   0.924   5.867   7.650  0.8139  0.4172  0.3342
    2MOL   H233  575   0.821   5.925   7.776  0.8420  0.4213 -1.0088
    2MOL   H234  576   0.808   5.707   7.777  0.5010 -0.1057  0.7160
    2MOL   H235  577   0.628   5.808   7.894  0.7738 -2.9139  0.2882
    2MOL   H236  578   0.364   5.832   7.924 -1.6866 -1.2157 -0.1336
    2MOL   H237  579   0.224   5.723   7.764  0.0660 -0.6913 -0.8439
    2MOL   H238  580   0.319   5.662   7.535  2.7631 -1.2085 -2.9386
    2MOL   H239  581   0.576   5.670   7.504  1.8561 -0.5414  0.4521
    2MOL   C240  582   0.924   5.594   7.604  0.7370  0.0843  0.1458
    2MOL   C241  583   0.958   5.498   7.486 -0.8722  0.3308 -0.0763
    2MOL   C242  584   0.844   5.408   7.449  0.2408 -0.0790 -0.2975
    2MOL   C243  585   0.829   5.279   7.505  0.4491 -0.2589  1.3124
    2MOL   C244  586   0.715   5.207   7.484 -0.1327 -0.6286 -0.1201
    2MOL   C245  587   0.607   5.265   7.417 -0.4244  0.6412  0.2244
    2MOL   C246  588   0.616   5.392   7.364  0.5683 -0.5115  0.3233
    2MOL   C247  589   0.736   5.465   7.373 -0.2755  0.4452 -0.6916
    2MOL   O248  590   0.994   5.583   7.375  0.1680  0.6130 -0.2886
    2MOL   H249  591   1.010   5.661   7.608  1.1355 -0.4762  1.2716
    2MOL   H250  592   0.920   5.545   7.701 -0.6014 -0.3850 -0.1289
    2MOL   H251  593   1.039   5.436   7.524 -3.7769 -1.8352  2.8516
    2MOL   H252  594   0.908   5.237   7.564  1.9125  1.2506  0.4761
    2MOL   H253  595   0.707   5.109   7.530  0.8834 -0.9030 -0.5295
    2MOL   H254  596   0.517   5.206   7.403 -0.2583  0.2963  0.6061
    2MOL   H255  597   0.531   5.427   7.307 -0.9877 -1.0920  2.2221
    2MOL   H256  598   0.736   5.570   7.346  1.1695  0.7188  0.2946
    2MOL   C257  599   1.020   5.515   7.259 -0.4492  0.1288  0.2519
    2MOL   C258  600   1.121   5.600   7.178  0.3293 -0.2823  0.0820
    2MOL   C259  601   1.158   5.554   7.038 -0.1848 -0.0225 -0.5555
    2MOL   C260  602   1.125   5.635   6.926  1.0672  0.0879  1.0935
    2MOL   C261  603   1.167   5.597   6.799 -0.1563 -0.1575 -0.2701
    2MOL   C262  604   1.230   5.471   6.782 -0.3776 -1.0403  0.6461
    2MOL   C263  605   1.255   5.385   6.889 -0.1747 -0.2205  0.1854
    2MOL   C264  606   1.221   5.431   7.018  0.3662 -0.1763 -0.3005
    2MOL   O265  607   1.237   5.595   7.255  0.5031  0.4141 -0.3169
    2MOL   H266  608   0.924   5.499   7.210 -0.9688  1.2815  0.8641
    2MOL   H267  609   1.065   5.418   7.277 -2.6529 -0.8207  0.7954
    2MOL   H268  610   1.081   5.700   7.195  0.5887 -0.5395  2.4628
    2MOL   H269  611   1.076   5.731   6.932  0.1215  0.1369 -4.5717
    2MOL   H270  612   1.150   5.655   6.709 -1.1600  0.5820  0.3883
    2MOL   H271  613   1.263   5.445   6.682 -0.5795  0.5873  0.1543
    2MOL   H272  614   1.309   5.293   6.875  0.4256 -0.0223  1.1202
    2MOL   H273  615   1.240   5.375   7.108  0.3497  1.0841  0.4886
    2MOL   C274  616   1.278   5.701   7.343  0.3844  0.5540  0.7854
    2MOL   C275  617   1.392   5.658   7.437  0.0714  0.7570  0.4609
    2MOL   C276  618   1.522   5.611   7.369  0.5320 -0.0790  0.3922
    2MOL   C277  619   1.611   5.702   7.317 -0.3657  0.4407  0.1783
    2MOL   C278  620   1.734   5.659   7.259  0.7249 -0.2192  0.0112
    2MOL   C279  621   1.757   5.515   7.248 -0.7846  1.2122  0.0594
    2MOL   C280  622   1.670   5.419   7.304 -0.3599 -0.3013 -0.6006
    2MOL   C281  623   1.549   5.468   7.361 -0.5702 -0.4543 -0.2450
    2MOL   O282  624   1.356   5.570   7.537  0.1458  0.1562  0.0577
    2MOL   H283  625   1.308   5.788   7.284  0.3840 -0.4049 -0.6522
    2MOL   H284  626   1.201   5.734   7.414  0.6638 -1.0707  1.8628
    2MOL   H285  627   1.419   5.750   7.489  1.4470 -0.1193  1.3222
    2MOL   H286  628   1.592   5.807   7.305 -0.4663  0.3808 -0.1793
    2MOL   H287  629   1.801   5.723   7.204  1.8804 -1.1848  0.2841
    2MOL   H288  630   1.846   5.488   7.194 -0.0586 -0.6663  2.1410
    2MOL   H289  631   1.694   5.314   7.294 -0.7000 -0.4773  0.4381
    2MOL   H290  632   1.477   5.399   7.403  0.2103 -1.3062 -0.2898
    2MOL   C291  633   1.362   5.622   7.673 -0.0320  0.3573  0.0576
    2MOL   C292  634   1.401   5.511   7.774 -0.0117  0.0624  0.7459
    2MOL   C293  635   1.285   5.422   7.800 -0.4918  0.3053  0.2548
    2MOL   C294  636   1.256   5.315   7.708  0.0604 -0.3922  0.2994
    2MOL   C295  637   1.142   5.230   7.738  0.0812  0.7167  0.1352
    2MOL   C296  638   1.052   5.257   7.850  0.1940 -0.0133  0.1723
    2MOL   C297  639   1.098   5.350   7.943  0.1053 -0.0291 -0.2074
    2MOL   C298  640   1.206   5.434   7.919 -0.3638  0.2901  0.1944
    2MOL   O299  641   1.514   5.442   7.717 -0.1411  0.1833 -0.2732
    2MOL   H300  642   1.262   5.663   7.690 -0.4172  0.5440 -2.4713
    2MOL   H301  643   1.435   5.701   7.689 -1.1206  1.5281 -0.6866
    2MOL   H302  644   1.434   5.554   7.869  0.2247 -1.3083  1.2929
    2MOL   H303  645   1.322   5.299   7.625 -1.6961 -0.0933 -1.1790
    2MOL   H304  646   1.129   5.144   7.674 -0.9621 -0.5841  2.0547
    2MOL   H305  647   0.970   5.188   7.868  0.2600 -0.3232 -0.6791
    2MOL   H306  648   1.042   5.367   8.034  1.9880  1.9429  0.6222
    2MOL   H307  649   1.224   5.511   7.992 -1.0356  3.2303 -2.6036
    2MOL   C308  650   1.636   5.500   7.751 -0.5187  0.1705  0.3318
    2MOL   C309  651   1.754   5.425   7.673  0.6411  0.0391 -0.6221
    2MOL   C310  652   1.874   5.510   7.670  0.3657  0.1032 -0.5384
    2MOL   C311  653   1.895   5.592   7.559  0.5787 -0.3877 -0.1577
    2MOL   C312  654   1.994   5.692   7.552 -0.2838  0.0416 -0.2931
    2MOL   C313  655   2.079   5.707   7.663  0.5474  0.1853  0.3946
    2MOL   C314  656   2.059   5.622   7.774  0.2700 -0.6876  0.2842
    2MOL   C315  657   1.960   5.523   7.779 -0.2765 -0.7496  0.1445
    2MOL   O316  658   1.781   5.301   7.741  0.7216  0.2342  0.6003
    2MOL   H317  659   1.659   5.500   7.857  1.8837  0.7949 -0.1435
    2MOL   H318  660   1.633   5.605   7.724 -0.3620  0.1135  0.0802
    2MOL   H319  661   1.717   5.409   7.571  0.6483  1.7183 -0.9128
    2MOL   H320  662   1.824   5.588   7.477 -0.4532  2.0932  0.5689
    2MOL   H321  663   1.995   5.757   7.466 -0.0654  0.0200 -0.3073
    2MOL   H322  664   2.148   5.790   7.661 -0.1767  0.7786 -0.5757
    2MOL   H323  665   2.131   5.631   7.855  1.9874 -2.1525 -1.0382
    2MOL   H324  666   1.946   5.472   7.873 -0.4648 -1.1325 -0.0918
    2MOL   C325  667   1.694   5.192   7.718  0.2096  0.8863 -0.1541
    2MOL   C326  668   1.762   5.063   7.780 -0.1907  0.6743  0.1173
    2MOL   C327  669   1.697   4.935   7.737  0.7748  0.2532 -0.4312
    2MOL   C328  670   1.571   4.890   7.794  0.1184 -0.5050  0.3929
    2MOL   C329  671   1.515   4.766   7.760  0.0228  0.3571  0.0044
    2MOL   C330  672   1.573   4.682   7.663 -0.3550  0.1207  0.0662
    2MOL   C331  673   1.696   4.728   7.604 -0.6331  0.6532 -0.2310
    2MOL   C332  674   1.752   4.853   7.636 -0.4651  0.6111  0.0316
    2MOL   O333  675   1.900   5.071   7.728  0.1194  0.0767 -0.7357
    2MOL   H334  676   1.668   5.169   7.615  0.1180  0.5371 -0.0561
    2MOL   H335  677   1.601   5.206   7.772  0.2568  0.3967  0.0589
    2MOL   H336  678   1.774   5.063   7.888 -0.9087 -1.0680  0.2172
    2MOL   H337  679   1.508   4.949   7.859  1.9402  1.3206  0.5620
    2MOL   H338  680   1.427   4.732   7.813  0.9250 -0.8186  0.7889
    2MOL   H339  681   1.530   4.584   7.647 -0.5956  0.2916 -0.3571
    2MOL   H340  682   1.748   4.664   7.533 -0.4749 -1.1852  1.4997
    2MOL   H341  683   1.841   4.885   7.583 -0.9574  1.3270 -0.3665
    2MOL   H342  684   1.915   5.164   7.716  0.2171  0.1398 -0.1234
    3MOL     C1  685   0.727   0.910   5.588 -0.4853  0.7193  0.6012
    3MOL     C2  686   0.621   0.930   5.484  0.0968 -0.0014  0.4316
    3MOL     C3  687   0.658   1.040   5.378 -0.2054  0.0032 -0.4993
    3MOL     C4  688   0.686   1.005   5.247  0.1660  0.3153 -0.0680
    3MOL     C5  689   0.723   1.102   5.155  0.1191 -0.1668 -0.5502
    3MOL     C6  690   0.747   1.233   5.192  0.1201  0.2806 -0.6923
    3MOL     C7  691   0.715   1.271   5.326 -0.3595 -0.9536 -0.4147
    3MOL     C8  692   0.677   1.170   5.415  0.3363  0.1355  0.0670
    3MOL     O9  693   0.498   0.955   5.552  0.1611  0.0084  0.0318
    3MOL    H10  694   0.824   0.905   5.539  0.2509  0.9700  2.0329
    3MOL    H11  695   0.734   0.993   5.658  0.7714  2.3389 -1.3988
    3MOL    H12  696   0.607   0.836   5.429  2.5663  0.8419 -1.7742
    3MOL    H13  697   0.684   0.903   5.212  3.3398 -0.1712  0.9860
    3MOL    H14  698   0.746   1.072   5.054 -2.9353  0.2440 -1.4316
    3MOL    H15  699   0.796   1.312   5.136  0.9666 -0.7405 -1.3953
    3MOL    H16  700   0.728   1.370   5.367  0.2862 -1.3722  0.4164
    3MOL    H17  701   0.655   1.204   5.515 -3.3012  2.0148 -1.2912
    3MOL    H18  702   0.709   0.819   5.644  0.9154  0.5955  0.8518
    3MOL    C19  703   0.380   0.960   5.465  0.2218  0.6087  0.0401
    3MOL    C20  704   0.338   0.823   5.405  0.1743 -0.5937  0.1509
    3MOL    C21  705   0.340   0.712   5.510  0.7729  0.1454  0.0863
    3MOL    C22  706   0.241   0.703   5.615 -0.4809 -0.8015  0.1168
    3MOL    C23  707   0.258   0.608   5.711  0.8908  0.0039 -0.5015
    3MOL    C24  708   0.365   0.521   5.722  0.2292 -0.4692 -1.0992
    3MOL    C25  709   0.457   0.530   5.625  0.2235  0.2364 -0.0542
    3MOL    C26  710   0.445   0.620   5.516  0.5677  0.3327 -0.5230
    3MOL    O27  711   0.404   0.795   5.286 -0.4018  0.0837  0.5744
    3MOL    H28  712   0.306   0.999   5.536 -0.1281 -1.0875  0.6268
    3MOL    H29  713   0.385   1.040   5.391 -0.4368 -0.2411 -0.9280
    3MOL    H30  714   0.234   0.835   5.377  0.0746 -0.3028  0.6348
    3MOL    H31  715   0.160   0.775   5.623 -1.1685 -1.8056  2.3994
    3MOL    H32  716   0.183   0.605   5.789  1.1402 -1.8381 -0.3111
    3MOL    H33  717   0.368   0.455   5.807  0.2014 -0.3764 -1.0268
    3MOL    H34  718   0.547   0.469   5.623 -1.3439 -2.1603  0.5804
    3MOL    H35  719   0.528   0.617   5.447 -0.3216 -3.5463 -1.5706
    3MOL    C36  720   0.330   0.708   5.198 -0.0604 -0.0426  0.4960
    3MOL    C37  721   0.404   0.664   5.073 -0.0155 -0.5392 -0.4337
    3MOL    C38  722   0.341   0.567   4.978  0.3645 -0.1582 -0.0424
    3MOL    C39  723   0.248   0.607   4.879 -0.6033 -0.8452 -0.5486
    3MOL    C40  724   0.192   0.510   4.790 -0.6262 -0.1293  0.1424
    3MOL    C41  725   0.220   0.373   4.808  0.2618  0.1760 -0.2693
    3MOL    C42  726   0.299   0.329   4.918 -0.0076 -0.3496 -0.6703
    3MOL    C43  727   0.357   0.429   5.001 -0.2877 -0.0861 -0.4169
    3MOL    O44  728   0.522   0.608   5.124  0.2109  0.6839 -0.1296
    3MOL    H45  729   0.276   0.628   5.249 -1.1039 -0.1625 -0.7493
    3MOL    H46  730   0.249   0.771   5.160 -2.1218 -2.5777  0.4693
    3MOL    H47  731   0.422   0.761   5.028 -2.7572 -0.0069 -0.4945
    3MOL    H48  732   0.237   0.712   4.858  0.6887 -0.9597 -1.8823
    3MOL    H49  733   0.122   0.538   4.712 -2.5860  1.1028  2.2868
    3MOL    H50  734   0.165   0.308   4.742  1.6393 -0.0973 -1.1480
    3MOL    H51  735   0.318   0.223   4.924  1.1389 -0.0637  1.4505
    3MOL    H52  736   0.411   0.409   5.092 -1.3281 -1.1682 -0.0154
    3MOL    C53  737   0.633   0.640   5.041  0.1592 -0.1256  0.5157
    3MOL    C54  738   0.763   0.563   5.075  0.4192 -0.2840  0.4465
    3MOL    C55  739   0.813   0.595   5.220 -0.6956  0.0664  0.3056
    3MOL    C56  740   0.907   0.698   5.247 -0.1430  0.4263  0.2083
    3MOL    C57  741   0.953   0.704   5.380 -0.3306  0.6545 -0.0149
    3MOL    C58  742   0.899   0.636   5.484 -0.2113 -0.1873  0.7082
    3MOL    C59  743   0.807   0.537   5.458  0.2037 -0.1389  0.2441
    3MOL    C60  744   0.764   0.511   5.325  0.3517 -0.0011 -0.6613
    3MOL    O61  745   0.754   0.428   5.041  0.0257  0.6300  0.2174
    3MOL    H62  746   0.608   0.619   4.937 -1.6534 -3.3729  1.5405
    3MOL    H63  747   0.657   0.746   5.050  0.2100  0.0522 -1.4638
    3MOL    H64  748   0.834   0.619   5.015 -1.4634  1.8789  0.1507
    3MOL    H65  749   0.948   0.750   5.162  0.9248 -0.9649 -0.1595
    3MOL    H66  750   1.031   0.774   5.404  0.1846 -0.4798  1.7185
    3MOL    H67  751   0.923   0.661   5.586 -0.6448  0.4426  0.6538
    3MOL    H68  752   0.765   0.487   5.544  0.5620  0.5452  0.8307
    3MOL    H69  753   0.690   0.433   5.310  2.0031 -1.9517  0.9835
    3MOL    C70  754   0.870   0.347   5.066 -0.8769  0.7017  0.0672
    3MOL    C71  755   0.851   0.197   5.017 -0.4871  0.3693 -0.0524
    3MOL    C72  756   0.930   0.098   5.104  0.1974 -0.3398 -1.0557
    3MOL    C73  757   1.058   0.139   5.160 -0.4979  0.4859 -0.3769
    3MOL    C74  758   1.132   0.043   5.232  0.5556 -0.3229  0.0712
    3MOL    C75  759   1.080   7.994   5.254 -0.2857  0.0052 -0.2336
    3MOL    C76  760   0.948   7.958   5.211 -0.5390 -0.2867 -0.4048
    3MOL    C77  761   0.873   8.052   5.135  0.8593  0.5564 -0.1510
    3MOL    O78  762   0.888   0.171   4.880 -0.2862  0.4626 -0.2932
    3MOL    H79  763   0.960   0.383   5.015 -0.0014 -0.8471  0.5041
    3MOL    H80  764   0.897   0.353   5.171  0.5998 -0.0790 -0.2607
    3MOL    H81  765   0.744   0.183   5.029 -0.5374  1.6553  1.1413
    3MOL    H82  766   1.106   0.234   5.141 -2.1469  1.1038 -1.5476
    3MOL    H83  767   1.235   0.063   5.259 -0.4965  0.6570  3.5769
    3MOL    H84  768   1.146   7.931   5.312  1.7963  2.3224  0.0106
    3MOL    H85  769   0.897   7.865   5.228 -1.5970  0.4068  0.2574
    3MOL    H86  770   0.774   8.026   5.101  0.3897 -1.0494  2.2714
    3MOL    C87  771   0.839   0.262   4.782  0.1164  0.2309  0.4225
    3MOL    C88  772   0.689   0.241   4.755 -0.1086  0.8598  0.0270
    3MOL    C89  773   0.642   0.094   4.766  0.6324 -0.0196  0.2000
    3MOL    C90  774   0.551   0.053   4.875  0.5379 -0.0177  0.0296
    3MOL    C91  775   0.512   7.998   4.885  0.0751 -0.0675  0.1660
    3MOL    C92  776   0.540   7.908   4.780  0.3317 -0.0509  0.0154
    3MOL    C93  777   0.621   7.956   4.675 -0.7213 -0.0662 -0.3451
    3MOL    C94  778   0.676   0.009   4.663  0.6848  0.4826  0.0539
    3MOL    O95  779   0.660   0.292   4.628 -0.3183  0.0241  0.3400
    3MOL    H96  780   0.899   0.232   4.696  0.1041 -1.5017  0.9955
    3MOL    H97  781   0.866   0.366   4.797  1.3717  0.0262 -0.3540
    3MOL    H98  782   0.634   0.302   4.826  1.2482  1.4976  0.5633
    3MOL    H99  783   0.524   0.118   4.957  0.9702 -0.3653  0.4565
    3MOL   H100  784   0.450   7.973   4.970 -0.6756  1.1708 -0.0067
    3MOL   H101  785   0.510   7.804   4.779 -0.0037  0.0395  0.4426
    3MOL   H102  786   0.634   7.895   4.587 -0.4522 -2.4919  1.3359
    3MOL   H103  787   0.738   0.041   4.580  1.0336 -0.9383 -0.2446
    3MOL   C104  788   0.525   0.303   4.608  0.0157 -0.0740  0.6704
    3MOL   C105  789   0.479   0.262   4.468 -0.1276 -0.2298 -0.4327
    3MOL   C106  790   0.330   0.297   4.457  0.2627 -0.5272 -0.2036
    3MOL   C107  791   0.221   0.206   4.445 -0.0291  0.5153  0.9765
    3MOL   C108  792   0.082   0.254   4.424  0.1155 -0.6236 -0.5478
    3MOL   C109  793   0.056   0.396   4.424 -0.3260  0.4544  0.0907
    3MOL   C110  794   0.165   0.487   4.435 -0.2754 -0.0325 -0.0776
    3MOL   C111  795   0.295   0.433   4.457 -1.0135 -0.0553  0.6133
    3MOL   O112  796   0.560   0.343   4.383 -0.2867 -0.5983 -0.1005
    3MOL   H113  797   0.465   0.240   4.674 -0.4303 -1.4439 -1.0026
    3MOL   H114  798   0.506   0.404   4.643  4.2021  0.2636  2.2592
    3MOL   H115  799   0.492   0.155   4.449 -1.1122 -0.5219  0.4802
    3MOL   H116  800   0.234   0.100   4.464 -2.6723 -0.6535 -2.9473
    3MOL   H117  801   8.075   0.190   4.421 -1.7517  1.7618  0.8951
    3MOL   H118  802   8.034   0.423   4.403  0.2488  2.8574  0.2361
    3MOL   H119  803   0.156   0.595   4.429  0.7570  0.1009  0.8353
    3MOL   H120  804   0.373   0.507   4.459 -1.0833  0.0849 -0.9355
    3MOL   C121  805   0.543   0.308   4.246 -0.2338 -0.4069 -0.4421
    3MOL   C122  806   0.560   0.426   4.145 -0.0579 -0.2794  0.3717
    3MOL   C123  807   0.462   0.538   4.173 -0.6516 -0.4826  0.2419
    3MOL   C124  808   0.333   0.537   4.114  0.1617  0.2578 -0.2445
    3MOL   C125  809   0.246   0.646   4.130 -0.3058  0.2555  0.2969
    3MOL   C126  810   0.291   0.759   4.198 -0.1261  0.3775  0.2932
    3MOL   C127  811   0.419   0.753   4.263 -0.3441 -0.3809  0.7116
    3MOL   C128  812   0.505   0.649   4.247  0.0895  0.5966 -0.2394
    3MOL   O129  813   0.693   0.466   4.128  0.5772  0.0352  0.0281
    3MOL   H130  814   0.451   0.255   4.219 -1.2291  1.0677  0.0142
    3MOL   H131  815   0.624   0.238   4.225  1.0418  0.8285  0.3234
    3MOL   H132  816   0.526   0.397   4.045  0.9461  0.5173 -0.2094
    3MOL   H133  817   0.294   0.455   4.056 -1.6846  1.5102 -0.8164
    3MOL   H134  818   0.144   0.652   4.093 -0.2392 -1.5048 -0.2299
    3MOL   H135  819   0.226   0.845   4.202  0.7284  0.9542  2.8943
    3MOL   H136  820   0.461   0.840   4.312  0.8862 -1.1225  0.9716
    3MOL   H137  821   0.606   0.665   4.280  1.1509 -1.3125 -2.4144
    3MOL   C138  822   0.749   0.419   4.004  0.4923 -0.3127 -0.0983
    3MOL   C139  823   0.898   0.417   4.009 -0.2606 -0.6426  1.0327
    3MOL   C140  824   0.945   0.336   3.882  0.1526 -0.0889 -1.3583
    3MOL   C141  825   0.977   0.198   3.899 -0.1896 -0.4113 -0.3452
    3MOL   C142  826   1.019   0.127   3.788  1.0009  0.5163 -0.0020
    3MOL   C143  827   1.029   0.185   3.663 -0.0951 -0.7055 -0.0010
    3MOL   C144  828   0.998   0.321   3.644  0.1887  0.0305 -0.4106
    3MOL   C145  829   0.955   0.398   3.756  0.0234  0.4940 -0.5304
    3MOL   O146  830   0.948   0.547   3.989 -0.4322  0.0689 -0.1259
    3MOL   H147  831   0.710   0.489   3.930 -0.3759 -2.9372 -2.1955
    3MOL   H148  832   0.717   0.318   3.981  0.0372 -0.5709  1.5626
    3MOL   H149  833   0.934   0.374   4.102  1.7406 -0.7779  0.2273
    3MOL   H150  834   0.965   0.153   3.997  2.9002  4.2767  2.3783
    3MOL   H151  835   1.047   0.023   3.786 -0.3652  0.0937  2.1422
    3MOL   H152  836   1.059   0.129   3.576  0.8167 -0.6151  0.2573
    3MOL   H153  837   1.011   0.356   3.543 -1.0175 -0.4664 -0.7460
    3MOL   H154  838   0.934   0.504   3.747  1.7531  0.9136  0.2858
    3MOL   C155  839   0.967   0.613   4.111  0.0382 -0.0041 -0.2077
    3MOL   C156  840   0.984   0.764   4.087 -0.0537  0.0787 -0.0843
    3MOL   C157  841   0.865   0.823   4.017 -0.1799  0.5715  0.5480
    3MOL   C158  842   0.749   0.856   4.079 -0.0636 -0.0142  0.3569
    3MOL   C159  843   0.641   0.915   4.013  0.1738  0.1445  0.1283
    3MOL   C160  844   0.648   0.921   3.873  0.4327 -0.0873  0.5159
    3MOL   C161  845   0.763   0.866   3.805  0.7583 -0.3230  0.2076
    3MOL   C162  846   0.868   0.818   3.879 -0.3856  0.2855  0.4537
    3MOL   O163  847   1.013   0.819   4.217  0.6345  0.0975  0.5324
    3MOL   H164  848   1.057   0.577   4.163 -0.3591 -0.5824  0.0905
    3MOL   H165  849   0.885   0.600   4.182 -1.6118 -3.5249 -2.6335
    3MOL   H166  850   1.076   0.779   4.030 -0.6083  0.9755 -0.7412
    3MOL   H167  851   0.751   0.856   4.187  1.8814 -1.4457  0.3424
    3MOL   H168  852   0.567   0.975   4.063 -2.1750 -1.8362 -0.8868
    3MOL   H169  853   0.563   0.960   3.817  1.0670  1.3972  0.5486
    3MOL   H170  854   0.759   0.871   3.697 -0.4748 -0.1680  0.2525
    3MOL   H171  855   0.947   0.766   3.828 -2.7622 -0.3247 -2.8242
    3MOL   C172  856   1.065   0.956   4.217  0.1947  0.4595  0.2417
    3MOL   C173  857   1.209   0.971   4.273  0.9141  0.7025  0.5770
    3MOL   C174  858   1.303   0.896   4.184  0.6862 -0.0103  0.2276
    3MOL   C175  859   1.361   0.959   4.069  0.1028 -0.6186 -0.0898
    3MOL   C176  860   1.443   0.885   3.977 -0.4949  0.4477 -0.7599
    3MOL   C177  861   1.463   0.744   3.998 -0.3353 -0.6395  0.5986
    3MOL   C178  862   1.396   0.681   4.106  0.0805 -0.1270 -0.1454
    3MOL   C179  863   1.319   0.756   4.197  1.2062  0.6519 -0.3663
    3MOL   O180  864   1.199   0.926   4.404 -0.1921 -0.0382 -0.4501
    3MOL   H181  865   1.065   0.996   4.115 -1.6372  1.9858  0.8147
    3MOL   H182  866   0.982   1.011   4.262  0.3554  0.3490  0.6703
    3MOL   H183  867   1.220   1.080   4.277  2.1737  0.6573 -1.2250
    3MOL   H184  868   1.332   1.063   4.061 -1.1545 -0.8926  0.9340
    3MOL   H185  869   1.471   0.926   3.881  0.9894 -1.4890 -1.1844
    3MOL   H186  870   1.522   0.684   3.930 -1.9448 -0.5744 -0.8975
    3MOL   H187  871   1.415   0.575   4.116 -0.8117 -0.0725  2.3933
    3MOL   H188  872   1.280   0.696   4.277  0.9801  0.9873 -0.2215
    3MOL   C189  873   1.297   0.980   4.497 -0.1022  0.3428 -0.0618
    3MOL   C190  874   1.228   1.086   4.590 -0.5884  0.3936 -0.5712
    3MOL   C191  875   1.126   1.032   4.693  0.1032  0.3123  0.2181
    3MOL   C192  876   1.154   1.043   4.833  0.3199  0.1899  0.3205
    3MOL   C193  877   1.056   1.005   4.925 -0.2647  0.3614  0.7812
    3MOL   C194  878   0.944   0.926   4.884  0.6134 -1.1180 -0.4634
    3MOL   C195  879   0.918   0.913   4.743  0.1086  0.3192 -0.3759
    3MOL   C196  880   1.005   0.967   4.652  0.4206  0.1073 -0.0034
    3MOL   O197  881   1.185   1.191   4.504  0.2014 -0.0878  0.0777
    3MOL   H198  882   1.331   0.908   4.571  0.6800  0.6507 -0.1140
    3MOL   H199  883   1.384   1.012   4.439  1.0070  0.1616  1.4676
    3MOL   H200  884   1.313   1.123   4.647 -0.5941  1.2723 -1.1215
    3MOL   H201  885   1.250   1.083   4.864  0.6893  0.3963 -1.0282
    3MOL   H202  886   1.095   1.016   5.025 -0.6379  0.9954  0.8623
    3MOL   H203  887   0.880   0.878   4.956  1.2303  1.2181  1.7074
    3MOL   H204  888   0.838   0.847   4.711  1.3450  0.1925 -3.3112
    3MOL   H205  889   0.984   0.950   4.547 -0.8048 -0.2728  0.2878
    3MOL   C206  890   1.157   1.313   4.578  0.6000 -0.4379 -0.0195
    3MOL   C207  891   1.091   1.424   4.485  0.4668 -0.2157 -0.1663
    3MOL   C208  892   0.986   1.362   4.390 -0.1973  0.2938  0.1776
    3MOL   C209  893   1.016   1.342   4.249 -0.2228 -0.5210  0.3872
    3MOL   C210  894   0.914   1.294   4.160  0.5137 -0.4511  1.0341
    3MOL   C211  895   0.789   1.268   4.202  0.5621  0.1426  0.0983
    3MOL   C212  896   0.755   1.286   4.335 -0.6312 -0.0413  0.2204
    3MOL   C213  897   0.852   1.331   4.428  0.2930  0.3370 -0.0284
    3MOL   O214  898   1.199   1.474   4.404 -0.4355  0.1386 -0.1905
    3MOL   H215  899   1.076   1.287   4.647 -0.0599 -0.3734 -0.7575
    3MOL   H216  900   1.244   1.347   4.633  1.5651 -2.6292 -0.1412
    3MOL   H217  901   1.042   1.504   4.540  0.1070 -1.1157  0.8597
    3MOL   H218  902   1.114   1.371   4.214 -0.9997 -0.1217 -1.5091
    3MOL   H219  903   0.927   1.281   4.054 -2.3764  3.7130  0.0642
    3MOL   H220  904   0.722   1.227   4.127  1.4092 -3.6390  1.3129
    3MOL   H221  905   0.658   1.255   4.372 -2.4738  0.5530 -3.7586
    3MOL   H222  906   0.827   1.341   4.533  1.4319 -1.6749  0.4705
    3MOL   C223  907   1.270   1.581   4.454  0.2320  0.8142  0.0746
    3MOL   C224  908   1.404   1.597   4.386 -0.1999 -0.0806  0.1871
    3MOL   C225  909   1.453   1.726   4.457 -1.0089  0.2012  1.1663
    3MOL   C226  910   1.495   1.732   4.597 -0.2015 -0.0943  0.3919
    3MOL   C227  911   1.561   1.849   4.644 -0.3402  0.2153  0.0780
    3MOL   C228  912   1.568   1.959   4.557 -0.2345 -0.0366 -0.3502
    3MOL   C229  913   1.522   1.956   4.427 -0.6329  0.2867  0.1727
    3MOL   C230  914   1.462   1.840   4.374  0.1719 -0.8772 -0.5443
    3MOL   O231  915   1.488   1.494   4.421 -0.2018 -0.1511 -0.1914
    3MOL   H232  916   1.208   1.664   4.422 -2.6079 -1.6153 -0.9834
    3MOL   H233  917   1.277   1.587   4.563 -2.8156 -0.6825  0.4105
    3MOL   H234  918   1.391   1.600   4.278  0.8000  0.7777  0.0738
    3MOL   H235  919   1.488   1.639   4.651 -1.3919 -1.3244 -1.7770
    3MOL   H236  920   1.600   1.841   4.744 -2.7439  0.5233  1.0686
    3MOL   H237  921   1.617   2.048   4.593 -0.0479 -0.9514  1.7248
    3MOL   H238  922   1.537   2.044   4.366  1.7418  0.7620  1.3819
    3MOL   H239  923   1.422   1.856   4.275  2.3616  0.7895 -1.1708
    3MOL   C240  924   1.469   1.359   4.378  0.9245 -0.9245 -0.2374
    3MOL   C241  925   1.607   1.291   4.420 -0.9571 -0.1616 -0.5196
    3MOL   C242  926   1.620   1.267   4.572  0.1416 -0.6323  0.2725
    3MOL   C243  927   1.599   1.146   4.640 -0.0440  0.3959 -0.2177
    3MOL   C244  928   1.642   1.135   4.771  0.6445  0.4274 -0.4139
    3MOL   C245  929   1.691   1.244   4.844 -0.2182 -0.3775  0.0610
    3MOL   C246  930   1.707   1.368   4.780 -1.0272 -0.3531 -0.4676
    3MOL   C247  931   1.660   1.385   4.649  0.3942 -0.3127 -1.0879
    3MOL   O248  932   1.615   1.168   4.353  0.1906  0.1106  0.2864
    3MOL   H249  933   1.383   1.313   4.427 -0.1161  0.4486 -0.7530
    3MOL   H250  934   1.457   1.353   4.269  1.5310  0.0373 -0.3637
    3MOL   H251  935   1.692   1.351   4.387 -0.5626 -0.5114 -0.1468
    3MOL   H252  936   1.573   1.058   4.583  2.2202 -2.1484  2.5163
    3MOL   H253  937   1.652   1.035   4.810 -0.6575  0.9147  1.2228
    3MOL   H254  938   1.729   1.231   4.944  1.8711  1.2952 -0.4689
    3MOL   H255  939   1.757   1.439   4.844 -0.9351 -0.1262 -0.7923
    3MOL   H256  940   1.679   1.481   4.604 -0.6256  0.4044 -0.0256
    3MOL   C257  941   1.689   1.159   4.227  0.3753  0.1866  0.2134
    3MOL   C258  942   1.823   1.083   4.241 -0.4981  0.8810  0.1019
    3MOL   C259  943   1.816   0.942   4.310  0.2444  0.4726  0.1329
    3MOL   C260  944   1.826   0.927   4.446 -0.3845  0.3527 -0.6554
    3MOL   C261  945   1.811   0.798   4.505 -0.2584  0.6926 -0.4934
    3MOL   C262  946   1.801   0.679   4.425 -0.1670 -0.1688 -0.1569
    3MOL   C263  947   1.794   0.701   4.282 -0.2729 -0.3147  0.0664
    3MOL   C264  948   1.787   0.834   4.232 -0.0739  0.2857 -0.2342
    3MOL   O265  949   1.903   1.174   4.305 -0.8121  0.1880 -0.0606
    3MOL   H266  950   1.691   1.239   4.153 -2.4489 -0.0514 -0.1826
    3MOL   H267  951   1.636   1.094   4.156  1.5571 -0.8683  0.2696
    3MOL   H268  952   1.861   1.062   4.141  0.0148 -2.2755  0.9048
    3MOL   H269  953   1.843   1.017   4.503  1.1380 -0.7414  0.6778
    3MOL   H270  954   1.822   0.787   4.612 -0.1125 -0.1414 -0.5952
    3MOL   H271  955   1.792   0.576   4.456 -0.9962 -0.4872 -1.4072
    3MOL   H272  956   1.783   0.625   4.207  0.8341 -0.2363 -0.1896
    3MOL   H273  957   1.778   0.831   4.125 -1.6712 -2.3146 -0.0807
    3MOL   C274  958   2.045   1.159   4.297  0.1034  0.3246  0.0615
    3MOL   C275  959   2.114   1.255   4.400  0.2118  0.1457 -0.8732
    3MOL   C276  960   2.086   1.405   4.376 -0.2119  0.7796  0.1309
    3MOL   C277  961   2.150   1.475   4.274 -0.6410  0.9582 -0.2430
    3MOL   C278  962   2.115   1.608   4.251  0.1818 -0.5961 -0.4781
    3MOL   C279  963   2.015   1.670   4.325 -0.5190 -0.2174 -0.0026
    3MOL   C280  964   1.950   1.594   4.427 -0.0903  0.1947 -0.0240
    3MOL   C281  965   1.985   1.463   4.459  0.5981 -0.0797  0.0735
    3MOL   O282  966   2.253   1.228   4.404  0.0711 -0.3104 -0.1822
    3MOL   H283  967   2.066   1.056   4.325  1.3663  0.7463  0.6941
    3MOL   H284  968   2.073   1.165   4.192 -1.3419  1.3173 -0.2822
    3MOL   H285  969   2.069   1.224   4.494  0.6011  1.8205 -0.1250
    3MOL   H286  970   2.239   1.428   4.233 -1.0598  0.4553 -0.5786
    3MOL   H287  971   2.176   1.666   4.184 -0.5569 -1.1942 -1.6725
    3MOL   H288  972   1.979   1.769   4.302 -3.5444 -0.8776  1.5154
    3MOL   H289  973   1.884   1.641   4.499 -2.0527  2.0173 -2.8987
    3MOL   H290  974   1.929   1.425   4.543 -2.2352  2.3432 -0.6072
    3MOL   C291  975   2.316   1.276   4.518  0.4627 -0.1787 -0.2675
    3MOL   C292  976   2.476   1.281   4.507  0.0877  0.1422  0.3648
    3MOL   C293  977   2.535   1.393   4.416 -0.2288  0.1524  0.0466
    3MOL   C294  978   2.630   1.366   4.317 -0.0063 -0.5167  0.0814
    3MOL   C295  979   2.660   1.461   4.215  0.4200  0.5197 -0.8893
    3MOL   C296  980   2.613   1.588   4.227  0.3634 -0.0707  0.0556
    3MOL   C297  981   2.522   1.622   4.328  0.0433 -0.4711 -0.3942
    3MOL   C298  982   2.480   1.526   4.425  0.1420  0.3127  0.0753
    3MOL   O299  983   2.512   1.286   4.646  0.3111  0.2243  0.2431
    3MOL   H300  984   2.290   1.203   4.594 -0.1708  0.4522  0.1235
    3MOL   H301  985   2.266   1.368   4.546 -2.4078 -1.7923  0.0482
    3MOL   H302  986   2.505   1.183   4.468  0.6846  0.8336 -0.9598
    3MOL   H303  987   2.670   1.265   4.319 -0.6166 -0.8020 -1.3543
    3MOL   H304  988   2.726   1.438   4.133  0.5322  0.7344 -0.8563
    3MOL   H305  989   2.641   1.661   4.152 -0.8274 -1.5381 -1.8581
    3MOL   H306  990   2.482   1.722   4.334 -2.3425 -1.4257  0.2481
    3MOL   H307  991   2.405   1.544   4.500  0.2413  0.6018  0.1041
    3MOL   C308  992   2.654   1.292   4.673  0.2182  0.0497  0.1111
    3MOL   C309  993   2.675   1.234   4.809  0.0607  0.3219 -0.8046
    3MOL   C310  994   2.823   1.198   4.826  0.1522 -0.3405  0.2303
    3MOL   C311  995   2.872   1.070   4.813  0.5312 -0.3092 -0.3717
    3MOL   C312  996   3.010   1.035   4.816 -0.2978 -0.0660  0.0325
    3MOL   C313  997   3.107   1.136   4.844  0.2156  0.8862  0.4098
    3MOL   C314  998   3.056   1.268   4.866 -0.3067  0.1301 -0.3158
    3MOL   C315  999   2.918   1.297   4.857 -0.0051 -0.1938 -0.8420
    3MOL   O316 1000   2.644   1.347   4.895  0.4994 -0.1455  0.2397
    3MOL   H317 1001   2.693   1.394   4.673  0.2343  0.0552  1.5606
    3MOL   H318 1002   2.711   1.226   4.608  1.2152 -0.0956  1.1297
    3MOL   H319 1003   2.601   1.155   4.824 -0.4413  0.8708 -0.3778
    3MOL   H320 1004   2.804   0.989   4.791 -0.6478  0.5198  0.2426
    3MOL   H321 1005   3.050   0.934   4.808 -0.4531 -0.0437 -1.1904
    3MOL   H322 1006   3.210   1.106   4.830 -1.0784 -2.3576 -2.8883
    3MOL   H323 1007   3.122   1.349   4.894  0.8899 -0.5540 -1.1519
    3MOL   H324 1008   2.880   1.397   4.872  0.5374 -0.1366  0.1893
    3MOL   C325 1009   2.631   1.314   5.033  0.0715 -0.2044 -0.0789
    3MOL   C326 1010   2.640   1.446   5.116 -0.1895  0.0941  0.1201
    3MOL   C327 1011   2.753   1.539   5.066  0.8474  0.7024  0.2534
    3MOL   C328 1012   2.733   1.620   4.949  0.2421 -0.3863 -0.4823
    3MOL   C329 1013   2.833   1.703   4.891  0.0561  0.3474  1.0972
    3MOL   C330 1014   2.959   1.697   4.952 -0.7169  0.1971 -0.2454
    3MOL   C331 1015   2.973   1.627   5.075  0.2555  0.7784 -0.4176
    3MOL   C332 1016   2.876   1.539   5.126  0.3268 -0.1400  0.4761
    3MOL   O333 1017   2.510   1.496   5.098 -0.4894 -0.3336  0.3957
    3MOL   H334 1018   2.721   1.255   5.055 -0.3257 -0.4962  0.7819
    3MOL   H335 1019   2.551   1.244   5.055  2.4303 -2.2499  2.4379
    3MOL   H336 1020   2.641   1.438   5.224 -2.0206 -2.8201 -0.0300
    3MOL   H337 1021   2.637   1.615   4.901  1.6419 -1.7347 -3.2670
    3MOL   H338 1022   2.818   1.745   4.792  0.9402 -1.5022  0.1459
    3MOL   H339 1023   3.047   1.754   4.925  0.2829 -1.1092  0.1694
    3MOL   H340 1024   3.075   1.626   5.111  0.3510  1.1855 -0.6870
    3MOL   H341 1025   2.891   1.484   5.218 -1.4085 -0.1608  0.7732
    3MOL   H342 1026   2.493   1.487   5.006 -0.2902 -1.5917  0.4678
    4MOL     C1 1027   1.907   4.133   2.927 -0.4637  0.2708  0.0402
    4MOL     C2 1028   1.889   4.087   3.077  0.3881 -0.3962 -0.1505
    4MOL     C3 1029   1.972   4.171   3.175 -0.3322  0.3488 -0.4266
    4MOL     C4 1030   1.904   4.273   3.242 -0.2175 -0.2142 -0.2054
    4MOL     C5 1031   1.980   4.370   3.313 -0.0502  0.6697 -0.1289
    4MOL     C6 1032   2.122   4.369   3.321 -0.1060  0.2336  0.1324
    4MOL     C7 1033   2.188   4.260   3.258 -0.3456 -0.1600 -0.1250
    4MOL     C8 1034   2.117   4.162   3.179  1.2626  0.5151 -0.1413
    4MOL     O9 1035   1.918   3.947   3.085 -0.0155  0.4561  0.0102
    4MOL    H10 1036   1.884   4.239   2.920  0.7197  0.6273  1.2346
    4MOL    H11 1037   2.003   4.107   2.882  0.3871 -1.0195  2.4872
    4MOL    H12 1038   1.784   4.104   3.102 -0.0054 -2.8100 -0.0071
    4MOL    H13 1039   1.798   4.294   3.241 -0.2743 -0.3846  0.9230
    4MOL    H14 1040   1.932   4.460   3.347  0.1318  0.2395  1.2924
    4MOL    H15 1041   2.178   4.440   3.380 -1.2450  1.3139 -0.0914
    4MOL    H16 1042   2.294   4.239   3.263 -0.5657 -1.5324 -1.1741
    4MOL    H17 1043   2.175   4.081   3.137  2.5046  1.7765 -0.8884
    4MOL    H18 1044   1.830   4.084   2.867 -3.1578  0.6879  3.0047
    4MOL    C19 1045   1.893   3.886   3.218 -0.2979 -0.1384 -0.4761
    4MOL    C20 1046   1.892   3.730   3.201  0.4687 -0.5324 -0.7346
    4MOL    C21 1047   1.825   3.688   3.078 -0.2570  0.6306 -0.3739
    4MOL    C22 1048   1.907   3.650   2.972 -0.7066 -0.6129  0.2143
    4MOL    C23 1049   1.848   3.614   2.850  0.0744  0.0078  0.1547
    4MOL    C24 1050   1.708   3.629   2.833 -0.1024  0.1294 -0.6866
    4MOL    C25 1051   1.627   3.683   2.937 -0.0029  0.7565 -0.5912
    4MOL    C26 1052   1.687   3.701   3.062  0.5524 -0.0949  0.2099
    4MOL    O27 1053   1.848   3.662   3.321 -1.0912 -0.4175 -0.8377
    4MOL    H28 1054   1.966   3.919   3.292  0.8656 -1.2762 -1.0928
    4MOL    H29 1055   1.793   3.910   3.254  0.1655  0.8962  0.1251
    4MOL    H30 1056   1.997   3.704   3.191  1.0594  1.2164  0.6350
    4MOL    H31 1057   2.014   3.644   2.988 -0.8172 -1.2767  0.7399
    4MOL    H32 1058   1.901   3.562   2.772 -1.9604 -0.1095 -1.2013
    4MOL    H33 1059   1.672   3.593   2.738 -0.4105 -0.0485 -0.5018
    4MOL    H34 1060   1.519   3.688   2.931  0.0765  4.3660 -0.1278
    4MOL    H35 1061   1.632   3.732   3.149 -2.0323  0.8554 -1.6827
    4MOL    C36 1062   1.872   3.518   3.312 -0.4656 -0.2835  0.3464
    4MOL    C37 1063   1.786   3.441   3.416 -0.0556  0.2221  0.3501
    4MOL    C38 1064   1.641   3.475   3.407  0.3481  0.0931 -0.0775
    4MOL    C39 1065   1.565   3.555   3.496 -0.5423  1.0272  1.1058
    4MOL    C40 1066   1.433   3.578   3.480  0.3989  0.0035 -0.6099
    4MOL    C41 1067   1.367   3.526   3.369  1.0669  0.3133 -0.6169
    4MOL    C42 1068   1.435   3.451   3.273 -0.2289  0.0008  0.8048
    4MOL    C43 1069   1.572   3.425   3.295  0.4215  0.4003  0.3616
    4MOL    O44 1070   1.828   3.475   3.544  0.0733 -0.2275  0.2886
    4MOL    H45 1071   1.850   3.470   3.217  0.8076 -2.8991  1.3330
    4MOL    H46 1072   1.978   3.496   3.323 -0.1874  0.9956  0.2845
    4MOL    H47 1073   1.808   3.335   3.404  0.4683  0.5764 -2.0513
    4MOL    H48 1074   1.607   3.594   3.588 -1.5783  0.1857  1.9379
    4MOL    H49 1075   1.376   3.648   3.540 -1.7516 -0.4767 -2.0139
    4MOL    H50 1076   1.264   3.555   3.357  1.5698  2.0556 -0.9139
    4MOL    H51 1077   1.386   3.394   3.195  1.9817  1.1068 -1.4836
    4MOL    H52 1078   1.632   3.370   3.224  2.1883  3.4060 -0.5608
    4MOL    C53 1079   1.806   3.380   3.642  0.5911  0.4768 -0.5028
    4MOL    C54 1080   1.802   3.435   3.782  0.1036 -0.1614  0.7805
    4MOL    C55 1081   1.934   3.491   3.828  0.0844 -0.4284  0.1168
    4MOL    C56 1082   1.976   3.451   3.958 -0.2234  0.2751 -0.7534
    4MOL    C57 1083   2.075   3.514   4.031  0.6633 -0.6125 -0.6255
    4MOL    C58 1084   2.146   3.621   3.969 -0.4938 -0.9958  0.4231
    4MOL    C59 1085   2.109   3.666   3.844  0.1999 -0.0862 -0.5657
    4MOL    C60 1086   1.999   3.607   3.775 -0.0218 -0.0624 -0.7547
    4MOL    O61 1087   1.696   3.531   3.803 -0.1688 -0.0989 -0.1537
    4MOL    H62 1088   1.712   3.329   3.619  0.9396 -0.3137 -0.1528
    4MOL    H63 1089   1.882   3.303   3.635 -1.0222 -1.2462  0.6638
    4MOL    H64 1090   1.775   3.357   3.854  1.4037 -1.3138  0.0529
    4MOL    H65 1091   1.924   3.368   4.002  0.5961  0.0116 -0.2790
    4MOL    H66 1092   2.104   3.473   4.127 -1.3067 -1.7163 -0.4805
    4MOL    H67 1093   2.227   3.666   4.024 -0.5709 -0.5764  0.1966
    4MOL    H68 1094   2.159   3.753   3.804 -1.9268  0.6481 -1.6872
    4MOL    H69 1095   1.963   3.637   3.678 -1.1545 -0.8515 -0.5883
    4MOL    C70 1096   1.654   3.551   3.939  1.3834 -1.0056 -0.0112
    4MOL    C71 1097   1.593   3.694   3.962  0.1821  0.7404  0.6884
    4MOL    C72 1098   1.478   3.739   3.871 -0.1803  0.6572 -0.3721
    4MOL    C73 1099   1.483   3.854   3.796  0.0365 -0.5303 -0.0011
    4MOL    C74 1100   1.382   3.905   3.720  0.2179  0.8755  0.2009
    4MOL    C75 1101   1.264   3.830   3.699 -0.6691 -0.0882 -0.5611
    4MOL    C76 1102   1.247   3.714   3.772 -0.3290 -0.0275 -0.4730
    4MOL    C77 1103   1.354   3.667   3.857 -0.0300  0.1517 -0.4529
    4MOL    O78 1104   1.684   3.799   3.993 -0.3415  0.4218  0.3698
    4MOL    H79 1105   1.573   3.484   3.968  0.3464  0.7634  1.3090
    4MOL    H80 1106   1.745   3.537   3.997  1.5335  0.3869  0.1086
    4MOL    H81 1107   1.535   3.678   4.053  0.7197 -1.0791  0.7454
    4MOL    H82 1108   1.567   3.922   3.804 -1.6354  1.5271  0.6334
    4MOL    H83 1109   1.391   3.996   3.662  1.6747 -1.0118 -2.6989
    4MOL    H84 1110   1.189   3.866   3.630  0.2291  0.7937 -1.0867
    4MOL    H85 1111   1.158   3.653   3.775 -0.9492  0.9170  0.5593
    4MOL    H86 1112   1.337   3.583   3.922  3.0475  0.5979  1.0010
    4MOL    C87 1113   1.790   3.818   3.907  0.6409 -0.2966  1.3999
    4MOL    C88 1114   1.834   3.958   3.902 -0.0433  0.3105  0.1264
    4MOL    C89 1115   1.932   3.989   3.788 -0.4469 -0.4867 -0.0642
    4MOL    C90 1116   2.071   4.006   3.812 -0.0794 -0.4515 -1.0506
    4MOL    C91 1117   2.160   4.058   3.717  0.5315 -0.4774 -0.2411
    4MOL    C92 1118   2.110   4.078   3.586 -0.6468 -0.7623  0.5506
    4MOL    C93 1119   1.975   4.063   3.552  0.5328  0.9717 -0.2410
    4MOL    C94 1120   1.887   4.015   3.654  0.1180  0.0771  0.3900
    4MOL    O95 1121   1.893   3.981   4.031 -0.1707 -0.3866  0.0470
    4MOL    H96 1122   1.766   3.779   3.808 -0.2212  1.0073  1.0843
    4MOL    H97 1123   1.872   3.765   3.953  0.3732 -2.4803 -0.5186
    4MOL    H98 1124   1.752   4.027   3.881 -1.4840 -0.5517  2.6714
    4MOL    H99 1125   2.108   3.982   3.911 -2.2881 -2.4283 -0.6726
    4MOL   H100 1126   2.262   4.078   3.746 -0.0781  1.1514  0.8356
    4MOL   H101 1127   2.184   4.093   3.509  0.6035 -0.3197  1.7925
    4MOL   H102 1128   1.941   4.062   3.450  1.7356 -2.6295 -0.6703
    4MOL   H103 1129   1.789   3.986   3.619  1.7362 -4.6438 -0.5339
    4MOL   C104 1130   1.856   4.114   4.078  0.0125  0.1184 -0.0190
    4MOL   C105 1131   1.932   4.157   4.210  0.4101 -0.1760 -0.3111
    4MOL   C106 1132   2.079   4.190   4.190  0.6827  0.8255  0.2128
    4MOL   C107 1133   2.175   4.106   4.252 -0.0488 -0.2061  0.5909
    4MOL   C108 1134   2.315   4.134   4.227 -0.4559 -0.8547 -0.2254
    4MOL   C109 1135   2.356   4.236   4.140 -0.2386 -0.4844 -0.3734
    4MOL   C110 1136   2.252   4.319   4.088 -0.5174  0.5765 -0.4610
    4MOL   C111 1137   2.116   4.306   4.121  0.8312 -0.1699 -0.4962
    4MOL   O112 1138   1.854   4.268   4.261  0.0771  0.4870 -0.1735
    4MOL   H113 1139   1.900   4.169   3.995 -0.7278 -0.7380 -0.9872
    4MOL   H114 1140   1.750   4.129   4.094 -0.0425 -1.3336  1.1315
    4MOL   H115 1141   1.915   4.080   4.285 -1.0256  0.6494  0.2223
    4MOL   H116 1142   2.141   4.012   4.294 -1.0592 -0.9497 -1.7835
    4MOL   H117 1143   2.394   4.075   4.272 -0.6663  0.6149  2.1738
    4MOL   H118 1144   2.460   4.263   4.123 -0.0419 -0.1378  1.3334
    4MOL   H119 1145   2.278   4.402   4.025 -0.9601 -0.2150 -1.7272
    4MOL   H120 1146   2.056   4.390   4.091  0.6557  0.1405  0.6891
    4MOL   C121 1147   1.885   4.301   4.396 -0.7769  0.3092  0.8775
    4MOL   C122 1148   1.815   4.435   4.424  0.2344 -0.1963 -0.5496
    4MOL   C123 1149   1.853   4.544   4.318 -0.0199  0.0281  0.2814
    4MOL   C124 1150   1.740   4.600   4.248 -0.2487  0.4787 -0.3706
    4MOL   C125 1151   1.757   4.712   4.170 -0.1673  1.3108  0.0221
    4MOL   C126 1152   1.889   4.769   4.165 -0.0218 -0.4495  0.1317
    4MOL   C127 1153   2.000   4.715   4.233  0.0473  0.2483 -0.4437
    4MOL   C128 1154   1.978   4.604   4.314 -0.6048  0.1407 -0.1570
    4MOL   O129 1155   1.674   4.419   4.441 -0.2407 -0.2666 -0.3085
    4MOL   H130 1156   1.988   4.331   4.381 -0.4738  1.2710  4.3311
    4MOL   H131 1157   1.874   4.213   4.459  1.9505 -2.1342 -1.9312
    4MOL   H132 1158   1.848   4.462   4.524 -1.8958 -1.7182  0.6100
    4MOL   H133 1159   1.641   4.559   4.234 -0.6258  1.4410 -0.5655
    4MOL   H134 1160   1.677   4.761   4.116 -1.9523  0.4876  1.8215
    4MOL   H135 1161   1.897   4.861   4.109 -1.2132 -0.6390 -0.3781
    4MOL   H136 1162   2.101   4.753   4.224 -0.6801  1.8077 -2.7298
    4MOL   H137 1163   2.051   4.561   4.381  0.4034 -1.5601 -2.3139
    4MOL   C138 1164   1.628   4.345   4.552 -0.0788  0.2318 -0.2376
    4MOL   C139 1165   1.475   4.365   4.557 -0.3340  0.5934 -0.3191
    4MOL   C140 1166   1.409   4.279   4.666  0.1884 -0.7254  0.8003
    4MOL   C141 1167   1.394   4.143   4.654  0.2268  0.1648  0.2236
    4MOL   C142 1168   1.336   4.064   4.755 -0.4979  0.5740  0.0772
    4MOL   C143 1169   1.301   4.124   4.881  0.3084 -0.2753  0.0575
    4MOL   C144 1170   1.311   4.265   4.896 -0.4897  0.3471 -0.2787
    4MOL   C145 1171   1.358   4.339   4.782 -0.5785  0.1486  0.5674
    4MOL   O146 1172   1.449   4.507   4.583 -0.3473  0.4996  0.0886
    4MOL   H147 1173   1.684   4.369   4.642  0.2200 -1.1582 -0.0486
    4MOL   H148 1174   1.655   4.240   4.538  0.1228  0.0679  1.3246
    4MOL   H149 1175   1.428   4.325   4.467 -0.4920 -1.2322  0.5384
    4MOL   H150 1176   1.419   4.093   4.562 -1.5560 -2.3454  1.0760
    4MOL   H151 1177   1.316   3.961   4.732  0.5694  0.3257  0.2074
    4MOL   H152 1178   1.260   4.078   4.970 -1.9299  1.5951  0.0573
    4MOL   H153 1179   1.291   4.318   4.988  0.4629 -0.0736  0.1785
    4MOL   H154 1180   1.361   4.447   4.791 -0.9656  0.2321 -0.2549
    4MOL   C155 1181   1.397   4.572   4.472 -0.3698 -0.2086 -0.2334
    4MOL   C156 1182   1.300   4.684   4.507  0.0163  0.5444  0.1976
    4MOL   C157 1183   1.361   4.807   4.573 -0.7155 -0.3514 -0.0721
    4MOL   C158 1184   1.276   4.913   4.603 -0.5957 -0.5858 -0.2173
    4MOL   C159 1185   1.323   5.029   4.663 -0.5277  0.0319 -0.4954
    4MOL   C160 1186   1.459   5.053   4.685  0.0120  0.3728 -0.7267
    4MOL   C161 1187   1.545   4.946   4.649 -0.1829 -0.1946  0.4229
    4MOL   C162 1188   1.499   4.822   4.605 -0.2641 -0.4529 -0.1043
    4MOL   O163 1189   1.240   4.711   4.379 -0.1371  0.2567 -0.4154
    4MOL   H164 1190   1.339   4.505   4.409 -0.4604 -2.2409  1.9496
    4MOL   H165 1191   1.477   4.616   4.412  0.0241  1.5041  1.4683
    4MOL   H166 1192   1.229   4.640   4.576 -0.3387  1.0010  0.1244
    4MOL   H167 1193   1.170   4.916   4.583 -1.4773 -1.8520  3.9535
    4MOL   H168 1194   1.255   5.110   4.687 -1.4593 -0.2479 -2.0516
    4MOL   H169 1195   1.485   5.152   4.719  2.5334  0.7593 -3.5297
    4MOL   H170 1196   1.651   4.954   4.670  0.3978  2.2685 -2.9673
    4MOL   H171 1197   1.572   4.744   4.591  0.7924  0.3192  0.9181
    4MOL   C172 1198   1.294   4.781   4.277 -0.0659  0.2372 -0.2693
    4MOL   C173 1199   1.181   4.806   4.173 -0.4344 -0.1897 -0.0771
    4MOL   C174 1200   1.050   4.858   4.233 -0.7444  0.2951 -0.1322
    4MOL   C175 1201   1.050   4.972   4.318 -0.3014  0.9701  0.2598
    4MOL   C176 1202   0.933   5.014   4.378  0.0026 -0.0353  0.5090
    4MOL   C177 1203   0.812   4.938   4.356 -0.0767  0.3820  0.1747
    4MOL   C178 1204   0.808   4.831   4.272  0.5604 -0.2331 -0.5093
    4MOL   C179 1205   0.930   4.785   4.220  0.9420 -0.0723  0.7128
    4MOL   O180 1206   1.157   4.685   4.105 -0.5776 -0.5136  0.2495
    4MOL   H181 1207   1.332   4.873   4.321  2.0068 -1.7624  2.2875
    4MOL   H182 1208   1.367   4.721   4.224 -0.0996 -0.0297 -0.0134
    4MOL   H183 1209   1.201   4.893   4.110  0.2246  1.2352  2.0711
    4MOL   H184 1210   1.135   5.037   4.328  0.9535 -0.5466 -0.4611
    4MOL   H185 1211   0.927   5.094   4.450 -2.6175 -1.1084  1.5558
    4MOL   H186 1212   0.714   4.972   4.384 -0.4160  1.3273 -2.1010
    4MOL   H187 1213   0.713   4.781   4.261 -0.0358 -0.1686  3.5749
    4MOL   H188 1214   0.911   4.690   4.172 -2.5898  1.7780 -1.7902
    4MOL   C189 1215   1.235   4.668   3.986  0.2431 -0.8506  0.2509
    4MOL   C190 1216   1.243   4.527   3.930 -0.6886  0.2819 -0.2680
    4MOL   C191 1217   1.328   4.431   4.011  0.6844 -0.4138  0.2671
    4MOL   C192 1218   1.277   4.365   4.124 -0.1171 -0.0259  0.1117
    4MOL   C193 1219   1.350   4.272   4.205 -0.3468  0.4286  0.3474
    4MOL   C194 1220   1.489   4.259   4.179  0.0293  0.4212 -0.1491
    4MOL   C195 1221   1.540   4.327   4.066 -0.0859  0.1661  0.3231
    4MOL   C196 1222   1.468   4.412   3.983  0.0766  0.1478  0.0693
    4MOL   O197 1223   1.298   4.531   3.797  0.0926  0.1892  0.2899
    4MOL   H198 1224   1.204   4.747   3.918  0.0582 -1.6513 -0.6131
    4MOL   H199 1225   1.337   4.700   4.009 -0.1595  1.8267 -1.5486
    4MOL   H200 1226   1.140   4.490   3.934 -0.1623 -1.2820 -0.7281
    4MOL   H201 1227   1.176   4.385   4.157 -0.5554 -0.0291 -1.2026
    4MOL   H202 1228   1.308   4.220   4.289 -0.8001  1.3378  0.6950
    4MOL   H203 1229   1.558   4.200   4.236  0.8440 -0.7259 -2.2468
    4MOL   H204 1230   1.646   4.318   4.047 -0.2485 -3.4322  0.7826
    4MOL   H205 1231   1.505   4.452   3.890  0.0416  3.0073  1.2451
    4MOL   C206 1232   1.222   4.466   3.700  0.4301 -0.0163 -0.5086
    4MOL   C207 1233   1.292   4.443   3.568 -0.1699  0.0958  0.4029
    4MOL   C208 1234   1.434   4.385   3.570 -0.4956 -0.0477  0.1780
    4MOL   C209 1235   1.472   4.280   3.655  0.1324  0.4175  0.3837
    4MOL   C210 1236   1.615   4.254   3.662 -0.1428  0.6171  0.8556
    4MOL   C211 1237   1.708   4.316   3.574 -0.6162  0.5923  0.5655
    4MOL   C212 1238   1.662   4.416   3.481  0.7858 -0.1701  0.1024
    4MOL   C213 1239   1.526   4.443   3.484  0.0909  0.0993  0.9195
    4MOL   O214 1240   1.293   4.567   3.495 -0.0836 -0.2324  0.0885
    4MOL   H215 1241   1.182   4.371   3.737  0.1744  0.6235  0.8776
    4MOL   H216 1242   1.130   4.522   3.685  0.5479  0.1502 -0.6037
    4MOL   H217 1243   1.245   4.363   3.510  2.4819 -2.2315  1.3360
    4MOL   H218 1244   1.403   4.226   3.718 -0.5513 -0.3105 -0.9807
    4MOL   H219 1245   1.647   4.173   3.727 -2.3974 -0.7358  0.3614
    4MOL   H220 1246   1.812   4.288   3.568 -0.7552  0.0664  0.5213
    4MOL   H221 1247   1.720   4.469   3.406 -0.2582  1.4774  0.4298
    4MOL   H222 1248   1.495   4.522   3.416  1.6687  2.3395  2.7346
    4MOL   C223 1249   1.196   4.568   3.391  0.4644 -0.5944  1.2198
    4MOL   C224 1250   1.209   4.689   3.300  0.3605 -0.3635 -0.6755
    4MOL   C225 1251   1.346   4.688   3.236 -0.4328  0.1548  0.3400
    4MOL   C226 1252   1.378   4.590   3.149 -0.8750  0.9082  0.6202
    4MOL   C227 1253   1.509   4.569   3.099 -0.1342 -0.1992 -0.1950
    4MOL   C228 1254   1.606   4.668   3.136 -0.0028  0.1604 -0.5854
    4MOL   C229 1255   1.571   4.771   3.227 -0.4017  0.9558 -0.2889
    4MOL   C230 1256   1.439   4.786   3.274  0.3984 -0.2183  0.2034
    4MOL   O231 1257   1.108   4.680   3.200 -0.5901  0.6587  0.7096
    4MOL   H232 1258   1.205   4.478   3.330 -1.5376  1.3344 -1.9911
    4MOL   H233 1259   1.096   4.553   3.431  0.9023 -0.3894  2.4338
    4MOL   H234 1260   1.192   4.780   3.356  0.6079 -0.6260 -0.1746
    4MOL   H235 1261   1.295   4.526   3.124 -0.6476  0.6991  0.3951
    4MOL   H236 1262   1.534   4.488   3.032 -1.4353 -0.0187 -0.9141
    4MOL   H237 1263   1.709   4.650   3.109  0.2217 -0.0929  0.4013
    4MOL   H238 1264   1.655   4.832   3.256  1.5834 -1.2580 -1.2282
    4MOL   H239 1265   1.413   4.866   3.341  0.7099  0.6946 -0.7508
    4MOL   C240 1266   1.058   4.812   3.160  0.2736  0.6849 -0.0433
    4MOL   C241 1267   0.944   4.781   3.059 -0.9894 -0.6430  0.2562
    4MOL   C242 1268   0.819   4.717   3.115  0.0454  0.2854  0.7543
    4MOL   C243 1269   0.708   4.705   3.027  0.6157  0.5544 -0.3577
    4MOL   C244 1270   0.593   4.635   3.067  0.1530 -0.0172  0.4505
    4MOL   C245 1271   0.584   4.578   3.190 -0.1268 -0.9150 -0.3754
    4MOL   C246 1272   0.688   4.586   3.285 -0.3622 -0.0042 -0.0841
    4MOL   C247 1273   0.813   4.647   3.241 -0.2006  0.1719 -0.4578
    4MOL   O248 1274   0.906   4.883   2.971  0.3628 -0.2731  0.3076
    4MOL   H249 1275   1.018   4.872   3.241  0.6241 -0.6989  1.1742
    4MOL   H250 1276   1.142   4.862   3.111 -0.4610  0.4887 -1.5479
    4MOL   H251 1277   0.992   4.711   2.990  0.3938 -0.0373  0.5758
    4MOL   H252 1278   0.710   4.754   2.931  0.6981 -2.3362 -1.8919
    4MOL   H253 1279   0.510   4.620   2.999  0.7442  0.6138 -0.4306
    4MOL   H254 1280   0.491   4.531   3.218  0.5914 -1.9695  0.2681
    4MOL   H255 1281   0.675   4.527   3.374  0.2017  0.4277  0.2893
    4MOL   H256 1282   0.903   4.634   3.300 -0.3959 -0.0921 -0.2217
    4MOL   C257 1283   0.834   5.003   3.030 -0.1755 -1.1151  0.2726
    4MOL   C258 1284   0.803   5.097   2.911 -0.4910 -0.3113 -0.6957
    4MOL   C259 1285   0.714   5.017   2.812 -0.0648 -0.1845 -0.0190
    4MOL   C260 1286   0.769   4.984   2.688  0.3083 -0.1105  0.1993
    4MOL   C261 1287   0.699   4.910   2.600  0.4013  0.5023 -0.0169
    4MOL   C262 1288   0.571   4.865   2.637 -0.1178  0.1907 -0.6449
    4MOL   C263 1289   0.516   4.895   2.763 -0.9488  1.1503 -0.7366
    4MOL   C264 1290   0.586   4.977   2.854 -0.2281 -0.2174  0.5789
    4MOL   O265 1291   0.918   5.158   2.845  0.2858 -0.1117 -0.0471
    4MOL   H266 1292   0.900   5.045   3.107 -0.5310  1.1589 -0.6264
    4MOL   H267 1293   0.744   4.972   3.084  0.6410 -1.0048  1.7220
    4MOL   H268 1294   0.747   5.183   2.947 -1.3400 -1.0463 -0.2583
    4MOL   H269 1295   0.874   5.000   2.668 -0.0095  0.2241 -1.2351
    4MOL   H270 1296   0.744   4.875   2.509  1.4195 -1.1689  1.0897
    4MOL   H271 1297   0.508   4.810   2.569 -0.4666 -1.3176  0.8576
    4MOL   H272 1298   0.416   4.866   2.791 -0.7957  0.8651 -0.4868
    4MOL   H273 1299   0.555   5.001   2.955  1.6260  0.5075  1.0104
    4MOL   C274 1300   0.975   5.264   2.923  0.6598  0.1472  0.7386
    4MOL   C275 1301   1.110   5.289   2.858 -0.7084 -0.1145  0.1820
    4MOL   C276 1302   1.206   5.176   2.884  0.3464 -0.2093  0.0311
    4MOL   C277 1303   1.283   5.179   2.999 -0.6525 -0.1011 -0.4786
    4MOL   C278 1304   1.360   5.063   3.038 -0.6763  0.4633 -0.0671
    4MOL   C279 1305   1.361   4.951   2.952 -0.0602 -0.3514  0.0041
    4MOL   C280 1306   1.288   4.951   2.831 -0.3263  0.2072 -0.7915
    4MOL   C281 1307   1.214   5.066   2.798  0.0596  0.5550 -0.4817
    4MOL   O282 1308   1.144   5.414   2.908 -0.4313  0.3069  0.1142
    4MOL   H283 1309   0.915   5.353   2.906  0.7664  0.1847  0.5544
    4MOL   H284 1310   0.992   5.247   3.029  0.3694 -1.7194  0.5116
    4MOL   H285 1311   1.089   5.293   2.752  0.9581 -1.1489 -0.1996
    4MOL   H286 1312   1.272   5.269   3.057 -4.6954 -0.4088 -0.6404
    4MOL   H287 1313   1.422   5.040   3.123  0.8740  2.2288 -0.6654
    4MOL   H288 1314   1.419   4.863   2.976 -1.3905 -1.4374 -0.5979
    4MOL   H289 1315   1.286   4.871   2.759  0.4421 -2.3004  1.8927
    4MOL   H290 1316   1.145   5.069   2.716 -1.2009  0.1357  0.5488
    4MOL   C291 1317   1.145   5.518   2.811  0.5291 -0.1997  0.0002
    4MOL   C292 1318   1.192   5.646   2.878  0.2075 -0.3857 -0.0467
    4MOL   C293 1319   1.310   5.637   2.980 -0.7111  0.0217  0.7242
    4MOL   C294 1320   1.314   5.723   3.089 -0.3773 -0.0226 -0.9990
    4MOL   C295 1321   1.421   5.722   3.178 -0.2913 -0.3587  0.3345
    4MOL   C296 1322   1.531   5.641   3.153  0.0420  0.2644 -0.6140
    4MOL   C297 1323   1.528   5.547   3.050 -0.0463  0.2314  1.1633
    4MOL   C298 1324   1.416   5.541   2.965  0.4338 -0.3703 -0.0764
    4MOL   O299 1325   1.221   5.727   2.769  0.2178  0.2974 -0.2431
    4MOL   H300 1326   1.046   5.522   2.764  0.1536  0.3603  0.8369
    4MOL   H301 1327   1.216   5.502   2.730  2.0104 -0.9782  1.4440
    4MOL   H302 1328   1.109   5.688   2.935  1.4580 -0.3043  1.7676
    4MOL   H303 1329   1.230   5.789   3.107 -0.5507 -0.4382 -0.2905
    4MOL   H304 1330   1.424   5.789   3.262  1.9319  2.8464 -2.1863
    4MOL   H305 1331   1.612   5.644   3.224  0.6889 -1.1322 -1.2793
    4MOL   H306 1332   1.609   5.476   3.036 -1.4912 -1.0861 -0.6428
    4MOL   H307 1333   1.416   5.461   2.893  0.6479 -1.4882  1.1327
    4MOL   C308 1334   1.194   5.862   2.785 -0.4434  0.3073 -0.0385
    4MOL   C309 1335   1.059   5.903   2.735  0.3677  0.3735  0.1343
    4MOL   C310 1336   1.026   5.853   2.591 -0.0253 -0.3930  0.5897
    4MOL   C311 1337   0.923   5.755   2.572  0.4142  0.7461  0.6434
    4MOL   C312 1338   0.891   5.692   2.452  0.2211  0.3951  0.2906
    4MOL   C313 1339   0.970   5.713   2.344 -0.6446  0.0554  0.2401
    4MOL   C314 1340   1.071   5.816   2.351  0.7590 -0.9534  0.2466
    4MOL   C315 1341   1.097   5.894   2.468 -0.5653 -0.3696  1.0383
    4MOL   O316 1342   0.959   5.860   2.835 -1.3352  0.3279 -0.7869
    4MOL   H317 1343   1.277   5.913   2.737  0.7261  0.4566  2.0808
    4MOL   H318 1344   1.215   5.902   2.884  0.6512  0.4683 -0.3326
    4MOL   H319 1345   1.068   6.012   2.735  0.3747  0.3735 -0.2848
    4MOL   H320 1346   0.872   5.724   2.662 -0.0959 -1.5504 -0.4076
    4MOL   H321 1347   0.809   5.622   2.449  0.8206 -0.5018  3.1893
    4MOL   H322 1348   0.955   5.666   2.248  1.6531  0.4599 -0.3616
    4MOL   H323 1349   1.128   5.839   2.262  1.6077 -3.2553  0.1509
    4MOL   H324 1350   1.180   5.963   2.472  0.8201 -1.9326 -0.3631
    4MOL   C325 1351   0.839   5.937   2.838 -0.1418  0.1312 -0.2210
    4MOL   C326 1352   0.728   5.891   2.944 -0.6022  0.4224  1.0661
    4MOL   C327 1353   0.616   5.987   2.947  0.0579  0.5930 -0.8360
    4MOL   C328 1354   0.584   6.059   3.062  0.4393  0.0848  0.8070
    4MOL   C329 1355   0.489   6.163   3.064  0.6767 -0.1138  0.8760
    4MOL   C330 1356   0.415   6.189   2.949 -0.5896 -0.6483 -0.1465
    4MOL   C331 1357   0.446   6.119   2.830 -0.1834  0.1220  0.3010
    4MOL   C332 1358   0.543   6.013   2.828  0.0546 -0.8003 -0.8441
    4MOL   O333 1359   0.678   5.765   2.903 -0.1957  0.3424  0.1491
    4MOL   H334 1360   0.793   5.939   2.739  0.3997 -1.1565 -0.5020
    4MOL   H335 1361   0.869   6.039   2.864  2.7295 -0.7370  0.0353
    4MOL   H336 1362   0.768   5.890   3.046 -1.2019  0.7246  1.3054
    4MOL   H337 1363   0.640   6.041   3.152  1.2684 -0.8010  0.1180
    4MOL   H338 1364   0.457   6.224   3.147 -2.4109  0.8527 -0.9702
    4MOL   H339 1365   0.345   6.270   2.954 -0.0761 -0.1867 -0.4262
    4MOL   H340 1366   0.401   6.133   2.733  0.0413  2.3146  0.5017
    4MOL   H341 1367   0.577   5.972   2.734  2.7369  0.2245 -0.3604
    4MOL   H342 1368   0.743   5.698   2.919  1.0771  1.4216 -0.3540
    5MOL     C1 1369   6.782   0.864   1.314  1.1840 -0.2499 -0.7792
    5MOL     C2 1370   6.900   0.757   1.326 -0.3538  0.2198  0.0526
    5MOL     C3 1371   7.027   0.812   1.266  0.3350 -0.1555 -0.1310
    5MOL     C4 1372   7.111   0.886   1.344  0.0818  0.5411 -0.2387
    5MOL     C5 1373   7.239   0.933   1.293  0.4131 -0.6534  0.8849
    5MOL     C6 1374   7.271   0.890   1.161 -0.0539 -0.5667  0.0691
    5MOL     C7 1375   7.190   0.813   1.074  0.2356 -0.9725  0.0177
    5MOL     C8 1376   7.061   0.782   1.128  0.0191  0.1512 -0.6206
    5MOL     O9 1377   6.870   0.634   1.259  0.2159  1.1037  0.0256
    5MOL    H10 1378   6.747   0.883   1.212 -0.1185 -0.9897 -0.4856
    5MOL    H11 1379   6.696   0.815   1.359 -0.4792  2.9570 -0.2961
    5MOL    H12 1380   6.909   0.744   1.434 -2.7039  4.1957  0.8359
    5MOL    H13 1381   7.083   0.915   1.444  0.6114  1.5409 -0.3744
    5MOL    H14 1382   7.306   0.982   1.362  1.9408 -1.5038  0.0095
    5MOL    H15 1383   7.361   0.930   1.117 -0.4229  0.3683  0.1522
    5MOL    H16 1384   7.228   0.785   0.977 -0.7367  0.7140 -0.8677
    5MOL    H17 1385   6.986   0.737   1.066 -1.2409  0.1400  0.8732
    5MOL    H18 1386   6.816   0.954   1.366  0.8820  0.3674 -1.6307
    5MOL    C19 1387   6.889   0.523   1.342 -0.0197  0.5704  0.1013
    5MOL    C20 1388   7.019   0.486   1.408 -0.2853  0.3482  0.7076
    5MOL    C21 1389   7.047   0.337   1.394  0.0344  0.6944  1.0710
    5MOL    C22 1390   7.071   0.279   1.272 -0.2179  0.6542  0.1931
    5MOL    C23 1391   7.079   0.139   1.258  1.1781 -0.3367  0.0302
    5MOL    C24 1392   7.065   0.058   1.375 -0.1058  0.8527  0.1171
    5MOL    C25 1393   7.048   0.113   1.500  0.3005  1.0741  0.7938
    5MOL    C26 1394   7.042   0.253   1.507 -0.6504 -0.1922 -0.6025
    5MOL    O27 1395   7.022   0.534   1.539 -0.2946 -0.2136  0.3260
    5MOL    H28 1396   6.817   0.516   1.424 -0.3808 -0.9392 -0.3329
    5MOL    H29 1397   6.852   0.439   1.284 -0.4407  1.2308 -0.5990
    5MOL    H30 1398   7.106   0.524   1.354 -0.5660  2.1574  1.5163
    5MOL    H31 1399   7.080   0.337   1.181  1.6884  0.5656  0.2852
    5MOL    H32 1400   7.075   0.099   1.158 -1.8933  1.4342 -0.6199
    5MOL    H33 1401   7.042   8.034   1.354  1.7209  0.6196 -0.9040
    5MOL    H34 1402   7.044   0.051   1.589 -5.6232 -0.1716 -0.1479
    5MOL    H35 1403   7.026   0.302   1.602 -0.7307 -0.1051 -0.6599
    5MOL    C36 1404   7.154   0.558   1.592  0.3664 -1.1823  0.8001
    5MOL    C37 1405   7.145   0.612   1.732  0.6573  0.6540 -0.3791
    5MOL    C38 1406   7.057   0.521   1.825  0.5507  0.1531 -0.1908
    5MOL    C39 1407   6.917   0.522   1.831 -0.3189  0.3468 -0.4090
    5MOL    C40 1408   6.849   0.432   1.909  0.2413 -0.1958  0.3599
    5MOL    C41 1409   6.920   0.343   1.993  0.0804  0.0511  0.4256
    5MOL    C42 1410   7.057   0.329   1.985  0.1512 -0.0646  0.2810
    5MOL    C43 1411   7.124   0.423   1.904 -0.5337  0.6712 -0.0305
    5MOL    O44 1412   7.104   0.743   1.725 -0.5067 -0.4275  0.1428
    5MOL    H45 1413   7.214   0.467   1.593  1.4130 -0.5530 -0.9368
    5MOL    H46 1414   7.208   0.635   1.535 -1.2243 -0.4122  0.3057
    5MOL    H47 1415   7.248   0.617   1.769 -0.0571  3.5225  1.3828
    5MOL    H48 1416   6.860   0.592   1.771 -0.8531 -0.4993 -0.8919
    5MOL    H49 1417   6.742   0.441   1.918  0.5176  1.6456  2.0645
    5MOL    H50 1418   6.870   0.288   2.072 -1.8943  1.3831  0.1540
    5MOL    H51 1419   7.113   0.252   2.036  0.5975  1.2737  1.8753
    5MOL    H52 1420   7.230   0.414   1.885 -0.9353 -1.0863 -1.6660
    5MOL    C53 1421   7.119   0.826   1.841  0.2661 -0.1607 -0.6740
    5MOL    C54 1422   7.034   0.961   1.835  0.0646 -0.3590 -0.1533
    5MOL    C55 1423   7.015   1.015   1.973 -0.1651  0.2694  0.2194
    5MOL    C56 1424   6.897   0.995   2.042  0.9141 -0.3637  0.2329
    5MOL    C57 1425   6.872   1.058   2.165 -0.4669 -0.1766  0.0387
    5MOL    C58 1426   6.966   1.145   2.222 -0.1814 -1.1263 -0.5009
    5MOL    C59 1427   7.091   1.167   2.158  0.0654 -0.4431 -0.7715
    5MOL    C60 1428   7.114   1.105   2.038  0.2295 -0.2539  0.6887
    5MOL    O61 1429   7.116   1.058   1.760  0.0007 -0.0692  0.0780
    5MOL    H62 1430   7.087   0.765   1.925  2.0902  0.6556  0.6278
    5MOL    H63 1431   7.221   0.858   1.861  0.3261 -1.2764  0.8425
    5MOL    H64 1432   6.939   0.939   1.787  0.8806 -1.2872 -1.3586
    5MOL    H65 1433   6.823   0.929   2.000 -0.0263  0.6144  0.3358
    5MOL    H66 1434   6.773   1.049   2.207 -0.1227 -0.4688  0.7914
    5MOL    H67 1435   6.932   1.204   2.305  2.0137  1.4201 -1.3371
    5MOL    H68 1436   7.168   1.231   2.200 -2.0735  1.0726  0.9644
    5MOL    H69 1437   7.209   1.120   1.990  0.6225 -0.3568  1.4398
    5MOL    C70 1438   7.038   1.160   1.697  0.1996 -0.0750  0.4409
    5MOL    C71 1439   7.126   1.275   1.664 -0.3507  0.0955 -0.0833
    5MOL    C72 1440   7.214   1.329   1.782  0.2637  0.2491 -0.0381
    5MOL    C73 1441   7.348   1.291   1.798  0.9821 -0.2961  0.5075
    5MOL    C74 1442   7.424   1.329   1.909 -0.0773 -0.0493  0.0945
    5MOL    C75 1443   7.361   1.414   2.007 -0.1020  0.6730 -0.2050
    5MOL    C76 1444   7.228   1.464   1.985  0.1893  0.2437  0.0203
    5MOL    C77 1445   7.154   1.420   1.869  0.4575  0.0224 -0.5311
    5MOL    O78 1446   7.048   1.371   1.598  0.0889  0.6078  0.3572
    5MOL    H79 1447   6.987   1.108   1.616 -2.4815 -1.2668  2.8441
    5MOL    H80 1448   6.967   1.202   1.768 -0.9811  0.1064 -0.8407
    5MOL    H81 1449   7.195   1.235   1.589 -0.0043  1.4771 -0.5098
    5MOL    H82 1450   7.398   1.227   1.727 -0.6463 -0.1561 -0.7831
    5MOL    H83 1451   7.528   1.300   1.912 -1.0652 -3.9336  0.4641
    5MOL    H84 1452   7.413   1.452   2.094  0.0147 -3.0892  1.4552
    5MOL    H85 1453   7.182   1.529   2.058 -0.1489 -0.9262  0.8813
    5MOL    H86 1454   7.056   1.457   1.843 -0.0531 -0.6440  0.3957
    5MOL    C87 1455   7.122   1.463   1.524  0.6934 -0.6175  0.5585
    5MOL    C88 1456   7.153   1.436   1.374 -0.1957  0.7221 -0.4009
    5MOL    C89 1457   7.035   1.359   1.311  0.0297 -0.5816 -0.3797
    5MOL    C90 1458   7.041   1.224   1.266  0.0459  0.1808 -0.0890
    5MOL    C91 1459   6.929   1.163   1.209 -0.4132 -0.1131 -0.2635
    5MOL    C92 1460   6.811   1.239   1.184 -0.2174  0.3518 -0.0284
    5MOL    C93 1461   6.811   1.368   1.229  0.4589 -0.1151  0.0898
    5MOL    C94 1462   6.915   1.433   1.289 -0.3361 -0.3021  0.1774
    5MOL    O95 1463   7.267   1.359   1.382 -0.2426 -0.2042  0.4769
    5MOL    H96 1464   7.206   1.504   1.580  1.5490  0.0247 -1.1820
    5MOL    H97 1465   7.046   1.541   1.523 -0.3171 -1.6048 -1.0885
    5MOL    H98 1466   7.173   1.529   1.322  0.9099  0.2684 -0.8015
    5MOL    H99 1467   7.133   1.173   1.291 -0.2959  0.4520  1.8409
    5MOL   H100 1468   6.933   1.063   1.167  1.2180 -0.0302 -0.3345
    5MOL   H101 1469   6.723   1.204   1.132 -0.1784 -0.1529  0.2386
    5MOL   H102 1470   6.730   1.435   1.206 -1.8438 -2.3826  1.2831
    5MOL   H103 1471   6.903   1.528   1.339  0.0153 -1.3489  2.2967
    5MOL   C104 1472   7.336   1.357   1.250  0.3454  0.2621 -0.4543
    5MOL   C105 1473   7.475   1.297   1.260  0.0018  0.5894  0.5838
    5MOL   C106 1474   7.551   1.345   1.378  0.2217  0.5146  0.2858
    5MOL   C107 1475   7.550   1.277   1.503 -0.1210  0.0733  0.5769
    5MOL   C108 1476   7.625   1.335   1.605  0.3903 -0.0464 -0.4687
    5MOL   C109 1477   7.708   1.448   1.595 -0.0845 -0.1520  0.3577
    5MOL   C110 1478   7.703   1.509   1.464  0.3966  0.7827 -0.0684
    5MOL   C111 1479   7.630   1.460   1.360  0.4335 -0.0134  0.0578
    5MOL   O112 1480   7.459   1.156   1.246 -0.5009  0.1086  0.5184
    5MOL   H113 1481   7.282   1.326   1.161 -0.6957 -0.5771  0.4617
    5MOL   H114 1482   7.356   1.461   1.223 -0.1510 -0.0142 -1.8908
    5MOL   H115 1483   7.526   1.332   1.170 -0.1249 -1.5342 -0.3301
    5MOL   H116 1484   7.505   1.179   1.514  0.4591 -0.3271 -0.5788
    5MOL   H117 1485   7.625   1.282   1.699 -1.7080  1.3780  0.3661
    5MOL   H118 1486   7.766   1.492   1.674  2.5135 -0.0122 -1.5775
    5MOL   H119 1487   7.750   1.602   1.438  1.1345  0.3458 -0.2974
    5MOL   H120 1488   7.625   1.518   1.269  0.7248  2.0241  1.2995
    5MOL   C121 1489   7.568   1.064   1.255 -0.6019 -0.0649  0.5300
    5MOL   C122 1490   7.668   1.078   1.140  0.3637  0.8452 -0.2980
    5MOL   C123 1491   7.622   1.025   1.005  0.2582  0.2991 -0.2463
    5MOL   C124 1492   7.581   0.888   0.989  0.2240  0.1742  0.6884
    5MOL   C125 1493   7.524   0.852   0.861  0.6690 -0.3839  0.1882
    5MOL   C126 1494   7.493   0.947   0.760  0.3134  0.2045 -0.4148
    5MOL   C127 1495   7.541   1.076   0.781  0.1489 -0.5894  0.9444
    5MOL   C128 1496   7.595   1.116   0.902 -0.5992 -0.1320  0.3756
    5MOL   O129 1497   7.726   1.209   1.134  0.7106  0.5154  0.3599
    5MOL   H130 1498   7.541   0.959   1.267  0.0782 -0.1123  1.7515
    5MOL   H131 1499   7.627   1.079   1.345 -1.6314 -1.1034  1.3892
    5MOL   H132 1500   7.748   1.010   1.169 -0.8763 -1.0086 -1.1479
    5MOL   H133 1501   7.594   0.825   1.076 -1.0475  1.7222  2.0180
    5MOL   H134 1502   7.484   0.754   0.843 -1.1030  0.6341 -1.5573
    5MOL   H135 1503   7.443   0.917   0.669 -1.8164 -0.6355  1.0284
    5MOL   H136 1504   7.514   1.151   0.708 -1.3567 -1.0502  1.0060
    5MOL   H137 1505   7.629   1.219   0.902  0.4471 -0.4605 -1.2932
    5MOL   C138 1506   7.838   1.223   1.230 -0.1725  0.1339  0.0891
    5MOL   C139 1507   7.934   1.332   1.177 -0.0128 -0.0776 -0.4873
    5MOL   C140 1508   7.999   1.406   1.292  0.2547  0.1560 -1.1695
    5MOL   C141 1509   7.995   1.547   1.290  0.4521  0.7842  0.2390
    5MOL   C142 1510   8.054   1.623   1.393  0.0266 -0.1798 -0.2964
    5MOL   C143 1511   0.037   1.555   1.505  0.5863  0.4299  0.1562
    5MOL   C144 1512   0.035   1.411   1.508 -0.4656 -0.5009  0.2953
    5MOL   C145 1513   8.061   1.345   1.404  0.4509  0.5647 -0.5794
    5MOL   O146 1514   8.041   1.272   1.100  0.2178  0.5567 -0.0057
    5MOL   H147 1515   7.899   1.134   1.246  0.1510  0.3511  0.0729
    5MOL   H148 1516   7.796   1.257   1.324 -0.0245 -0.4171  0.3583
    5MOL   H149 1517   7.870   1.399   1.119  1.5209  1.9396  0.0873
    5MOL   H150 1518   7.951   1.601   1.207  0.6620  0.7991  0.1377
    5MOL   H151 1519   8.057   1.731   1.399 -0.5255 -0.0241 -2.4310
    5MOL   H152 1520   0.075   1.610   1.590  0.7470 -1.0890  1.0774
    5MOL   H153 1521   0.080   1.352   1.586  1.3218 -1.7541 -1.6203
    5MOL   H154 1522   8.074   1.238   1.410 -1.3641  0.4097  1.0196
    5MOL   C155 1523   7.998   1.219   0.978  0.5285 -0.0509  0.0190
    5MOL   C156 1524   0.056   1.188   0.906  0.8320  0.2071  0.9366
    5MOL   C157 1525   0.061   1.048   0.840  0.5707  0.3847  0.5423
    5MOL   C158 1526   8.040   1.010   0.747  0.0007  0.3168  0.5964
    5MOL   C159 1527   8.046   0.879   0.690 -0.7335  0.2739  0.1059
    5MOL   C160 1528   0.074   0.793   0.707  0.5226  0.0064  0.1748
    5MOL   C161 1529   0.177   0.833   0.787 -0.1887  0.2729 -0.4349
    5MOL   C162 1530   0.167   0.959   0.856  0.1257 -0.0310  0.0843
    5MOL   O163 1531   0.073   1.299   0.815  0.2225  0.2704  0.5620
    5MOL   H164 1532   7.941   1.292   0.921 -0.3096 -0.7977 -0.1122
    5MOL   H165 1533   7.938   1.130   1.001 -0.5675 -0.5010 -4.0806
    5MOL   H166 1534   0.141   1.198   0.974  2.3280  1.3395 -1.0158
    5MOL   H167 1535   7.945   1.062   0.739 -1.4573 -2.4890 -1.4958
    5MOL   H168 1536   7.963   0.838   0.635 -1.3672  1.7093 -0.0330
    5MOL   H169 1537   0.081   0.695   0.662  3.1499  0.9638 -1.6109
    5MOL   H170 1538   0.265   0.774   0.806  0.5467  0.9957 -1.5220
    5MOL   H171 1539   0.255   0.974   0.917 -0.9649  0.7051  1.5163
    5MOL   C172 1540   0.203   1.335   0.787  0.1295  0.3475  0.2974
    5MOL   C173 1541   0.215   1.414   0.660  0.5448 -0.1251 -0.4825
    5MOL   C174 1542   0.128   1.541   0.649  0.2259  0.2059 -0.3364
    5MOL   C175 1543   0.002   1.534   0.587  0.0543 -0.1482  0.3047
    5MOL   C176 1544   7.998   1.648   0.587  0.6632 -0.6731  0.3253
    5MOL   C177 1545   8.040   1.768   0.646 -0.2010  0.3213 -0.3278
    5MOL   C178 1546   0.095   1.777   0.692  0.2801 -0.1371  0.1237
    5MOL   C179 1547   0.174   1.661   0.699 -0.0329 -0.3042 -0.2384
    5MOL   O180 1548   0.190   1.315   0.561 -0.1048 -0.3285  1.2969
    5MOL   H181 1549   0.236   1.400   0.869  0.7955  1.6532 -0.9655
    5MOL   H182 1550   0.269   1.249   0.788 -1.0211 -0.5462 -0.1511
    5MOL   H183 1551   0.317   1.451   0.653  0.5506 -0.0522 -0.0018
    5MOL   H184 1552   8.046   1.452   0.527  0.0300  1.0978 -1.4303
    5MOL   H185 1553   7.901   1.634   0.542 -0.1055  1.7753  1.1697
    5MOL   H186 1554   7.984   1.860   0.653  2.0356  1.7170 -0.1649
    5MOL   H187 1555   0.132   1.871   0.728 -1.8407  0.0837  1.8177
    5MOL   H188 1556   0.276   1.667   0.734 -0.4061  2.6691  0.4387
    5MOL   C189 1557   0.223   1.350   0.434 -0.0584  0.2753  0.0926
    5MOL   C190 1558   0.251   1.223   0.347  0.1382  0.1620  0.5372
    5MOL   C191 1559   0.128   1.147   0.297 -0.9643 -0.9071 -0.2827
    5MOL   C192 1560   0.079   1.170   0.164 -0.1211 -0.0770  0.0763
    5MOL   C193 1561   8.042   1.111   0.119  0.3988  0.1019 -0.1252
    5MOL   C194 1562   7.971   1.034   0.214  0.2615  0.2053 -0.0318
    5MOL   C195 1563   8.021   1.006   0.338  0.1935 -0.0182 -0.2168
    5MOL   C196 1564   0.061   1.065   0.382 -0.1322  0.6610  0.4804
    5MOL   O197 1565   0.350   1.136   0.410  0.0942 -0.6043 -0.2184
    5MOL   H198 1566   0.145   1.400   0.377 -0.3139 -1.3540 -1.0291
    5MOL   H199 1567   0.313   1.411   0.434 -0.3147  0.7105 -2.8758
    5MOL   H200 1568   0.301   1.250   0.254  0.3909 -1.0900  0.3058
    5MOL   H201 1569   0.129   1.237   0.097  3.1882 -0.4535  2.0466
    5MOL   H202 1570   8.006   1.131   0.019  0.1311  3.1573  0.5359
    5MOL   H203 1571   7.881   0.990   0.175  0.7315 -0.1828 -0.6855
    5MOL   H204 1572   7.955   0.946   0.399  1.0179  0.8692  1.5929
    5MOL   H205 1573   0.090   1.054   0.486 -0.4068  0.8069  0.5729
    5MOL   C206 1574   0.465   1.189   0.481 -0.0719  0.0062  0.1203
    5MOL   C207 1575   0.576   1.224   0.382  0.3167  0.0906  0.5973
    5MOL   C208 1576   0.706   1.237   0.463 -0.1300  0.6408  0.0528
    5MOL   C209 1577   0.735   1.344   0.545  0.1866  0.0545 -0.7233
    5MOL   C210 1578   0.854   1.342   0.626 -0.3266  0.5446 -0.3097
    5MOL   C211 1579   0.943   1.233   0.614 -0.2223  0.0853  0.3765
    5MOL   C212 1580   0.915   1.127   0.527  0.1441  0.7805  0.3810
    5MOL   C213 1581   0.799   1.132   0.451  0.4767  0.7777  0.1768
    5MOL   O214 1582   0.535   1.349   0.316 -0.1502  0.3047 -0.1188
    5MOL   H215 1583   0.449   1.270   0.553 -1.5920 -0.6445  0.5353
    5MOL   H216 1584   0.501   1.110   0.546  1.1489  0.6284  0.2160
    5MOL   H217 1585   0.581   1.147   0.305 -0.8435 -1.3792  1.9662
    5MOL   H218 1586   0.680   1.436   0.542 -0.3163 -0.1823  0.7706
    5MOL   H219 1587   0.879   1.428   0.686 -1.1197  0.7956 -0.3363
    5MOL   H220 1588   1.038   1.233   0.667  1.0582 -1.4998 -1.8444
    5MOL   H221 1589   0.976   1.038   0.521  0.6755  0.9445  2.7499
    5MOL   H222 1590   0.765   1.052   0.387  2.2956  0.0917  0.0162
    5MOL   C223 1591   0.621   1.378   0.211 -0.7020 -0.2587  0.4712
    5MOL   C224 1592   0.588   1.515   0.153 -0.1601 -0.3495  0.8138
    5MOL   C225 1593   0.453   1.523   0.092 -0.0412 -0.0135  0.5538
    5MOL   C226 1594   0.432   1.502   8.034 -0.3301  0.0053  0.4412
    5MOL   C227 1595   0.305   1.496   7.979 -0.6100 -0.4243 -0.3501
    5MOL   C228 1596   0.198   1.534   8.057 -0.7769 -0.2735 -0.6391
    5MOL   C229 1597   0.215   1.559   0.116 -0.1829  0.8295  0.3650
    5MOL   C230 1598   0.345   1.554   0.175  0.6611  0.2672  0.5487
    5MOL   O231 1599   0.612   1.602   0.258  0.3511  0.2319  0.2747
    5MOL   H232 1600   0.717   1.372   0.262 -0.8602  1.6037  1.0172
    5MOL   H233 1601   0.621   1.308   0.127 -2.4434  0.8398 -0.4778
    5MOL   H234 1602   0.654   1.529   0.067  1.1927  0.2571  1.9267
    5MOL   H235 1603   0.515   1.473   7.972  0.7058  0.3088  1.6662
    5MOL   H236 1604   0.287   1.467   7.876 -1.6797  2.0468 -0.8969
    5MOL   H237 1605   0.095   1.538   8.025 -1.5430 -0.4370  1.6617
    5MOL   H238 1606   0.128   1.576   0.178 -1.1689  1.0643 -1.0589
    5MOL   H239 1607   0.357   1.586   0.278  1.3881 -0.1484  0.5938
    5MOL   C240 1608   0.660   1.722   0.209 -0.5189  0.8139 -0.2675
    5MOL   C241 1609   0.736   1.803   0.320  0.7852 -0.5116  0.2569
    5MOL   C242 1610   0.803   1.912   0.239 -1.4550  0.1751 -0.9989
    5MOL   C243 1611   0.745   2.040   0.206 -0.3763  0.2491 -0.2377
    5MOL   C244 1612   0.822   2.140   0.134  0.3454  0.5921  0.6870
    5MOL   C245 1613   0.957   2.110   0.094 -0.2155 -0.2570  0.9280
    5MOL   C246 1614   1.010   1.989   0.124  0.0005 -0.5038  0.5298
    5MOL   C247 1615   0.937   1.889   0.194  0.1708  0.2492  0.3488
    5MOL   O248 1616   0.649   1.879   0.403 -0.8337  0.1104 -0.0992
    5MOL   H249 1617   0.718   1.706   0.118  1.6739 -3.3081  1.7009
    5MOL   H250 1618   0.575   1.780   0.175 -0.8771  0.3784 -0.1160
    5MOL   H251 1619   0.811   1.751   0.379  0.4941 -0.2967  0.8121
    5MOL   H252 1620   0.642   2.055   0.234  0.0005  0.5943  0.9691
    5MOL   H253 1621   0.778   2.235   0.108 -0.4372  0.3668  1.1620
    5MOL   H254 1622   1.015   2.181   0.036 -1.9262  1.0162  0.7308
    5MOL   H255 1623   1.103   1.966   0.076 -0.2340  1.2513 -0.8107
    5MOL   H256 1624   0.995   1.800   0.208 -2.3954 -1.4077  0.7427
    5MOL   C257 1625   0.563   1.813   0.495 -0.2764 -0.3418  0.1250
    5MOL   C258 1626   0.622   1.843   0.641 -0.1519 -0.5176  0.9405
    5MOL   C259 1627   0.581   1.981   0.686  0.1263 -0.2254 -0.2966
    5MOL   C260 1628   0.636   2.098   0.627 -1.1589 -0.1324  0.4542
    5MOL   C261 1629   0.604   2.229   0.672  1.4790 -1.0692 -0.1363
    5MOL   C262 1630   0.499   2.244   0.767 -0.0369  0.2872 -0.0780
    5MOL   C263 1631   0.433   2.127   0.819  1.0449  0.0307 -1.0964
    5MOL   C264 1632   0.479   1.994   0.784  0.3711 -0.2964 -0.1942
    5MOL   O265 1633   0.767   1.823   0.642 -0.6246 -0.8495 -0.0164
    5MOL   H266 1634   0.554   1.706   0.475 -0.8964 -0.2220 -0.2689
    5MOL   H267 1635   0.457   1.835   0.480 -0.3660  0.3768  1.7510
    5MOL   H268 1636   0.579   1.773   0.713 -0.2101 -0.6208  0.8044
    5MOL   H269 1637   0.720   2.083   0.561 -2.7214  1.4020 -1.9364
    5MOL   H270 1638   0.637   2.323   0.631 -0.4532  0.7501  2.3943
    5MOL   H271 1639   0.461   2.339   0.803  3.5603  1.5444  0.6316
    5MOL   H272 1640   0.350   2.138   0.886  2.3878 -0.9056  0.7548
    5MOL   H273 1641   0.430   1.909   0.828 -1.4855  0.6736 -0.3059
    5MOL   C274 1642   0.820   1.780   0.766  0.1357 -0.0973  0.4337
    5MOL   C275 1643   0.966   1.803   0.799 -0.7781  0.3034  0.1582
    5MOL   C276 1644   1.055   1.759   0.686 -0.1833 -0.9555 -0.0600
    5MOL   C277 1645   1.092   1.840   0.570 -0.4156 -0.1419 -0.0973
    5MOL   C278 1646   1.192   1.782   0.492  0.3159 -0.6894  0.3174
    5MOL   C279 1647   1.242   1.655   0.511  0.6597  0.1678 -0.7223
    5MOL   C280 1648   1.194   1.576   0.612 -0.0554  0.3232 -0.1014
    5MOL   C281 1649   1.102   1.628   0.698  0.1003  0.9504  0.8108
    5MOL   O282 1650   0.986   1.748   0.932 -1.4100  0.4965  0.1159
    5MOL   H283 1651   0.750   1.809   0.845  0.3172 -0.9030  0.9024
    5MOL   H284 1652   0.804   1.672   0.761 -1.1252  0.1509 -1.5699
    5MOL   H285 1653   0.960   1.909   0.825 -0.9013  0.4049 -0.2849
    5MOL   H286 1654   1.070   1.944   0.553 -2.3221 -0.3921  0.6567
    5MOL   H287 1655   1.243   1.837   0.415 -0.0202  1.7305  1.7867
    5MOL   H288 1656   1.323   1.619   0.449  2.0807  3.2348 -0.7410
    5MOL   H289 1657   1.225   1.472   0.620 -1.8415 -0.4377 -2.5560
    5MOL   H290 1658   1.055   1.573   0.779  0.2421  0.0448  0.2889
    5MOL   C291 1659   1.114   1.768   0.988 -0.7847  0.4072  0.4312
    5MOL   C292 1660   1.153   1.662   1.091 -0.3855 -0.3390  0.3870
    5MOL   C293 1661   1.139   1.514   1.048  0.5394  0.3461 -0.4932
    5MOL   C294 1662   1.015   1.445   1.071  0.1555 -0.1981  0.5887
    5MOL   C295 1663   0.993   1.310   1.018 -0.4565 -0.6891 -0.3578
    5MOL   C296 1664   1.105   1.249   0.959 -0.2467 -0.3530  0.0114
    5MOL   C297 1665   1.227   1.311   0.942  0.0507  0.1517  0.1007
    5MOL   C298 1666   1.246   1.447   0.981 -0.0757 -0.2728  0.1121
    5MOL   O299 1667   1.282   1.699   1.148 -0.0805  0.2604 -1.1151
    5MOL   H300 1668   1.103   1.861   1.045  1.6652  0.2436  1.2537
    5MOL   H301 1669   1.194   1.779   0.915 -2.1424  1.3593 -0.9590
    5MOL   H302 1670   1.081   1.665   1.173 -0.7214 -0.3202  0.0922
    5MOL   H303 1671   0.929   1.502   1.103 -0.2412 -0.6563  0.3460
    5MOL   H304 1672   0.905   1.250   1.034 -0.3971 -0.5575  0.4865
    5MOL   H305 1673   1.098   1.143   0.940  3.3325 -0.5435 -0.5809
    5MOL   H306 1674   1.307   1.256   0.894 -0.1077  1.3160 -1.5314
    5MOL   H307 1675   1.336   1.505   0.966 -1.2031  1.6288  0.5805
    5MOL   C308 1676   1.332   1.619   1.256  0.0051  0.1466 -0.5603
    5MOL   C309 1677   1.444   1.701   1.322  0.3677 -0.1319  0.6381
    5MOL   C310 1678   1.483   1.650   1.461 -0.1049 -0.8470  0.2012
    5MOL   C311 1679   1.389   1.673   1.562 -0.0225  0.3698 -0.9232
    5MOL   C312 1680   1.429   1.640   1.691  0.2350  0.0260  0.5051
    5MOL   C313 1681   1.550   1.581   1.722 -0.3404 -0.2826  0.4316
    5MOL   C314 1682   1.637   1.554   1.619  0.4846 -0.2623 -0.8997
    5MOL   C315 1683   1.603   1.586   1.482  0.5051 -0.5456  0.2065
    5MOL   O316 1684   1.554   1.703   1.224  0.4240  0.0371 -0.1025
    5MOL   H317 1685   1.366   1.520   1.228 -1.6270 -0.4326 -0.5855
    5MOL   H318 1686   1.253   1.603   1.330  2.3408 -3.4857  1.2595
    5MOL   H319 1687   1.409   1.803   1.331 -1.1755 -0.5717 -0.2521
    5MOL   H320 1688   1.299   1.730   1.545 -0.7611 -0.0079  1.5074
    5MOL   H321 1689   1.369   1.669   1.777 -0.3531  1.1789 -0.2750
    5MOL   H322 1690   1.584   1.568   1.824 -1.1617  3.4715  1.2538
    5MOL   H323 1691   1.732   1.507   1.638 -0.2807 -0.3412  3.0569
    5MOL   H324 1692   1.663   1.554   1.397 -0.1598  2.1932 -1.3584
    5MOL   C325 1693   1.602   1.838   1.196 -0.6383 -0.2521  0.4474
    5MOL   C326 1694   1.502   1.927   1.115 -0.6450  0.3373  0.6555
    5MOL   C327 1695   1.568   2.062   1.089 -0.3453  0.4210 -0.1184
    5MOL   C328 1696   1.507   2.183   1.134 -0.4374  0.6136  0.4021
    5MOL   C329 1697   1.574   2.309   1.123 -0.6023 -0.0441 -0.7910
    5MOL   C330 1698   1.699   2.314   1.050 -0.1081  0.2229 -0.0332
    5MOL   C331 1699   1.744   2.198   0.985  0.4120  0.4807  0.6099
    5MOL   C332 1700   1.684   2.074   1.001 -0.4980 -0.0329 -0.6787
    5MOL   O333 1701   1.476   1.857   1.003 -0.2404  0.0965  0.6478
    5MOL   H334 1702   1.693   1.823   1.138 -1.8105 -1.7482 -1.0642
    5MOL   H335 1703   1.632   1.886   1.289  0.1273 -1.5218  0.8660
    5MOL   H336 1704   1.406   1.934   1.166  0.7834  1.4234  3.3616
    5MOL   H337 1705   1.408   2.192   1.177 -1.1703 -0.5435 -0.9928
    5MOL   H338 1706   1.539   2.405   1.160 -3.7319 -2.1702  2.1504
    5MOL   H339 1707   1.751   2.404   1.021 -0.7638  0.9074  0.9011
    5MOL   H340 1708   1.836   2.209   0.930  0.6692  0.4307  1.0238
    5MOL   H341 1709   1.717   1.986   0.948 -0.8712  0.2384 -1.3753
    5MOL   H342 1710   1.402   1.803   1.025 -0.4199  0.7822  1.7228
    6MOL     C1 1711   4.714   2.342   5.889 -0.3377 -0.6342 -0.3273
    6MOL     C2 1712   4.611   2.428   5.829  0.3424  0.4113 -0.3042
    6MOL     C3 1713   4.675   2.551   5.775  0.8426 -0.2594  0.0277
    6MOL     C4 1714   4.660   2.584   5.636 -0.3094  0.4979 -0.1906
    6MOL     C5 1715   4.714   2.708   5.576 -0.2707 -0.2960 -0.4790
    6MOL     C6 1716   4.786   2.786   5.666 -0.0037 -0.6093 -0.2965
    6MOL     C7 1717   4.795   2.756   5.804 -0.0503  0.3815 -0.4547
    6MOL     C8 1718   4.727   2.646   5.867 -0.1079  0.0503  0.5018
    6MOL     O9 1719   4.500   2.455   5.909 -0.3574 -0.6476  0.3469
    6MOL    H10 1720   4.799   2.331   5.822 -0.0860 -0.3021 -0.0672
    6MOL    H11 1721   4.752   2.376   5.986 -1.2571  0.5068 -0.3508
    6MOL    H12 1722   4.574   2.367   5.747 -1.2462  0.7102  0.1779
    6MOL    H13 1723   4.604   2.522   5.568 -2.3719  0.3190  1.6046
    6MOL    H14 1724   4.711   2.729   5.471  2.7919 -3.6303 -1.3261
    6MOL    H15 1725   4.843   2.871   5.631 -0.8065 -0.3246 -0.9268
    6MOL    H16 1726   4.849   2.831   5.859  3.3937  0.8845 -4.2746
    6MOL    H17 1727   4.723   2.615   5.970 -1.4464  0.5076  0.6016
    6MOL    H18 1728   4.669   2.243   5.895 -2.0069  0.1411  0.4102
    6MOL    C19 1729   4.397   2.363   5.904 -0.0301  0.5117 -0.5864
    6MOL    C20 1730   4.273   2.397   5.996 -0.7443 -0.2124  0.3533
    6MOL    C21 1731   4.313   2.402   6.144 -0.4079 -0.2242 -0.5901
    6MOL    C22 1732   4.389   2.506   6.183  0.4186  0.5528 -0.1445
    6MOL    C23 1733   4.441   2.517   6.312  0.5622  0.4628 -0.1521
    6MOL    C24 1734   4.404   2.413   6.404 -0.1669  0.1321  0.3988
    6MOL    C25 1735   4.317   2.308   6.364 -0.2098  0.3598  0.0097
    6MOL    C26 1736   4.287   2.292   6.230  0.7751  0.1242 -0.1699
    6MOL    O27 1737   4.168   2.301   5.975 -0.3098 -0.0703  0.0165
    6MOL    H28 1738   4.367   2.348   5.800  0.6963 -3.1317 -0.3613
    6MOL    H29 1739   4.445   2.268   5.930  0.7224  0.4386 -2.1755
    6MOL    H30 1740   4.249   2.503   5.988 -2.8212 -0.5845  1.5654
    6MOL    H31 1741   4.406   2.587   6.114  1.0064  0.1674 -0.4600
    6MOL    H32 1742   4.491   2.610   6.338 -1.1213  1.0665  1.0527
    6MOL    H33 1743   4.444   2.428   6.503 -0.4900  0.6169  0.4561
    6MOL    H34 1744   4.300   2.227   6.434  1.5073  0.0431  0.0886
    6MOL    H35 1745   4.242   2.200   6.196  0.7104  0.2294 -0.3678
    6MOL    C36 1746   4.046   2.370   5.998 -0.3869 -0.6922  0.1626
    6MOL    C37 1747   3.931   2.265   6.016  0.0811 -0.1157  0.2801
    6MOL    C38 1748   3.964   2.157   6.118 -0.0517 -0.2664 -0.5796
    6MOL    C39 1749   3.921   2.175   6.255 -0.4390  0.6240  0.6588
    6MOL    C40 1750   3.942   2.072   6.352 -0.4198  0.1831 -0.3447
    6MOL    C41 1751   4.021   1.963   6.310 -0.0146 -0.1052 -0.1115
    6MOL    C42 1752   4.073   1.956   6.180 -0.1893 -0.2240 -0.4474
    6MOL    C43 1753   4.053   2.054   6.087  0.9362  0.4169  0.5366
    6MOL    O44 1754   3.927   2.216   5.882 -0.4593 -0.8362  0.5152
    6MOL    H45 1755   4.045   2.436   6.085  1.2738  0.2595 -0.5268
    6MOL    H46 1756   4.011   2.432   5.916  1.5339 -0.2070 -0.3099
    6MOL    H47 1757   3.837   2.313   6.044 -1.4719 -3.4171  0.8566
    6MOL    H48 1758   3.861   2.258   6.291 -3.2026 -0.7014 -0.7191
    6MOL    H49 1759   3.897   2.074   6.450  1.5594 -0.4071  0.5902
    6MOL    H50 1760   4.049   1.875   6.366 -0.5854 -1.3151 -1.7023
    6MOL    H51 1761   4.132   1.871   6.150 -0.7243 -0.5470 -0.5942
    6MOL    H52 1762   4.092   2.035   5.988 -0.1750 -1.5973  0.4570
    6MOL    C53 1763   3.798   2.174   5.840 -0.8525  0.3320 -0.5053
    6MOL    C54 1764   3.784   2.121   5.699 -0.0448 -0.5512  0.1926
    6MOL    C55 1765   3.657   2.042   5.682  0.4687  0.6714  0.2312
    6MOL    C56 1766   3.532   2.101   5.652  0.1370 -0.0533 -0.0313
    6MOL    C57 1767   3.416   2.027   5.655 -0.9331  0.4396 -0.1470
    6MOL    C58 1768   3.417   1.892   5.684 -0.0542  0.5537  0.0235
    6MOL    C59 1769   3.540   1.824   5.703  0.7898 -0.0659  0.4541
    6MOL    C60 1770   3.659   1.900   5.698  0.3071 -1.0345 -0.2765
    6MOL    O61 1771   3.785   2.234   5.601  0.3736  0.9301  0.0681
    6MOL    H62 1772   3.765   2.098   5.911 -0.5511  0.3035 -0.3943
    6MOL    H63 1773   3.731   2.259   5.857  0.6272  0.9141  2.8181
    6MOL    H64 1774   3.868   2.057   5.671  1.0929 -0.2095  2.6693
    6MOL    H65 1775   3.537   2.207   5.636 -0.2090  0.2883  2.0242
    6MOL    H66 1776   3.331   2.089   5.632 -1.6691 -0.3584  0.4107
    6MOL    H67 1777   3.329   1.831   5.693  0.0823  0.2543 -0.6715
    6MOL    H68 1778   3.547   1.720   5.732  2.7344 -0.6973 -2.1291
    6MOL    H69 1779   3.754   1.850   5.711  0.8934  0.0938 -0.2003
    6MOL    C70 1780   3.814   2.186   5.470  0.6670 -0.6940  0.0457
    6MOL    C71 1781   3.826   2.312   5.386 -0.5716  0.3251  0.0680
    6MOL    C72 1782   3.783   2.284   5.243  0.6316 -0.4920 -0.3590
    6MOL    C73 1783   3.847   2.177   5.179  0.1936 -0.2874 -0.5893
    6MOL    C74 1784   3.814   2.140   5.048  0.9392  0.0259 -0.4801
    6MOL    C75 1785   3.712   2.213   4.985 -0.0331  0.3616 -0.0146
    6MOL    C76 1786   3.647   2.321   5.043  0.2545 -0.4395 -0.6178
    6MOL    C77 1787   3.675   2.352   5.181 -0.0376  0.8652 -0.6174
    6MOL    O78 1788   3.960   2.358   5.391 -0.6361  0.4697 -0.6247
    6MOL    H79 1789   3.905   2.126   5.470  0.1713 -1.4630 -1.4755
    6MOL    H80 1790   3.734   2.126   5.428 -0.9525  1.9986 -0.8808
    6MOL    H81 1791   3.757   2.389   5.419 -0.4094  0.8827 -0.8640
    6MOL    H82 1792   3.934   2.137   5.229  1.6031  3.4029  0.0696
    6MOL    H83 1793   3.867   2.058   5.002  4.2352  1.0067  1.3535
    6MOL    H84 1794   3.704   2.191   4.879  0.0961  1.5319 -0.2705
    6MOL    H85 1795   3.584   2.384   4.982  0.9257 -0.7928 -1.6902
    6MOL    H86 1796   3.629   2.437   5.230  2.0061  0.3402  2.2908
    6MOL    C87 1797   3.985   2.462   5.489 -0.2158 -0.8246 -0.1526
    6MOL    C88 1798   4.138   2.484   5.500 -0.6327  0.7344 -0.1332
    6MOL    C89 1799   4.230   2.359   5.521  0.3865  0.4476 -0.2649
    6MOL    C90 1800   4.367   2.349   5.484 -0.2523 -0.0058  0.5062
    6MOL    C91 1801   4.446   2.245   5.517  0.4158 -0.6183 -0.9342
    6MOL    C92 1802   4.388   2.136   5.588 -0.1956 -0.3616  0.1965
    6MOL    C93 1803   4.260   2.146   5.639  0.2568  0.1639  0.1316
    6MOL    C94 1804   4.182   2.257   5.601  0.2696 -0.2015 -0.3813
    6MOL    O95 1805   4.170   2.587   5.587  0.3003  0.2964  0.1770
    6MOL    H96 1806   3.949   2.416   5.581  1.5395  0.1691  1.0533
    6MOL    H97 1807   3.937   2.557   5.464  1.2094 -0.4971 -1.6791
    6MOL    H98 1808   4.162   2.511   5.397 -0.7156 -1.2725 -0.6991
    6MOL    H99 1809   4.410   2.434   5.434  1.2375 -0.5814  0.7761
    6MOL   H100 1810   4.553   2.245   5.506  0.4864 -2.0434 -0.4553
    6MOL   H101 1811   4.451   2.054   5.621 -0.5553 -1.3948 -1.6262
    6MOL   H102 1812   4.236   2.063   5.705 -0.0530  0.3246  0.2210
    6MOL   H103 1813   4.079   2.253   5.635 -0.0273 -3.5326 -1.4549
    6MOL   C104 1814   4.302   2.640   5.599  0.6848 -0.2267 -0.7865
    6MOL   C105 1815   4.297   2.783   5.672  0.4510  0.2141 -0.0757
    6MOL   C106 1816   4.224   2.899   5.599 -0.2347 -0.1913 -0.1666
    6MOL   C107 1817   4.128   2.976   5.665  0.3167  0.2075  0.7544
    6MOL   C108 1818   4.067   3.078   5.589 -0.3251 -0.1605  0.1360
    6MOL   C109 1819   4.100   3.113   5.462  0.0955 -0.2640  0.2684
    6MOL   C110 1820   4.193   3.034   5.397  0.0596  0.1707  0.6364
    6MOL   C111 1821   4.252   2.924   5.463 -0.0314  0.2190 -0.3895
    6MOL   O112 1822   4.264   2.768   5.813 -0.1391  0.2257  0.0308
    6MOL   H113 1823   4.370   2.586   5.665  0.1958  1.5968  1.2456
    6MOL   H114 1824   4.349   2.650   5.502  0.5653 -1.0897 -0.9410
    6MOL   H115 1825   4.403   2.806   5.667  0.3894  0.6034  0.4219
    6MOL   H116 1826   4.107   2.957   5.769  1.2230  1.2448  1.1249
    6MOL   H117 1827   4.004   3.152   5.637  1.1021  0.7650  0.5970
    6MOL   H118 1828   4.069   3.209   5.423  2.9164  1.5889  2.3188
    6MOL   H119 1829   4.207   3.049   5.291  2.2060  2.4776  1.2194
    6MOL   H120 1830   4.308   2.844   5.417 -0.7103 -1.3605  1.4455
    6MOL   C121 1831   4.370   2.800   5.905  0.1172  0.4319 -0.6299
    6MOL   C122 1832   4.393   2.953   5.937  0.0865  0.6193  0.5566
    6MOL   C123 1833   4.469   2.958   6.069 -0.3920  1.4742 -1.0760
    6MOL   C124 1834   4.612   2.971   6.083  0.1718 -0.2496 -0.5503
    6MOL   C125 1835   4.671   2.993   6.205  0.0011 -0.4334  0.0818
    6MOL   C126 1836   4.593   2.992   6.325  0.1563 -0.6475 -0.4858
    6MOL   C127 1837   4.456   2.979   6.310 -0.0249 -0.1309  0.1043
    6MOL   C128 1838   4.393   2.973   6.187  0.4518 -0.9735 -0.0649
    6MOL   O129 1839   4.468   3.009   5.836  0.6292 -0.2258 -0.2505
    6MOL   H130 1840   4.458   2.745   5.872  1.3719  2.3116 -0.5008
    6MOL   H131 1841   4.339   2.748   5.995 -0.8043  0.2050 -1.0691
    6MOL   H132 1842   4.298   3.004   5.952 -0.3432  0.4162 -1.4353
    6MOL   H133 1843   4.667   2.971   5.990  0.0143 -1.1117 -0.6497
    6MOL   H134 1844   4.777   3.008   6.216  0.2846 -0.3891 -2.5160
    6MOL   H135 1845   4.646   2.997   6.419  0.1106 -3.7732 -0.2555
    6MOL   H136 1846   4.386   2.954   6.388 -1.4125 -0.6355 -1.2922
    6MOL   H137 1847   4.286   2.963   6.189  0.1246  2.1332  0.3833
    6MOL   C138 1848   4.446   3.149   5.822 -0.5360 -0.4759 -0.9809
    6MOL   C139 1849   4.548   3.205   5.723 -0.0740  0.1143  0.4144
    6MOL   C140 1850   4.519   3.346   5.683  0.6273 -0.0652  0.5575
    6MOL   C141 1851   4.466   3.370   5.554 -0.0063 -0.1550 -0.7378
    6MOL   C142 1852   4.430   3.501   5.516  0.5736  0.6607  0.0434
    6MOL   C143 1853   4.442   3.603   5.611  0.5864  0.0917  0.0949
    6MOL   C144 1854   4.494   3.575   5.740  0.4980 -0.1558 -0.9404
    6MOL   C145 1855   4.526   3.444   5.781 -0.2998  0.0804 -0.3474
    6MOL   O146 1856   4.679   3.194   5.784 -0.2932 -0.1437  0.5344
    6MOL   H147 1857   4.447   3.202   5.917 -0.8802 -0.1599 -1.1530
    6MOL   H148 1858   4.345   3.159   5.784 -0.3925  0.3351 -1.1761
    6MOL   H149 1859   4.559   3.149   5.630  0.3693  1.8430 -0.5916
    6MOL   H150 1860   4.453   3.293   5.480 -0.3418 -0.2058 -0.6284
    6MOL   H151 1861   4.375   3.517   5.424  1.7242  0.4110 -0.6938
    6MOL   H152 1862   4.423   3.702   5.574  1.0006 -0.0222 -0.4275
    6MOL   H153 1863   4.510   3.656   5.810 -4.0683  2.1663 -2.4237
    6MOL   H154 1864   4.572   3.419   5.876  1.2258  1.5908 -0.6559
    6MOL   C155 1865   4.792   3.223   5.696 -0.2165  0.4536  0.0741
    6MOL   C156 1866   4.906   3.264   5.787 -0.4089 -0.4008 -0.6135
    6MOL   C157 1867   4.987   3.150   5.835 -0.2000  0.4435  0.1617
    6MOL   C158 1868   4.955   3.081   5.953  0.1686 -0.5160 -0.1297
    6MOL   C159 1869   5.029   2.972   5.999 -0.0921 -0.4958 -0.4461
    6MOL   C160 1870   5.126   2.924   5.906 -0.0531 -0.5526 -0.2925
    6MOL   C161 1871   5.151   2.980   5.772  0.5594 -0.7153 -0.2835
    6MOL   C162 1872   5.078   3.097   5.742  0.7297 -0.2676 -0.3553
    6MOL   O163 1873   4.986   3.359   5.727  0.0723  0.6165  0.1730
    6MOL   H164 1874   4.777   3.314   5.637 -2.3865  0.7374  1.0429
    6MOL   H165 1875   4.810   3.152   5.615  1.6772  1.0544 -0.0629
    6MOL   H166 1876   4.850   3.313   5.867  0.4357 -0.8232  0.2553
    6MOL   H167 1877   4.875   3.104   6.023  0.6499 -1.6710  0.8248
    6MOL   H168 1878   5.015   2.923   6.094  1.2908 -0.6463 -0.3141
    6MOL   H169 1879   5.191   2.841   5.932 -1.8278 -1.6624  0.6781
    6MOL   H170 1880   5.222   2.938   5.703  1.5463 -2.6291  1.8389
    6MOL   H171 1881   5.085   3.150   5.648 -1.4173 -1.5239 -1.2613
    6MOL   C172 1882   5.078   3.437   5.812  0.2100  0.2099 -0.3614
    6MOL   C173 1883   5.131   3.564   5.739 -0.9650  0.4357 -0.0187
    6MOL   C174 1884   5.010   3.640   5.686 -0.8858  0.0654 -0.7707
    6MOL   C175 1885   4.936   3.594   5.575  0.0257 -0.5842 -0.9716
    6MOL   C176 1886   4.804   3.654   5.553  0.5713 -0.1800  0.3696
    6MOL   C177 1887   4.756   3.756   5.636  0.2235 -0.4627  0.6201
    6MOL   C178 1888   4.836   3.798   5.741 -0.6345  0.0993 -0.4232
    6MOL   C179 1889   4.960   3.743   5.766  0.2089  0.2376  0.0438
    6MOL   O180 1890   5.220   3.540   5.634 -0.0434  0.1933 -0.2949
    6MOL   H181 1891   5.027   3.472   5.902 -0.4899  0.1928 -0.7483
    6MOL   H182 1892   5.159   3.369   5.837 -0.0238  0.7074  1.7982
    6MOL   H183 1893   5.181   3.630   5.810 -3.2797  1.1996  0.9506
    6MOL   H184 1894   4.968   3.519   5.504  0.5359  0.3567 -1.7521
    6MOL   H185 1895   4.737   3.604   5.485 -0.0146  1.7678 -0.5169
    6MOL   H186 1896   4.658   3.795   5.613  0.7780  0.5531 -0.0677
    6MOL   H187 1897   4.799   3.877   5.804  0.3311  0.5028 -0.3574
    6MOL   H188 1898   5.005   3.778   5.858  2.3183 -0.0377 -0.8369
    6MOL   C189 1899   5.309   3.645   5.614  0.1397  0.4382  0.6178
    6MOL   C190 1900   5.399   3.615   5.492 -0.3137  0.2189  0.9538
    6MOL   C191 1901   5.331   3.568   5.369 -0.3941  0.0309  0.4190
    6MOL   C192 1902   5.383   3.458   5.302 -0.7064  0.0352  0.0046
    6MOL   C193 1903   5.313   3.400   5.194 -0.5555  0.8928  0.1218
    6MOL   C194 1904   5.190   3.450   5.147 -0.7375  0.3157 -0.0657
    6MOL   C195 1905   5.136   3.558   5.217 -0.1034  0.8059 -0.1390
    6MOL   C196 1906   5.206   3.618   5.324  1.0134 -0.4694 -0.3408
    6MOL   O197 1907   5.515   3.538   5.533  0.4757  0.0298 -0.0094
    6MOL   H198 1908   5.258   3.741   5.599 -0.1026  0.5756  2.1737
    6MOL   H199 1909   5.369   3.662   5.703  0.3352  1.4316  0.3104
    6MOL   H200 1910   5.438   3.713   5.465 -2.6470  0.9015 -0.0664
    6MOL   H201 1911   5.483   3.421   5.323  0.2258  2.1970 -0.4979
    6MOL   H202 1912   5.351   3.312   5.144  3.2331  0.8753  2.7734
    6MOL   H203 1913   5.131   3.411   5.066 -1.8659  1.6782  0.0851
    6MOL   H204 1914   5.044   3.602   5.180 -0.8510  0.2383  1.0026
    6MOL   H205 1915   5.164   3.706   5.370  0.7336 -0.3205 -0.8732
    6MOL   C206 1916   5.618   3.611   5.596  0.6473  0.3312 -0.2040
    6MOL   C207 1917   5.736   3.518   5.610 -0.4423  0.5309  0.4776
    6MOL   C208 1918   5.803   3.483   5.474  0.3152 -0.0821  0.4970
    6MOL   C209 1919   5.770   3.358   5.420 -0.2225 -0.7662 -0.4765
    6MOL   C210 1920   5.820   3.314   5.296 -0.0937 -1.0688  0.5642
    6MOL   C211 1921   5.891   3.403   5.217  0.9469 -0.0006  0.4864
    6MOL   C212 1922   5.907   3.539   5.266 -0.1827 -0.0083 -0.5122
    6MOL   C213 1923   5.873   3.573   5.396  0.2134 -0.1321 -0.5038
    6MOL   O214 1924   5.694   3.411   5.688  0.2567 -0.6027  0.7491
    6MOL   H215 1925   5.649   3.703   5.547 -0.5658  0.4003 -0.8505
    6MOL   H216 1926   5.581   3.652   5.690 -0.5416 -0.6265 -0.2454
    6MOL   H217 1927   5.815   3.562   5.671  0.7258 -1.1432  0.1782
    6MOL   H218 1928   5.714   3.286   5.478  0.3210 -0.9354 -0.1608
    6MOL   H219 1929   5.810   3.213   5.260  1.7024 -1.3649  0.8596
    6MOL   H220 1930   5.928   3.371   5.121  1.0287 -3.0836  1.4940
    6MOL   H221 1931   5.960   3.621   5.219  3.8634 -2.5779 -0.7163
    6MOL   H222 1932   5.896   3.671   5.434 -2.5898 -0.5132  2.3554
    6MOL   C223 1933   5.807   3.334   5.729  0.1273 -0.5942  0.1552
    6MOL   C224 1934   5.767   3.203   5.802 -0.2351  0.0500  0.3541
    6MOL   C225 1935   5.689   3.112   5.722  0.0659  0.1670 -0.1697
    6MOL   C226 1936   5.751   2.992   5.681  0.0504 -0.3108 -0.4418
    6MOL   C227 1937   5.672   2.904   5.600 -0.5287  0.5571  0.0213
    6MOL   C228 1938   5.549   2.947   5.550 -0.2127 -0.8199  0.0821
    6MOL   C229 1939   5.484   3.060   5.597  0.7266  0.3322  0.5620
    6MOL   C230 1940   5.560   3.145   5.683  0.0431  0.7030 -0.5692
    6MOL   O231 1941   5.888   3.143   5.852  0.6174  0.7484  0.0247
    6MOL   H232 1942   5.864   3.308   5.640 -1.8808 -4.6378 -0.0504
    6MOL   H233 1943   5.870   3.395   5.794  1.3399 -2.0073  0.3363
    6MOL   H234 1944   5.705   3.229   5.888 -0.1690  2.9432 -0.4152
    6MOL   H235 1945   5.851   2.967   5.713  0.0057  1.0721  0.8701
    6MOL   H236 1946   5.709   2.808   5.570  0.7542  1.6423 -1.9300
    6MOL   H237 1947   5.499   2.883   5.479  0.9374 -0.7186 -0.8332
    6MOL   H238 1948   5.390   3.089   5.552  0.1246 -2.0574  0.2161
    6MOL   H239 1949   5.511   3.236   5.714  1.2474  1.2868 -0.3570
    6MOL   C240 1950   5.980   3.217   5.937  0.8437 -0.2639  0.3561
    6MOL   C241 1951   6.078   3.121   6.015 -0.2892  0.0793  0.6961
    6MOL   C242 1952   6.118   3.004   5.929  0.4348 -0.0185  0.0822
    6MOL   C243 1953   6.182   3.028   5.809  0.6848 -0.4980  0.4618
    6MOL   C244 1954   6.201   2.927   5.714 -0.2206 -0.0428 -0.7594
    6MOL   C245 1955   6.161   2.795   5.747 -0.6609 -0.5822 -0.5693
    6MOL   C246 1956   6.106   2.769   5.877  0.3764 -0.0111 -0.0768
    6MOL   C247 1957   6.087   2.875   5.967 -0.8680  0.5872  0.4617
    6MOL   O248 1958   6.186   3.194   6.067  0.1641 -0.2359 -0.5995
    6MOL   H249 1959   6.033   3.277   5.863 -1.3016 -0.3176 -1.2483
    6MOL   H250 1960   5.927   3.284   6.005  1.6916 -1.5390  2.3166
    6MOL   H251 1961   6.014   3.080   6.093 -0.4181  0.9053  1.0243
    6MOL   H252 1962   6.204   3.133   5.792 -0.0657 -0.7245 -2.1137
    6MOL   H253 1963   6.245   2.944   5.618 -0.2729 -2.4771 -1.2513
    6MOL   H254 1964   6.167   2.716   5.675  0.7807 -2.5640  1.6418
    6MOL   H255 1965   6.076   2.667   5.897 -0.3359  0.1006 -0.5803
    6MOL   H256 1966   6.036   2.854   6.060 -0.4507 -1.3263  0.2785
    6MOL   C257 1967   6.229   3.160   6.199 -0.0984 -0.3897  0.0142
    6MOL   C258 1968   6.333   3.272   6.251 -0.8902  0.4762 -0.2154
    6MOL   C259 1969   6.409   3.230   6.378  0.3880 -0.4290 -0.9970
    6MOL   C260 1970   6.478   3.110   6.381 -0.0419 -0.7920 -0.1796
    6MOL   C261 1971   6.535   3.068   6.507 -0.4171 -0.4354 -0.4425
    6MOL   C262 1972   6.523   3.146   6.626  0.3519 -0.5676 -0.6079
    6MOL   C263 1973   6.465   3.277   6.613  0.2065 -0.2004 -0.5040
    6MOL   C264 1974   6.398   3.319   6.497 -0.9232  0.0988  0.1071
    6MOL   O265 1975   6.260   3.396   6.274 -0.3760 -0.4542 -0.1362
    6MOL   H266 1976   6.286   3.067   6.206  0.7123  0.0093 -1.0892
    6MOL   H267 1977   6.144   3.152   6.265 -0.7704  0.8648 -0.6844
    6MOL   H268 1978   6.412   3.295   6.179  0.5626 -0.7994  0.9339
    6MOL   H269 1979   6.481   3.045   6.295  1.9016 -1.9124  0.6865
    6MOL   H270 1980   6.598   2.980   6.504  0.8996  0.5086 -0.8528
    6MOL   H271 1981   6.552   3.111   6.724  0.6789 -0.5663 -0.7023
    6MOL   H272 1982   6.446   3.334   6.703  1.3074  1.2467 -1.1527
    6MOL   H273 1983   6.347   3.414   6.493 -0.9534  0.1385  1.3420
    6MOL   C274 1984   6.214   3.456   6.163  0.0022  0.0787  0.0314
    6MOL   C275 1985   6.176   3.604   6.191 -0.3113  0.5904 -0.2421
    6MOL   C276 1986   6.104   3.646   6.066  0.1630 -0.0027 -0.4558
    6MOL   C277 1987   6.170   3.681   5.947  0.5150 -0.2157  0.7043
    6MOL   C278 1988   6.102   3.721   5.831 -0.2400  0.5583 -0.2427
    6MOL   C279 1989   5.959   3.723   5.841  0.1486  0.7050 -0.7008
    6MOL   C280 1990   5.883   3.705   5.961  0.2039 -0.6251  0.3892
    6MOL   C281 1991   5.961   3.672   6.074  0.0922 -1.2915 -0.5485
    6MOL   O282 1992   6.290   3.677   6.216  0.3440 -0.1995  0.3941
    6MOL   H283 1993   6.294   3.451   6.089 -0.6523 -2.5034 -0.5504
    6MOL   H284 1994   6.125   3.404   6.130 -0.2063  1.1200 -1.0847
    6MOL   H285 1995   6.107   3.594   6.275 -1.6411  1.2038 -1.2532
    6MOL   H286 1996   6.277   3.672   5.937  0.3135 -1.9048 -0.1409
    6MOL   H287 1997   6.150   3.752   5.740  1.1626  0.0717  0.3128
    6MOL   H288 1998   5.899   3.765   5.761  0.0315  2.3420  0.2229
    6MOL   H289 1999   5.777   3.722   5.975  0.2725 -0.1629  0.3502
    6MOL   H290 2000   5.904   3.672   6.166 -1.0615  1.2612 -1.1972
    6MOL   C291 2001   6.267   3.799   6.287 -0.0426 -0.0286  0.1041
    6MOL   C292 2002   6.263   3.784   6.434 -0.4883  0.0646  0.7847
    6MOL   C293 2003   6.289   3.921   6.492  0.2226  0.3159  0.6605
    6MOL   C294 2004   6.194   4.022   6.470 -0.1495  0.1324 -0.0104
    6MOL   C295 2005   6.212   4.150   6.523  0.0299 -0.0147 -0.5134
    6MOL   C296 2006   6.321   4.182   6.595  0.4089  0.3822  0.6304
    6MOL   C297 2007   6.427   4.092   6.600 -0.2271  0.3826  0.1040
    6MOL   C298 2008   6.412   3.963   6.549  0.3548  0.0898  0.7260
    6MOL   O299 2009   6.145   3.723   6.489 -0.1119 -0.0733  0.2084
    6MOL   H300 2010   6.176   3.848   6.253  0.0054 -0.6753 -0.9602
    6MOL   H301 2011   6.350   3.857   6.250 -0.4266  0.2971 -0.2480
    6MOL   H302 2012   6.339   3.711   6.459  0.4781  0.4149 -1.0577
    6MOL   H303 2013   6.098   3.996   6.430 -0.4854  0.2089  0.7349
    6MOL   H304 2014   6.137   4.227   6.512  1.0019  0.9619 -0.4141
    6MOL   H305 2015   6.328   4.282   6.637  2.6013  1.2191 -1.5870
    6MOL   H306 2016   6.525   4.114   6.640 -0.0702 -1.1983  0.6512
    6MOL   H307 2017   6.495   3.894   6.553  1.5269  1.3501 -0.8184
    6MOL   C308 2018   6.167   3.666   6.620 -0.0279  0.0778  0.2624
    6MOL   C309 2019   6.025   3.634   6.672 -0.5434  0.3371  0.4932
    6MOL   C310 2020   5.938   3.561   6.573  0.1822  0.7000  0.0562
    6MOL   C311 2021   5.987   3.460   6.492  0.3823 -0.5170  0.5603
    6MOL   C312 2022   5.905   3.391   6.402 -0.3175 -0.0525 -0.6418
    6MOL   C313 2023   5.767   3.426   6.391  0.3460  0.2226  0.3121
    6MOL   C314 2024   5.719   3.526   6.479  0.8735  0.1374 -0.2026
    6MOL   C315 2025   5.800   3.591   6.572  0.1653  0.2736  0.7145
    6MOL   O316 2026   6.039   3.557   6.783  0.2845 -0.0914 -0.3685
    6MOL   H317 2027   6.211   3.744   6.682 -0.4116  1.9341 -1.7519
    6MOL   H318 2028   6.236   3.582   6.614 -1.6766 -1.2478 -0.8252
    6MOL   H319 2029   5.986   3.732   6.699  0.0709  0.6719  0.1723
    6MOL   H320 2030   6.093   3.439   6.498  0.1087 -2.1428  0.0137
    6MOL   H321 2031   5.951   3.324   6.331 -1.1752 -1.3210 -0.0085
    6MOL   H322 2032   5.698   3.375   6.326  0.5590  0.1758  0.1217
    6MOL   H323 2033   5.616   3.559   6.472  0.9258  0.5750  0.9054
    6MOL   H324 2034   5.750   3.674   6.619 -0.0565  0.6371 -0.1520
    6MOL   C325 2035   5.933   3.569   6.880  0.5745 -0.4811  0.9065
    6MOL   C326 2036   5.987   3.525   7.017 -0.5442 -0.4068  0.8043
    6MOL   C327 2037   6.050   3.642   7.087 -0.3285 -0.5202 -0.3697
    6MOL   C328 2038   5.993   3.697   7.204 -0.7315 -0.6083  0.3096
    6MOL   C329 2039   6.042   3.815   7.263  0.7355  0.2097  0.2180
    6MOL   C330 2040   6.165   3.862   7.218 -0.6392  0.2414 -0.8386
    6MOL   C331 2041   6.233   3.808   7.104 -0.0030 -0.1907  0.4052
    6MOL   C332 2042   6.175   3.696   7.038 -0.2722 -0.1014 -0.2202
    6MOL   O333 2043   5.880   3.462   7.089  0.4338 -0.1065  0.1903
    6MOL   H334 2044   5.852   3.505   6.842 -1.1745  2.0387  0.2402
    6MOL   H335 2045   5.891   3.670   6.876 -0.6338 -0.9680  0.8976
    6MOL   H336 2046   6.067   3.452   7.005  1.0200  1.5340 -1.0199
    6MOL   H337 2047   5.905   3.656   7.251 -1.1134  1.3498  1.3107
    6MOL   H338 2048   5.992   3.860   7.347  1.4830  0.0923  0.7351
    6MOL   H339 2049   6.212   3.941   7.274  3.4318 -2.0935 -0.8176
    6MOL   H340 2050   6.324   3.851   7.067 -0.4990 -0.3778 -1.0563
    6MOL   H341 2051   6.218   3.647   6.952 -2.4105 -1.3425 -0.6186
    6MOL   H342 2052   5.921   3.442   7.171 -0.1342 -2.3423 -0.0559
    7MOL     C1 2053   3.180   5.486   0.451 -0.5209  0.3339 -0.2442
    7MOL     C2 2054   3.135   5.610   0.530 -0.3298 -0.2991 -0.8942
    7MOL     C3 2055   3.046   5.699   0.452 -0.2099  0.5161  0.0960
    7MOL     C4 2056   2.914   5.713   0.491  0.4861 -0.2431  0.1776
    7MOL     C5 2057   2.830   5.804   0.430  0.6786 -0.2122  0.4319
    7MOL     C6 2058   2.873   5.870   0.312 -0.2781 -0.0328 -0.5635
    7MOL     C7 2059   3.008   5.855   0.272  0.0037  1.1165 -0.0469
    7MOL     C8 2060   3.097   5.773   0.342 -0.5160  1.0540 -0.1715
    7MOL     O9 2061   3.257   5.681   0.554 -0.7539 -0.1620 -0.3611
    7MOL    H10 2062   3.246   5.423   0.509  0.3928 -0.0676 -1.6812
    7MOL    H11 2063   3.103   5.413   0.429  0.9231 -1.2832  0.0138
    7MOL    H12 2064   3.083   5.586   0.622  0.7952  0.2511 -0.1029
    7MOL    H13 2065   2.883   5.646   0.569  1.4008 -2.1604 -1.0782
    7MOL    H14 2066   2.736   5.826   0.479  1.0352 -2.2268  2.0639
    7MOL    H15 2067   2.813   5.921   0.237 -1.4691  0.5087  0.7221
    7MOL    H16 2068   3.026   5.915   0.183 -2.8054 -4.2277 -4.5294
    7MOL    H17 2069   3.200   5.772   0.312 -0.8491  2.4735 -1.4262
    7MOL    H18 2070   3.237   5.518   0.363 -0.9579  1.9459  0.0359
    7MOL    C19 2071   3.259   5.735   0.685  0.1144  0.2211 -0.4179
    7MOL    C20 2072   3.366   5.845   0.696  0.2353  0.2621  0.0027
    7MOL    C21 2073   3.409   5.872   0.840  0.3079  0.0131  0.6156
    7MOL    C22 2074   3.547   5.893   0.869  0.2680 -0.4271  0.5811
    7MOL    C23 2075   3.590   5.912   1.001  0.4700  0.2278 -0.8907
    7MOL    C24 2076   3.497   5.911   1.111 -0.2901  0.2350 -0.3354
    7MOL    C25 2077   3.363   5.882   1.081 -0.3870 -0.5908  0.9909
    7MOL    C26 2078   3.321   5.863   0.949  0.5767 -0.2038  0.7317
    7MOL    O27 2079   3.339   5.953   0.617 -0.5604  0.7445  0.3627
    7MOL    H28 2080   3.160   5.775   0.706 -0.7390 -1.3860 -1.2679
    7MOL    H29 2081   3.265   5.660   0.763  1.3752 -0.0932 -0.8090
    7MOL    H30 2082   3.459   5.805   0.657  0.3367  2.3403 -1.9951
    7MOL    H31 2083   3.612   5.904   0.783  0.9609  2.4050  1.4007
    7MOL    H32 2084   3.690   5.949   1.016  1.3180 -2.6185  0.9056
    7MOL    H33 2085   3.532   5.939   1.209  1.6350 -1.4190 -0.5145
    7MOL    H34 2086   3.286   5.881   1.158  0.2615  0.5863  1.6631
    7MOL    H35 2087   3.214   5.849   0.939  0.6091  0.1533 -0.1193
    7MOL    C36 2088   3.245   6.048   0.661 -0.6531  0.1734  0.3067
    7MOL    C37 2089   3.177   6.118   0.543  0.1419 -0.5753 -0.5050
    7MOL    C38 2090   3.276   6.195   0.452 -0.8282  0.5948 -0.2997
    7MOL    C39 2091   3.346   6.313   0.498  0.0686  0.2691  0.3088
    7MOL    C40 2092   3.427   6.378   0.403  0.0972  0.7771 -0.6002
    7MOL    C41 2093   3.455   6.328   0.272 -0.2303  0.2884  0.7362
    7MOL    C42 2094   3.377   6.217   0.229  0.4739  0.3439 -0.1903
    7MOL    C43 2095   3.285   6.152   0.315  0.2740 -0.0963  0.6595
    7MOL    O44 2096   3.077   6.205   0.606  0.1872  0.9354 -0.0391
    7MOL    H45 2097   3.173   6.007   0.731 -0.9186 -1.7750 -1.0847
    7MOL    H46 2098   3.304   6.121   0.716 -1.6896  0.9934  0.3459
    7MOL    H47 2099   3.128   6.038   0.488 -1.5327  0.1963 -0.1662
    7MOL    H48 2100   3.325   6.350   0.597 -2.0162 -1.4666  0.5551
    7MOL    H49 2101   3.464   6.479   0.413 -0.3210  0.8952 -0.2091
    7MOL    H50 2102   3.534   6.373   0.213 -0.3074 -0.5544 -0.0316
    7MOL    H51 2103   3.389   6.177   0.129  0.5783 -0.1167  0.0068
    7MOL    H52 2104   3.221   6.070   0.285  0.8828 -0.0120 -0.8967
    7MOL    C53 2105   2.956   6.227   0.536  0.1760  0.1209  0.4025
    7MOL    C54 2106   2.961   6.337   0.437 -0.1339  0.1386  1.1162
    7MOL    C55 2107   2.851   6.310   0.328 -0.5155  0.0229  0.6634
    7MOL    C56 2108   2.743   6.391   0.329 -0.1571  0.3146  1.0366
    7MOL    C57 2109   2.642   6.374   0.234 -0.2087  0.2658 -0.2574
    7MOL    C58 2110   2.654   6.264   0.139 -0.0307 -0.0002 -0.0237
    7MOL    C59 2111   2.768   6.177   0.144 -0.3278 -0.2917  0.1312
    7MOL    C60 2112   2.872   6.206   0.234 -0.1409  0.7793  0.0359
    7MOL    O61 2113   2.957   6.468   0.493  0.4037 -0.1466  0.2069
    7MOL    H62 2114   2.925   6.133   0.489  1.5259  0.3370 -0.9658
    7MOL    H63 2115   2.872   6.245   0.603 -0.5581  0.4280 -0.5873
    7MOL    H64 2116   3.056   6.328   0.384 -0.4572  0.8723  0.3835
    7MOL    H65 2117   2.726   6.459   0.411 -0.8125 -0.8874  1.9290
    7MOL    H66 2118   2.561   6.445   0.240  0.0228  0.5317 -0.2780
    7MOL    H67 2119   2.571   6.244   0.073  0.5897 -2.7314 -0.0312
    7MOL    H68 2120   2.778   6.089   0.083  0.7907 -0.1706  0.1306
    7MOL    H69 2121   2.958   6.140   0.237  1.5514  2.8910 -0.9246
    7MOL    C70 2122   3.078   6.515   0.547 -0.5356 -0.0961  0.2603
    7MOL    C71 2123   3.081   6.677   0.556  0.3330 -0.5005  0.6135
    7MOL    C72 2124   2.970   6.728   0.656 -0.1986 -0.6332  0.2445
    7MOL    C73 2125   3.011   6.794   0.776 -0.5423 -0.5078  0.7826
    7MOL    C74 2126   2.914   6.838   0.870  0.3182 -0.7776  0.0200
    7MOL    C75 2127   2.781   6.833   0.833  0.0465  0.8058  0.2985
    7MOL    C76 2128   2.739   6.779   0.712 -0.2508  0.0675 -0.1161
    7MOL    C77 2129   2.828   6.720   0.625  0.3930  0.7345  0.3210
    7MOL    O78 2130   3.065   6.721   0.421 -0.1209 -0.2118 -0.0602
    7MOL    H79 2131   3.089   6.457   0.638  0.3000 -1.1783 -0.5146
    7MOL    H80 2132   3.157   6.508   0.472  0.1771  0.6937  0.9311
    7MOL    H81 2133   3.178   6.718   0.583  0.3888 -0.1699 -0.0686
    7MOL    H82 2134   3.118   6.805   0.786 -0.8719  2.2378  1.7246
    7MOL    H83 2135   2.945   6.879   0.965  1.9690 -2.4757  0.2483
    7MOL    H84 2136   2.692   6.850   0.892 -0.7283  2.0549 -1.1707
    7MOL    H85 2137   2.632   6.774   0.703 -0.1565 -2.2574 -0.2606
    7MOL    H86 2138   2.793   6.667   0.537 -0.1495  0.5442  0.6497
    7MOL    C87 2139   3.073   6.855   0.403 -0.0134 -0.0986  0.3052
    7MOL    C88 2140   3.057   6.887   0.253  0.7874 -0.1923  0.5154
    7MOL    C89 2141   3.121   7.025   0.236  0.0934 -0.3749 -0.3797
    7MOL    C90 2142   3.041   7.140   0.272 -0.2041  0.4360 -0.0936
    7MOL    C91 2143   3.093   7.269   0.263 -0.4443 -0.6645 -0.4494
    7MOL    C92 2144   3.222   7.288   0.210 -0.0846 -0.5820  0.4440
    7MOL    C93 2145   3.289   7.175   0.157 -1.2801 -0.0466 -0.1713
    7MOL    C94 2146   3.247   7.044   0.172 -0.1210 -0.2868 -0.0971
    7MOL    O95 2147   2.920   6.883   0.210 -0.3613 -0.6723  0.6348
    7MOL    H96 2148   3.175   6.885   0.428 -0.9175  2.1366  1.4695
    7MOL    H97 2149   3.011   6.908   0.475  2.0951 -1.1348  2.9507
    7MOL    H98 2150   3.113   6.812   0.197 -1.5848 -1.4315 -0.2399
    7MOL    H99 2151   2.942   7.124   0.311  0.3743 -2.8765  0.1610
    7MOL   H100 2152   3.030   7.348   0.302 -1.1779 -0.5251 -1.8835
    7MOL   H101 2153   3.276   7.381   0.200 -0.6070 -0.1860  1.2135
    7MOL   H102 2154   3.382   7.197   0.105 -0.8001 -0.3708  0.5474
    7MOL   H103 2155   3.290   6.962   0.117  1.6947  0.1523  0.6448
    7MOL   C104 2156   2.856   6.755   0.185  0.5050 -0.3015  0.4792
    7MOL   C105 2157   2.880   6.706   0.041  1.1186  0.1997 -0.1824
    7MOL   C106 2158   2.829   6.813   8.017 -0.0230  0.1013 -0.2363
    7MOL   C107 2159   2.692   6.827   7.984 -0.5415  0.1857  0.0939
    7MOL   C108 2160   2.650   6.928   7.897  0.4082  0.3132  0.0821
    7MOL   C109 2161   2.748   7.008   7.835  0.3709  0.0249  0.1659
    7MOL   C110 2162   2.883   7.000   7.867 -1.0181  0.5896 -1.0087
    7MOL   C111 2163   2.925   6.895   7.954 -0.8464 -0.0381 -1.1209
    7MOL   O112 2164   3.007   6.658   0.022 -0.2948 -0.0702 -1.0772
    7MOL   H113 2165   2.897   6.685   0.258 -0.5409 -1.5332 -0.0930
    7MOL   H114 2166   2.750   6.773   0.199  0.3291  0.0206 -1.1293
    7MOL   H115 2167   2.812   6.622   0.024  3.4439 -1.8075  0.1597
    7MOL   H116 2168   2.619   6.759   8.025  0.9725 -1.0824  0.7317
    7MOL   H117 2169   2.546   6.927   7.866  0.6051 -0.5898 -0.5849
    7MOL   H118 2170   2.715   7.087   7.769  1.4760  1.7559  1.6483
    7MOL   H119 2171   2.952   7.059   7.809  2.6145 -1.7557  0.7782
    7MOL   H120 2172   3.028   6.887   7.983 -0.9923  0.7801 -0.3683
    7MOL   C121 2173   3.056   6.548   0.100 -0.0706 -0.1363  0.1312
    7MOL   C122 2174   3.170   6.462   0.042  0.2359  0.2205  0.6471
    7MOL   C123 2175   3.112   6.356   8.038  0.3999  1.1557  0.6659
    7MOL   C124 2176   3.036   6.387   7.918 -0.5448  0.0478 -0.9091
    7MOL   C125 2177   2.980   6.281   7.847 -0.3986  0.3509 -0.0760
    7MOL   C126 2178   2.986   6.147   7.885 -0.6135  0.8526  0.0502
    7MOL   C127 2179   3.058   6.121   8.008 -0.1038 -0.7033  0.5688
    7MOL   C128 2180   3.115   6.225   8.079 -0.1964  0.2385 -0.2422
    7MOL   O129 2181   3.261   6.542   8.045 -0.2631 -0.1618 -0.1111
    7MOL   H130 2182   2.975   6.479   0.124  0.7822 -0.5156  2.0754
    7MOL   H131 2183   3.085   6.597   0.193  1.0452 -1.6469  0.6059
    7MOL   H132 2184   3.223   6.417   0.126 -1.3117 -2.1512  0.3964
    7MOL   H133 2185   3.019   6.491   7.896  0.9481  0.4009 -0.4498
    7MOL   H134 2186   2.929   6.313   7.757 -1.0342  2.9249  1.1533
    7MOL   H135 2187   2.937   6.071   7.826 -2.5346  1.9492  0.1728
    7MOL   H136 2188   3.075   6.021   8.047  3.3440 -1.4453 -2.6212
    7MOL   H137 2189   3.167   6.187   0.085  0.8507 -1.5590 -1.6183
    7MOL   C138 2190   3.323   6.640   0.050 -0.5011 -0.2551 -0.0424
    7MOL   C139 2191   3.464   6.679   8.066 -0.2136  0.0461 -0.8635
    7MOL   C140 2192   3.512   6.824   0.028 -0.9865  0.1155 -0.5856
    7MOL   C141 2193   3.506   6.928   8.014 -1.1592 -0.3144  0.0081
    7MOL   C142 2194   3.556   7.052   8.057 -0.5085 -0.5234  0.0364
    7MOL   C143 2195   3.624   7.071   0.099 -0.9550  1.1872 -0.3483
    7MOL   C144 2196   3.627   6.962   0.189  0.7992 -0.0662 -0.0936
    7MOL   C145 2197   3.566   6.839   0.157  0.3116 -0.5006  0.1822
    7MOL   O146 2198   3.560   6.578   0.022 -0.3736 -0.4343  0.2007
    7MOL   H147 2199   3.342   6.596   0.148  1.1486 -1.4692 -0.8932
    7MOL   H148 2200   3.259   6.728   0.055 -0.4570 -0.1781 -0.8682
    7MOL   H149 2201   3.458   6.676   7.958  1.5225  0.4915 -0.9815
    7MOL   H150 2202   3.452   6.911   7.922 -0.2813  1.2264 -0.8032
    7MOL   H151 2203   3.541   7.126   7.980  3.6831 -0.1603 -0.5397
    7MOL   H152 2204   3.679   7.162   0.118  0.7899 -0.0037  0.4320
    7MOL   H153 2205   3.683   6.966   0.281  0.1192  0.7696  0.2907
    7MOL   H154 2206   3.560   6.766   0.236  0.5779 -1.1520 -0.3904
    7MOL   C155 2207   3.557   6.463   8.018 -0.6073  0.3628 -0.2888
    7MOL   C156 2208   3.707   6.403   8.017 -0.3221  0.1587  0.1516
    7MOL   C157 2209   3.709   6.247   8.014  0.5477  0.2558  0.4688
    7MOL   C158 2210   3.712   6.170   0.053 -0.5450  0.5967 -0.0179
    7MOL   C159 2211   3.711   6.029   0.048  0.4045 -0.0578  0.3887
    7MOL   C160 2212   3.716   5.960   8.005 -0.1193  0.1949 -0.1811
    7MOL   C161 2213   3.713   6.034   7.885 -0.1755  0.6706  0.5007
    7MOL   C162 2214   3.719   6.179   7.888 -0.7796  0.7884  0.7066
    7MOL   O163 2215   3.787   6.470   7.916  0.3043 -0.4261 -0.1140
    7MOL   H164 2216   3.527   6.486   7.916 -0.3920 -0.4096 -0.5277
    7MOL   H165 2217   3.491   6.385   8.056  1.7821 -1.5846 -0.0031
    7MOL   H166 2218   3.766   6.425   0.026  1.5532 -2.0260 -0.5117
    7MOL   H167 2219   3.703   6.217   0.149  1.0662  0.7784  0.0581
    7MOL   H168 2220   3.710   5.980   0.144 -0.8300  2.5927  1.7608
    7MOL   H169 2221   3.717   5.853   7.989 -2.8527  0.0664  0.1610
    7MOL   H170 2222   3.722   5.978   7.794  1.8415 -1.2079  1.7968
    7MOL   H171 2223   3.709   6.232   7.795 -1.6375  0.3696  0.5517
    7MOL   C172 2224   3.930   6.445   7.920 -0.1516 -0.9016  0.9485
    7MOL   C173 2225   3.995   6.513   7.794  0.4098  0.0170 -0.6290
    7MOL   C174 2226   3.953   6.445   7.666  0.3129 -0.2823 -0.4327
    7MOL   C175 2227   4.042   6.358   7.592  0.1462  0.6019  0.5916
    7MOL   C176 2228   4.001   6.312   7.467  0.4727  0.0868  0.1199
    7MOL   C177 2229   3.875   6.332   7.417  0.0101  0.1441  0.0876
    7MOL   C178 2230   3.781   6.398   7.496 -0.1081  0.6795 -0.4816
    7MOL   C179 2231   3.820   6.462   7.617 -0.1469 -0.2043  0.3513
    7MOL   O180 2232   4.134   6.530   7.799 -0.5725  0.4538  0.0066
    7MOL   H181 2233   3.965   6.476   8.019  2.9553 -0.2072 -0.2932
    7MOL   H182 2234   3.948   6.338   7.922 -1.4764 -1.1713 -0.8521
    7MOL   H183 2235   3.950   6.612   7.793  0.8994  0.2489 -0.0667
    7MOL   H184 2236   4.137   6.342   7.640 -0.7138 -1.0302  1.8409
    7MOL   H185 2237   4.067   6.244   7.416 -0.8035 -1.2989  0.2936
    7MOL   H186 2238   3.846   6.283   7.325 -1.2984  2.8400 -0.9778
    7MOL   H187 2239   3.678   6.392   7.467 -0.8191 -0.4885  2.0737
    7MOL   H188 2240   3.739   6.514   7.667 -0.8787 -1.2174  0.2405
    7MOL   C189 2241   4.188   6.573   7.921 -0.6062 -0.4427  0.1333
    7MOL   C190 2242   4.337   6.622   7.884 -0.3792 -0.0204 -0.2921
    7MOL   C191 2243   4.428   6.525   7.799  0.4720 -0.1979 -0.2436
    7MOL   C192 2244   4.451   6.545   7.662 -0.2654  0.0620 -0.2270
    7MOL   C193 2245   4.536   6.460   7.594  1.0963  0.7905 -0.4159
    7MOL   C194 2246   4.595   6.349   7.655 -0.5332  0.8543 -1.0523
    7MOL   C195 2247   4.566   6.320   7.787  0.2613  0.1684  0.7985
    7MOL   C196 2248   4.489   6.411   7.855  0.5751  0.8071  0.0325
    7MOL   O197 2249   4.395   6.634   8.017  0.0490 -0.2901  0.1484
    7MOL   H198 2250   4.126   6.651   7.965  1.1776  1.1180 -0.0408
    7MOL   H199 2251   4.191   6.496   7.998  0.7883 -0.3153  0.2236
    7MOL   H200 2252   4.331   6.727   7.854 -0.3607  0.0626 -0.0134
    7MOL   H201 2253   4.411   6.634   7.614  2.0168  1.1280 -0.2535
    7MOL   H202 2254   4.559   6.479   7.490 -1.5043 -0.7660 -1.3145
    7MOL   H203 2255   4.642   6.271   7.597 -0.7429  0.6449 -0.9456
    7MOL   H204 2256   4.615   6.234   7.831 -0.5877  0.4819  2.3938
    7MOL   H205 2257   4.473   6.393   7.961  1.6857  1.9904  0.4235
    7MOL   C206 2258   4.513   6.701   8.019  0.7322 -0.3292 -0.1023
    7MOL   C207 2259   4.561   6.729   0.083  1.1946 -0.1527 -0.2663
    7MOL   C208 2260   4.562   6.611   0.178 -0.0352 -0.0358 -0.7161
    7MOL   C209 2261   4.648   6.509   0.155 -0.5561  0.9676  0.2399
    7MOL   C210 2262   4.661   6.408   0.252  0.5199  0.7280 -0.0787
    7MOL   C211 2263   4.586   6.414   0.369 -0.3296 -0.1583 -0.1683
    7MOL   C212 2264   4.492   6.520   0.389 -0.1137 -0.4748 -0.1267
    7MOL   C213 2265   4.474   6.614   0.290  0.0931 -0.4582  0.3226
    7MOL   O214 2266   4.477   6.837   0.122  0.9163  0.0231  0.2504
    7MOL   H215 2267   4.585   6.643   7.961 -0.8553 -0.2446 -2.2320
    7MOL   H216 2268   4.501   6.798   7.970  2.1212 -1.4229 -2.6864
    7MOL   H217 2269   4.663   6.765   0.078  0.0188  3.2773 -0.9339
    7MOL   H218 2270   4.704   6.499   0.063  1.9734  0.3322  1.7746
    7MOL   H219 2271   4.733   6.330   0.234 -1.1859 -1.1031  0.7806
    7MOL   H220 2272   4.600   6.344   0.449  1.2360  0.1338 -0.1612
    7MOL   H221 2273   4.424   6.518   0.473 -2.8848 -0.5753 -2.2709
    7MOL   H222 2274   4.396   6.688   0.304  0.1436 -0.5025  0.8227
    7MOL   C223 2275   4.544   6.925   0.213 -0.8863 -0.3083 -0.5855
    7MOL   C224 2276   4.452   7.048   0.237  0.2507 -0.2573 -0.7979
    7MOL   C225 2277   4.428   7.128   0.111 -0.4328 -0.5557 -0.6263
    7MOL   C226 2278   4.323   7.094   0.021 -0.1009  0.7337  0.1586
    7MOL   C227 2279   4.307   7.164   7.987 -0.2901 -0.5792  0.2354
    7MOL   C228 2280   4.389   7.273   7.951  0.2591  0.7791  0.0206
    7MOL   C229 2281   4.493   7.298   8.040 -0.0190  0.0602  0.0049
    7MOL   C230 2282   4.513   7.234   0.082  0.3340  0.0107 -0.0354
    7MOL   O231 2283   4.326   6.998   0.289 -0.8877  0.1244  0.1978
    7MOL   H232 2284   4.563   6.874   0.307 -2.2452  1.5122  0.7266
    7MOL   H233 2285   4.642   6.958   0.179 -0.9886  0.7602  0.1152
    7MOL   H234 2286   4.485   7.109   0.321 -1.5899 -3.0976  2.1199
    7MOL   H235 2287   4.258   7.013   0.053  0.7292 -0.7003 -1.6552
    7MOL   H236 2288   4.225   7.130   7.925 -1.1316  0.7772  0.5923
    7MOL   H237 2289   4.387   7.321   7.854  0.6783 -1.6607 -1.2308
    7MOL   H238 2290   4.569   7.371   8.016  2.2043 -1.6881  1.5901
    7MOL   H239 2291   4.583   7.269   0.156 -2.3002 -1.7087  3.4366
    7MOL   C240 2292   4.331   6.962   0.425 -0.6650  0.3716  0.1180
    7MOL   C241 2293   4.197   6.909   0.483 -0.7995 -0.0509  0.4914
    7MOL   C242 2294   4.213   6.829   0.612 -0.3664 -0.3017 -0.1879
    7MOL   C243 2295   4.226   6.899   0.732  0.1514 -0.3049 -0.6881
    7MOL   C244 2296   4.235   6.823   0.849  0.1827  0.3988 -0.2965
    7MOL   C245 2297   4.234   6.683   0.843 -0.4864  0.3578 -0.5738
    7MOL   C246 2298   4.213   6.609   0.725 -0.0185 -0.8481 -0.0745
    7MOL   C247 2299   4.204   6.684   0.609 -0.5040 -0.0606  0.7028
    7MOL   O248 2300   4.119   7.023   0.497 -0.0795  0.0604 -0.2321
    7MOL   H249 2301   4.407   6.886   0.443 -2.4650 -2.2585 -2.8310
    7MOL   H250 2302   4.364   7.049   0.482  3.0476 -1.0218  0.2656
    7MOL   H251 2303   4.158   6.845   0.404 -0.3135 -1.0451  1.0347
    7MOL   H252 2304   4.238   7.006   0.743 -3.1272  0.2688 -2.1103
    7MOL   H253 2305   4.241   6.877   0.942  0.1686 -1.7658  0.9924
    7MOL   H254 2306   4.244   6.629   0.936 -0.9992 -0.9627 -1.2733
    7MOL   H255 2307   4.204   6.502   0.732 -0.2606 -0.7499  1.3754
    7MOL   H256 2308   4.189   6.635   0.514  1.4215 -0.3441  0.5316
    7MOL   C257 2309   4.040   7.056   0.383 -0.0871  1.2678 -0.4023
    7MOL   C258 2310   3.960   7.171   0.422  0.4933 -0.6671 -0.2139
    7MOL   C259 2311   3.893   7.155   0.557  0.1290  0.2989 -0.7529
    7MOL   C260 2312   3.770   7.090   0.568 -0.3084  0.6416  0.2819
    7MOL   C261 2313   3.716   7.071   0.697  0.0981  0.5512  0.5736
    7MOL   C262 2314   3.786   7.118   0.812  0.0404 -0.3348  0.1942
    7MOL   C263 2315   3.902   7.194   0.799  0.6134  0.0404 -0.1914
    7MOL   C264 2316   3.961   7.210   0.668  0.0443 -0.0465 -0.0884
    7MOL   O265 2317   3.861   7.189   0.318 -0.0312  0.1571 -0.2895
    7MOL   H266 2318   3.968   6.980   0.352  0.1854  0.9370 -0.2366
    7MOL   H267 2319   4.104   7.071   0.296  0.6690  0.0836 -0.0678
    7MOL   H268 2320   4.014   7.265   0.436  1.0267 -0.8809 -0.8425
    7MOL   H269 2321   3.726   7.050   0.478  1.1770  1.5161 -0.8589
    7MOL   H270 2322   3.628   7.012   0.717  0.0798  0.9596  1.7383
    7MOL   H271 2323   3.739   7.083   0.903 -0.1262 -1.3553 -0.2775
    7MOL   H272 2324   3.944   7.245   0.884 -0.6040  1.9055 -0.6685
    7MOL   H273 2325   4.055   7.264   0.672  0.1495 -0.1298 -1.3986
    7MOL   C274 2326   3.803   7.323   0.326 -0.2263  0.3192  1.1040
    7MOL   C275 2327   3.871   7.420   0.222 -0.6226 -0.2935 -0.6664
    7MOL   C276 2328   3.855   7.363   0.088  0.1542  0.1947  0.1809
    7MOL   C277 2329   3.749   7.410   0.004 -0.6783 -0.0318 -0.2003
    7MOL   C278 2330   3.734   7.365   7.951  0.6347 -1.0306 -0.5006
    7MOL   C279 2331   3.813   7.260   7.905 -0.4520 -0.3532  0.5985
    7MOL   C280 2332   3.917   7.212   7.989  0.4249 -0.3388 -0.2325
    7MOL   C281 2333   3.939   7.263   0.039 -0.2172 -0.0384 -0.0374
    7MOL   O282 2334   4.003   7.446   0.273 -0.1288  0.3625 -0.6247
    7MOL   H283 2335   3.701   7.333   0.289  1.4363  3.2003 -3.1053
    7MOL   H284 2336   3.805   7.372   0.424 -0.7169  0.5503  0.9979
    7MOL   H285 2337   3.813   7.512   0.229  1.4922  1.0758 -0.6996
    7MOL   H286 2338   3.685   7.489   0.044 -0.4715 -1.0235  2.1896
    7MOL   H287 2339   3.660   7.405   7.883  2.3510  1.3824 -1.0144
    7MOL   H288 2340   3.794   7.219   7.807 -0.4354  0.6321  0.1725
    7MOL   H289 2341   3.975   7.129   7.950 -0.9967 -0.8413 -1.3478
    7MOL   H290 2342   4.016   7.226   0.104  0.6145  0.5724 -0.6620
    7MOL   C291 2343   4.069   7.557   0.218 -0.1688 -0.5962  0.4755
    7MOL   C292 2344   4.179   7.609   0.314  0.3936 -0.4301 -0.1917
    7MOL   C293 2345   4.283   7.689   0.242  0.1157  0.0641  0.5612
    7MOL   C294 2346   4.407   7.633   0.207 -0.7406  0.7363 -0.5412
    7MOL   C295 2347   4.494   7.712   0.127  0.0169  0.1744  0.1797
    7MOL   C296 2348   4.451   7.835   0.069 -0.2259  0.0947 -0.0440
    7MOL   C297 2349   4.329   7.891   0.110 -0.1483  0.2290 -0.0928
    7MOL   C298 2350   4.242   7.816   0.194 -0.2510 -0.4638  0.2728
    7MOL   O299 2351   4.114   7.689   0.414 -0.6170 -0.8041  1.0101
    7MOL   H300 2352   3.999   7.639   0.201  0.3974  0.0460  1.1610
    7MOL   H301 2353   4.114   7.525   0.124 -0.5727 -1.0103  0.4257
    7MOL   H302 2354   4.226   7.522   0.360 -0.7677  0.9465  3.7849
    7MOL   H303 2355   4.439   7.538   0.247  0.0593  1.1480 -0.2076
    7MOL   H304 2356   4.594   7.677   0.105 -0.1789  0.5909 -1.4309
    7MOL   H305 2357   4.513   7.893   0.002 -0.9461  0.6027 -0.2801
    7MOL   H306 2358   4.304   7.984   0.062 -0.2316  0.3922  0.2653
    7MOL   H307 2359   4.142   7.852   0.209 -0.2736  0.6416 -2.3096
    7MOL   C308 2360   4.055   7.620   0.527 -0.4401  0.4965 -0.0933
    7MOL   C309 2361   3.933   7.698   0.578  0.6108  0.1162 -0.7882
    7MOL   C310 2362   3.816   7.714   0.479 -0.4078 -0.4480  0.3122
    7MOL   C311 2363   3.705   7.625   0.479 -0.1031  0.0788  0.3201
    7MOL   C312 2364   3.614   7.632   0.371  0.4095 -0.1709  0.0111
    7MOL   C313 2365   3.624   7.735   0.270  0.9107  0.0724 -0.2195
    7MOL   C314 2366   3.733   7.823   0.275 -0.6938 -0.3482  0.1671
    7MOL   C315 2367   3.824   7.811   0.377  0.0895 -0.4175  0.2193
    7MOL   O316 2368   3.887   7.628   0.692 -0.0379 -0.1816  0.2360
    7MOL   H317 2369   4.125   7.591   0.607  1.1029  0.0167 -1.5897
    7MOL   H318 2370   4.029   7.521   0.489  1.4299  0.7450 -2.0805
    7MOL   H319 2371   3.959   7.795   0.623  2.3855 -1.6017  2.0393
    7MOL   H320 2372   3.707   7.545   0.552  1.3319  0.4365  0.6792
    7MOL   H321 2373   3.525   7.572   0.371 -1.0451  1.9527  1.5841
    7MOL   H322 2374   3.551   7.738   0.190  0.4195 -2.0937  0.1200
    7MOL   H323 2375   3.738   7.905   0.205 -0.1363  0.1563  0.7948
    7MOL   H324 2376   3.900   7.888   0.378 -1.1273  0.8366 -0.7308
    7MOL   C325 2377   3.926   7.678   0.823 -0.8641  0.0650 -0.9745
    7MOL   C326 2378   3.865   7.592   0.934 -0.0454  0.5758  0.1098
    7MOL   C327 2379   3.717   7.556   0.922 -0.0212 -0.0760  0.1138
    7MOL   C328 2380   3.668   7.421   0.944  0.2427 -0.2096  0.7095
    7MOL   C329 2381   3.530   7.387   0.942 -0.2157  0.4642 -0.3035
    7MOL   C330 2382   3.439   7.497   0.925 -0.0834  0.4369 -0.3415
    7MOL   C331 2383   3.488   7.625   0.897 -0.0359  0.2008  0.6038
    7MOL   C332 2384   3.624   7.660   0.899 -0.1406  0.2193 -0.2612
    7MOL   O333 2385   3.950   7.478   0.936  0.0063  0.5244 -1.0964
    7MOL   H334 2386   3.886   7.779   0.830  0.4452  0.6125 -1.1893
    7MOL   H335 2387   4.035   7.680   0.831 -0.9411 -0.5322  0.3311
    7MOL   H336 2388   3.864   7.648   1.028  0.7827  0.8114 -0.0181
    7MOL   H337 2389   3.738   7.343   0.969 -0.4080 -0.7014  1.0174
    7MOL   H338 2390   3.498   7.284   0.949 -1.0818  0.7451 -0.1231
    7MOL   H339 2391   3.333   7.478   0.918 -0.1409 -2.2286  5.1583
    7MOL   H340 2392   3.417   7.706   0.887  0.6652  0.8263  0.5871
    7MOL   H341 2393   3.666   7.756   0.875 -1.6319  1.3023  1.3348
    7MOL   H342 2394   3.929   7.439   0.853 -2.7539 -1.9181  0.6850
    8MOL     C1 2395   6.350   6.571   1.662  0.5319 -1.0732  0.4534
    8MOL     C2 2396   6.308   6.431   1.691  0.2936 -0.2862  0.2676
    8MOL     C3 2397   6.421   6.341   1.645  0.3889 -0.5694  0.5608
    8MOL     C4 2398   6.458   6.337   1.513 -0.0166 -0.7396 -0.3172
    8MOL     C5 2399   6.568   6.260   1.464 -0.5163 -0.9729  0.1174
    8MOL     C6 2400   6.636   6.175   1.552 -0.1845 -0.3138 -0.2811
    8MOL     C7 2401   6.605   6.185   1.690 -0.0116 -0.1302  0.0846
    8MOL     C8 2402   6.491   6.263   1.733 -0.1245 -0.5236 -0.0062
    8MOL     O9 2403   6.180   6.402   1.632  0.3924 -0.1993  0.0428
    8MOL    H10 2404   6.336   6.595   1.557  0.1085 -3.6020 -0.0895
    8MOL    H11 2405   6.291   6.645   1.716  1.9517  0.5910 -0.2188
    8MOL    H12 2406   6.302   6.433   1.799  1.9109  0.1457  0.3637
    8MOL    H13 2407   6.396   6.377   1.434  0.6676 -2.8344 -1.9556
    8MOL    H14 2408   6.584   6.242   1.359  0.7394 -1.3125  0.3514
    8MOL    H15 2409   6.708   6.098   1.530  0.8425 -0.5186  3.4045
    8MOL    H16 2410   6.664   6.128   1.760  3.1862 -0.9605 -3.1460
    8MOL    H17 2411   6.474   6.273   1.839  1.4204 -2.2684  0.4575
    8MOL    H18 2412   6.453   6.595   1.690  0.1554  0.5346  0.4985
    8MOL    C19 2413   6.119   6.282   1.664  0.1958  0.2503 -0.5918
    8MOL    C20 2414   5.986   6.263   1.594 -0.4428 -0.3343 -0.5557
    8MOL    C21 2415   5.989   6.254   1.447  0.0058  0.3508  0.8089
    8MOL    C22 2416   5.878   6.302   1.373 -0.2154  0.0742  0.0883
    8MOL    C23 2417   5.871   6.295   1.234  0.4911  0.0278 -0.4129
    8MOL    C24 2418   5.988   6.249   1.164  0.1954 -0.0206  0.2050
    8MOL    C25 2419   6.098   6.207   1.232  0.1548  0.0403 -0.0184
    8MOL    C26 2420   6.094   6.195   1.373 -0.6122 -0.2050 -0.7310
    8MOL    O27 2421   5.886   6.349   1.646  0.0716  0.4156  0.0133
    8MOL    H28 2422   6.188   6.197   1.654 -0.7782 -0.5992 -0.1932
    8MOL    H29 2423   6.106   6.288   1.772  1.2995 -0.6262 -0.3954
    8MOL    H30 2424   5.953   6.162   1.616  0.2439 -0.6862 -1.1356
    8MOL    H31 2425   5.798   6.345   1.431  0.1019  1.4761 -0.4935
    8MOL    H32 2426   5.775   6.313   1.189 -0.1294 -1.2072  0.4060
    8MOL    H33 2427   5.986   6.258   1.057  1.5342  1.4218  0.2805
    8MOL    H34 2428   6.193   6.173   1.193 -0.0128 -0.6764  0.1963
    8MOL    H35 2429   6.177   6.155   1.429 -1.0841 -1.3519 -0.8462
    8MOL    C36 2430   5.829   6.310   1.763  0.7264  0.3577 -0.2839
    8MOL    C37 2431   5.747   6.431   1.812 -0.4014  0.6098 -0.2868
    8MOL    C38 2432   5.824   6.494   1.927  0.2137 -0.0651 -0.3102
    8MOL    C39 2433   5.784   6.465   2.055 -0.1746 -0.5585 -0.5087
    8MOL    C40 2434   5.851   6.525   2.165 -0.4175  0.4465  0.4746
    8MOL    C41 2435   5.955   6.612   2.149  0.8765  0.3342 -0.2259
    8MOL    C42 2436   6.009   6.629   2.013 -0.0020  0.2740 -0.3026
    8MOL    C43 2437   5.938   6.572   1.907  0.3289  0.4283 -0.2364
    8MOL    O44 2438   5.618   6.380   1.840 -0.3239  0.2653 -0.6964
    8MOL    H45 2439   5.756   6.233   1.739  0.2321  0.3285  1.2301
    8MOL    H46 2440   5.898   6.280   1.842  1.0742  1.4854 -0.1457
    8MOL    H47 2441   5.744   6.502   1.729 -0.8261  0.8174 -0.0969
    8MOL    H48 2442   5.704   6.394   2.075  1.1537 -2.6136 -2.2006
    8MOL    H49 2443   5.806   6.519   2.263 -1.0677 -0.2791  0.1334
    8MOL    H50 2444   5.996   6.647   2.242  0.7875 -2.1014  0.7707
    8MOL    H51 2445   6.099   6.686   1.997  1.1603 -0.9983  1.5424
    8MOL    H52 2446   5.973   6.594   1.807 -0.6862  0.5247 -0.5736
    8MOL    C53 2447   5.517   6.483   1.834  0.1692  0.1382  0.2676
    8MOL    C54 2448   5.380   6.429   1.876  0.1259 -0.4863 -0.7630
    8MOL    C55 2449   5.350   6.413   2.028 -0.3383  0.6284 -0.3780
    8MOL    C56 2450   5.370   6.528   2.112  0.5236 -0.3170 -0.0101
    8MOL    C57 2451   5.344   6.509   2.251 -0.3020 -1.1041  0.2571
    8MOL    C58 2452   5.317   6.386   2.302  0.5265 -0.3819  0.6676
    8MOL    C59 2453   5.300   6.272   2.226 -0.0539 -0.6197 -0.0191
    8MOL    C60 2454   5.312   6.285   2.086  0.2648 -0.8792  0.0897
    8MOL    O61 2455   5.290   6.514   1.808 -0.1643 -0.7074  0.2007
    8MOL    H62 2456   5.549   6.578   1.878 -0.9049  0.9909 -0.7658
    8MOL    H63 2457   5.523   6.504   1.727  0.7183  0.4794  0.3604
    8MOL    H64 2458   5.370   6.329   1.835  0.1669 -0.9301  0.3045
    8MOL    H65 2459   5.421   6.621   2.092  2.1057 -0.7881  1.7283
    8MOL    H66 2460   5.364   6.594   2.316  0.3763  1.1455 -2.7760
    8MOL    H67 2461   5.309   6.368   2.409 -3.8465 -0.1230  0.4621
    8MOL    H68 2462   5.274   6.178   2.273  0.9573 -0.9040 -0.0276
    8MOL    H69 2463   5.300   6.200   2.021 -0.1275 -0.3301 -0.5700
    8MOL    C70 2464   5.161   6.461   1.787  0.5833 -0.5540 -0.0540
    8MOL    C71 2465   5.094   6.551   1.686  0.3943 -0.1161  0.5790
    8MOL    C72 2466   5.049   6.685   1.747 -0.8459  0.2686  0.0128
    8MOL    C73 2467   5.150   6.778   1.770 -0.5141 -0.6921 -0.0360
    8MOL    C74 2468   5.113   6.901   1.832  0.3916  0.7399  0.3370
    8MOL    C75 2469   4.980   6.935   1.856  0.1468  0.9243 -0.5536
    8MOL    C76 2470   4.886   6.839   1.831 -0.1902  1.3780 -0.3446
    8MOL    C77 2471   4.920   6.720   1.780  0.5555  0.0468  0.0174
    8MOL    O78 2472   4.992   6.483   1.625 -0.2198  0.3152 -0.6425
    8MOL    H79 2473   5.156   6.357   1.755 -0.4293  0.0402 -1.9536
    8MOL    H80 2474   5.096   6.471   1.874 -0.6209  1.4155 -1.1415
    8MOL    H81 2475   5.167   6.593   1.616  0.2288 -1.7367 -0.5890
    8MOL    H82 2476   5.254   6.753   1.754 -0.1270  0.8084  0.0863
    8MOL    H83 2477   5.191   6.975   1.838  0.5704  0.4896  1.1528
    8MOL    H84 2478   4.949   7.028   1.902 -0.2245  1.0193 -0.9984
    8MOL    H85 2479   4.779   6.848   1.844 -0.4087 -1.6127  0.2881
    8MOL    H86 2480   4.841   6.653   1.749  0.3474  0.6522 -0.7834
    8MOL    C87 2481   5.041   6.407   1.514 -0.0071  0.3817 -0.1577
    8MOL    C88 2482   4.926   6.344   1.448 -0.2210 -0.4091  0.6381
    8MOL    C89 2483   4.840   6.263   1.542  0.0049  0.1546  0.1729
    8MOL    C90 2484   4.735   6.328   1.608  0.2140 -0.0761  0.5394
    8MOL    C91 2485   4.644   6.257   1.696 -0.2837  0.5352 -0.0192
    8MOL    C92 2486   4.662   6.114   1.717  0.2332 -0.4020 -0.4227
    8MOL    C93 2487   4.775   6.059   1.656 -0.0524  0.3217 -0.2445
    8MOL    C94 2488   4.869   6.130   1.579 -0.3374  0.0373  0.1683
    8MOL    O95 2489   4.976   6.257   1.345 -0.1961  0.8372  0.1881
    8MOL    H96 2490   5.106   6.324   1.541  1.4083  0.6691 -2.5348
    8MOL    H97 2491   5.102   6.459   1.441  3.0249 -1.2872  1.1097
    8MOL    H98 2492   4.863   6.412   1.390 -0.8473 -2.5027 -1.2429
    8MOL    H99 2493   4.711   6.429   1.579  1.6351  1.2288  3.6781
    8MOL   H100 2494   4.562   6.314   1.738 -0.3537  0.1592  0.3481
    8MOL   H101 2495   4.607   6.041   1.774  0.7176 -0.4884 -0.0673
    8MOL   H102 2496   4.804   5.959   1.686 -0.1130 -0.3266 -2.2682
    8MOL   H103 2497   4.959   6.084   1.540  0.1305  0.9481  0.1487
    8MOL   C104 2498   4.886   6.216   1.241 -0.1937  0.0511  0.1290
    8MOL   C105 2499   4.963   6.135   1.131  0.4891  0.2601 -1.2456
    8MOL   C106 2500   5.075   6.215   1.066 -0.6111  0.1012  0.7442
    8MOL   C107 2501   5.058   6.284   0.947 -0.2589  0.6047  0.1705
    8MOL   C108 2502   5.164   6.357   0.890  0.5050 -0.3601  0.4029
    8MOL   C109 2503   5.290   6.359   0.958 -0.1372  0.1892  0.1083
    8MOL   C110 2504   5.304   6.298   1.085  0.0225  0.4872  0.6421
    8MOL   C111 2505   5.199   6.226   1.137  0.1237  0.1034  0.5240
    8MOL   O112 2506   5.006   6.017   1.199 -0.3732 -0.0323 -0.0767
    8MOL   H113 2507   4.818   6.144   1.288  0.2821  1.1776  2.6082
    8MOL   H114 2508   4.830   6.292   1.187  2.6932  1.9703 -0.2389
    8MOL   H115 2509   4.893   6.110   1.051 -1.0511  1.1486 -0.2079
    8MOL   H116 2510   4.968   6.272   0.889 -0.7316  2.0233  0.5995
    8MOL   H117 2511   5.176   6.400   0.792 -2.1185 -2.3222 -0.8378
    8MOL   H118 2512   5.378   6.406   0.919  1.3339 -2.6798 -0.1469
    8MOL   H119 2513   5.402   6.296   1.131 -0.1160 -1.6784  0.8952
    8MOL   H120 2514   5.218   6.163   1.223  0.0259 -0.5962  0.0438
    8MOL   C121 2515   5.000   5.914   1.106  0.0803  0.0816  0.1377
    8MOL   C122 2516   5.074   5.789   1.157 -0.2535  0.2490 -0.1092
    8MOL   C123 2517   5.031   5.755   1.299  0.4019  0.6419 -0.1976
    8MOL   C124 2518   5.071   5.833   1.414 -0.1405  0.7388  0.6783
    8MOL   C125 2519   5.043   5.792   1.546  0.5818 -0.2888 -0.2306
    8MOL   C126 2520   4.966   5.678   1.569  0.0577 -0.0018  0.8795
    8MOL   C127 2521   4.914   5.603   1.457 -0.0911 -0.4720  0.6180
    8MOL   C128 2522   4.945   5.641   1.325 -0.0910 -0.1529  0.0748
    8MOL   O129 2523   5.039   5.687   1.060 -0.0228 -1.1670  0.9791
    8MOL   H130 2524   5.053   5.941   1.015  1.2152  0.5281  0.9222
    8MOL   H131 2525   4.895   5.889   1.090  0.3543 -1.1502  0.1992
    8MOL   H132 2526   5.182   5.795   1.161 -0.0886 -1.9412 -0.3905
    8MOL   H133 2527   5.136   5.920   1.411 -2.2347  2.2985 -0.3001
    8MOL   H134 2528   5.076   5.862   1.621  1.9700 -0.1114 -0.9845
    8MOL   H135 2529   4.943   5.656   1.672 -0.1115  2.5804  1.4283
    8MOL   H136 2530   4.847   5.525   1.491  0.1555 -0.9866 -0.0834
    8MOL   H137 2531   4.903   5.599   1.235  1.2561 -1.6936  0.1263
    8MOL   C138 2532   5.123   5.566   1.065 -0.5921 -0.0411  0.0691
    8MOL   C139 2533   5.067   5.472   0.958 -0.3942  1.0137 -0.1371
    8MOL   C140 2534   5.160   5.356   0.927 -0.3228  0.9321  0.7266
    8MOL   C141 2535   5.262   5.381   0.833 -0.2049 -0.0409 -0.1781
    8MOL   C142 2536   5.353   5.279   0.806  0.2408 -0.1687  0.2822
    8MOL   C143 2537   5.349   5.152   0.869 -0.3726 -0.0777 -0.3200
    8MOL   C144 2538   5.251   5.122   0.967  0.2490 -0.8305 -0.6876
    8MOL   C145 2539   5.158   5.227   0.991  0.1538 -0.3193 -0.1300
    8MOL   O146 2540   4.942   5.422   1.013  0.2032  0.3463  0.7614
    8MOL   H147 2541   5.123   5.512   1.160 -1.9780  2.0469  1.2950
    8MOL   H148 2542   5.228   5.587   1.048 -1.1031  2.4554 -0.1223
    8MOL   H149 2543   5.063   5.535   0.869 -1.1033  0.6004 -0.4050
    8MOL   H150 2544   5.280   5.482   0.798 -1.2402  0.3360  0.3493
    8MOL   H151 2545   5.430   5.313   0.738 -1.9181  1.6368 -1.3609
    8MOL   H152 2546   5.430   5.082   0.855 -1.7378 -1.7271 -0.0889
    8MOL   H153 2547   5.256   5.025   1.015 -2.5218 -0.4826  0.3644
    8MOL   H154 2548   5.075   5.203   1.056 -0.1371  1.6462  0.2467
    8MOL   C155 2549   4.845   5.381   0.909 -0.6573 -0.6427 -0.8590
    8MOL   C156 2550   4.756   5.488   0.852  0.0985 -0.0631  0.6518
    8MOL   C157 2551   4.677   5.587   0.943 -0.2518  0.4685 -0.0944
    8MOL   C158 2552   4.699   5.722   0.935  0.6474  0.1254  0.2252
    8MOL   C159 2553   4.615   5.810   1.008  0.5357 -0.2453  0.2427
    8MOL   C160 2554   4.524   5.761   1.100  0.1203  0.2659 -0.0416
    8MOL   C161 2555   4.505   5.618   1.113  0.6167 -0.5222  0.1500
    8MOL   C162 2556   4.581   5.536   1.033 -0.3905 -0.4229 -0.4321
    8MOL   O163 2557   4.829   5.565   0.755 -0.2939  0.5181 -0.6618
    8MOL   H164 2558   4.784   5.312   0.968 -0.5365  0.7415  0.9482
    8MOL   H165 2559   4.901   5.319   0.839  1.1158 -1.7381  1.4692
    8MOL   H166 2560   4.681   5.429   0.799  1.4146  0.6142 -2.0310
    8MOL   H167 2561   4.773   5.763   0.868 -0.2441  0.9779 -0.2579
    8MOL   H168 2562   4.630   5.917   1.008  2.0965 -0.4356 -1.2752
    8MOL   H169 2563   4.458   5.830   1.151  0.1960  0.1451  0.2189
    8MOL   H170 2564   4.424   5.582   1.175 -0.7706  1.9747 -0.1389
    8MOL   H171 2565   4.559   5.431   1.041 -2.2846  0.0047  0.1073
    8MOL   C172 2566   4.773   5.554   0.618  0.0276 -0.2361 -0.5580
    8MOL   C173 2567   4.848   5.655   0.525 -0.1760  0.2961 -0.0842
    8MOL   C174 2568   4.812   5.801   0.555  0.9070 -0.7960 -0.4449
    8MOL   C175 2569   4.858   5.873   0.666 -0.2677 -0.5447 -1.0041
    8MOL   C176 2570   4.838   6.012   0.681  0.0871  0.7736 -0.1513
    8MOL   C177 2571   4.765   6.079   0.585  0.5667  0.8244 -0.1009
    8MOL   C178 2572   4.730   6.022   0.464 -0.1989 -0.1464 -0.5314
    8MOL   C179 2573   4.749   5.881   0.454  0.2569 -0.0266 -0.0729
    8MOL   O180 2574   4.801   5.614   0.400 -0.1916 -0.4366  0.1202
    8MOL   H181 2575   4.773   5.450   0.587 -0.4997 -0.3346 -0.2434
    8MOL   H182 2576   4.671   5.589   0.634 -1.0402 -2.9785 -1.0527
    8MOL   H183 2577   4.954   5.642   0.547 -0.0419 -0.3639 -1.0889
    8MOL   H184 2578   4.919   5.827   0.742  0.7596  0.5578 -1.1523
    8MOL   H185 2579   4.860   6.048   0.780 -0.4446 -1.1759  0.7039
    8MOL   H186 2580   4.734   6.180   0.607 -1.0861  0.4588 -0.7352
    8MOL   H187 2581   4.684   6.071   0.380  2.3107  1.1217 -1.1952
    8MOL   H188 2582   4.707   5.834   0.366  0.1859 -1.7025  0.8424
    8MOL   C189 2583   4.898   5.620   0.298 -0.6188  0.1992  0.7112
    8MOL   C190 2584   5.022   5.525   0.323 -0.3093  0.7176 -0.4769
    8MOL   C191 2585   4.992   5.390   0.387 -0.2519  0.2191 -0.0365
    8MOL   C192 2586   5.028   5.375   0.518  0.0284 -0.3560  0.0994
    8MOL   C193 2587   4.997   5.255   0.587  0.1859  1.2762  0.1625
    8MOL   C194 2588   4.931   5.149   0.519  0.2504 -0.1951  0.1150
    8MOL   C195 2589   4.896   5.172   0.386 -0.1564  0.4610  0.1220
    8MOL   C196 2590   4.927   5.286   0.316 -0.2980  0.2367 -0.8060
    8MOL   O197 2591   5.125   5.592   0.395  0.6370 -0.0368  0.5636
    8MOL   H198 2592   4.836   5.588   0.214 -1.6907 -0.0458  1.5948
    8MOL   H199 2593   4.929   5.722   0.275  1.3439 -0.9945 -2.2351
    8MOL   H200 2594   5.071   5.499   0.229 -0.1705  0.3187 -0.2956
    8MOL   H201 2595   5.074   5.451   0.580  0.4906 -0.8383  0.3453
    8MOL   H202 2596   5.034   5.230   0.685 -0.6910 -2.3112 -0.3417
    8MOL   H203 2597   4.911   5.052   0.562 -0.7020  0.9925  2.4307
    8MOL   H204 2598   4.860   5.088   0.328  0.3578  0.7936 -0.6681
    8MOL   H205 2599   4.897   5.299   0.213 -0.4252 -0.0080 -0.7997
    8MOL   C206 2600   5.200   5.697   0.331 -0.2211  0.2514 -0.4836
    8MOL   C207 2601   5.323   5.735   0.414  0.7724 -0.4563 -0.4703
    8MOL   C208 2602   5.279   5.810   0.537 -0.1794  0.4197  0.5082
    8MOL   C209 2603   5.284   5.954   0.557  0.1070  0.3090  0.6017
    8MOL   C210 2604   5.255   6.015   0.680  0.3787 -0.4647 -0.0398
    8MOL   C211 2605   5.218   5.930   0.786 -0.1607  0.2444 -0.5060
    8MOL   C212 2606   5.212   5.788   0.775  0.3893 -0.4010 -0.1428
    8MOL   C213 2607   5.238   5.729   0.648  0.3374  0.2039 -0.4609
    8MOL   O214 2608   5.408   5.808   0.333  0.3985 -0.5383 -0.1546
    8MOL   H215 2609   5.239   5.666   0.234  1.4798 -0.0146  0.2790
    8MOL   H216 2610   5.123   5.771   0.307 -0.2043  0.2912 -0.4143
    8MOL   H217 2611   5.362   5.642   0.453 -2.0264 -1.9947 -1.2055
    8MOL   H218 2612   5.319   6.028   0.486  3.6138 -0.2280  1.6676
    8MOL   H219 2613   5.264   6.122   0.694 -0.0554 -0.6433  1.7143
    8MOL   H220 2614   5.197   5.973   0.883  2.0078  0.4833 -0.1176
    8MOL   H221 2615   5.178   5.727   0.857  3.4877  1.3388  2.5734
    8MOL   H222 2616   5.219   5.624   0.630  0.7432  0.1688 -0.6983
    8MOL   C223 2617   5.544   5.783   0.380  0.3546  0.4781  0.5354
    8MOL   C224 2618   5.627   5.902   0.349 -0.0915 -0.3272  1.0845
    8MOL   C225 2619   5.644   5.922   0.197 -0.3185  0.3578  0.0199
    8MOL   C226 2620   5.546   5.983   0.127  0.1976 -0.2650 -0.1670
    8MOL   C227 2621   5.568   5.994   8.068 -0.0613 -0.4847  0.0572
    8MOL   C228 2622   5.679   5.940   7.997  0.3899 -0.1329  0.1771
    8MOL   C229 2623   5.791   5.891   8.075 -0.1223  0.2358 -0.3455
    8MOL   C230 2624   5.769   5.885   0.135 -0.3273 -0.0088  0.2391
    8MOL   O231 2625   5.582   6.012   0.423  0.4922  0.5101 -0.0171
    8MOL   H232 2626   5.547   5.781   0.489 -2.0115  3.8472  0.7581
    8MOL   H233 2627   5.565   5.683   0.342 -2.3807 -0.4819  1.4151
    8MOL   H234 2628   5.730   5.890   0.383  0.3586  0.0686 -0.1005
    8MOL   H235 2629   5.447   6.002   0.167  0.0455 -1.1583 -0.1039
    8MOL   H236 2630   5.497   6.049   8.008 -0.5837 -0.2667  0.8655
    8MOL   H237 2631   5.683   5.948   7.890 -0.2214 -1.3324  0.0487
    8MOL   H238 2632   5.891   5.867   8.042  0.1981 -2.7327  2.5975
    8MOL   H239 2633   5.844   5.837   0.197 -0.1145  1.3890  1.0930
    8MOL   C240 2634   5.660   6.134   0.426 -0.0994  0.2542 -0.1740
    8MOL   C241 2635   5.773   6.138   0.535  0.1505  0.3617 -0.8686
    8MOL   C242 2636   5.722   6.114   0.673 -0.1625  0.4966 -0.3890
    8MOL   C243 2637   5.684   5.979   0.710  0.2888  0.2021 -0.1433
    8MOL   C244 2638   5.630   5.938   0.841  0.3801 -0.2538  0.2384
    8MOL   C245 2639   5.609   6.043   0.931  0.4992 -0.3696  0.4897
    8MOL   C246 2640   5.626   6.181   0.901  0.2688 -0.3261  0.1891
    8MOL   C247 2641   5.690   6.214   0.775 -0.3661 -0.3677 -0.5794
    8MOL   O248 2642   5.868   6.042   0.499  0.4130  0.2110 -0.5982
    8MOL   H249 2643   5.704   6.153   0.328  1.8749  0.1471  0.6760
    8MOL   H250 2644   5.591   6.216   0.447  0.7989  0.1774  3.4848
    8MOL   H251 2645   5.831   6.230   0.529 -0.8101  1.1089  0.7038
    8MOL   H252 2646   5.707   5.900   0.640  1.1831  1.5560 -1.4001
    8MOL   H253 2647   5.617   5.834   0.866  1.6342 -0.1417  1.4273
    8MOL   H254 2648   5.571   6.015   1.028  0.8336  0.9512  1.0150
    8MOL   H255 2649   5.610   6.250   0.983  0.8098  1.4348 -1.1603
    8MOL   H256 2650   5.725   6.315   0.759  0.4374 -0.8515 -2.0254
    8MOL   C257 2651   5.983   6.088   0.423  0.3363 -0.4705  0.3490
    8MOL   C258 2652   6.091   5.982   0.421  0.4131  0.2828  0.1029
    8MOL   C259 2653   6.056   5.845   0.353 -0.0530 -0.2422  0.1848
    8MOL   C260 2654   5.961   5.750   0.403 -0.9242 -0.1874  0.5286
    8MOL   C261 2655   5.941   5.634   0.329 -0.0937 -0.0347  0.1353
    8MOL   C262 2656   6.008   5.612   0.208 -0.3212  0.4429 -0.0541
    8MOL   C263 2657   6.095   5.703   0.158  0.3751 -0.3327  0.0147
    8MOL   C264 2658   6.120   5.824   0.232 -0.1119  0.4742  0.5365
    8MOL   O265 2659   6.131   5.979   0.555  0.5345 -0.1023  0.2852
    8MOL   H266 2660   6.019   6.178   0.472  1.5295 -0.3988 -0.6382
    8MOL   H267 2661   5.960   6.105   0.318 -2.2781 -0.8989  0.8228
    8MOL   H268 2662   6.171   6.022   0.358  0.6038  0.6478  0.5773
    8MOL   H269 2663   5.927   5.776   0.502  0.4951 -3.2502  1.8705
    8MOL   H270 2664   5.865   5.560   0.352  0.9175 -1.4481 -0.9610
    8MOL   H271 2665   5.984   5.521   0.155  3.3096 -2.1147  2.4726
    8MOL   H272 2666   6.142   5.690   0.062 -0.7592 -1.1093 -0.4517
    8MOL   H273 2667   6.177   5.897   0.176 -1.1297  0.6602 -0.2619
    8MOL   C274 2668   6.254   5.929   0.590 -0.3682 -0.0410 -0.0189
    8MOL   C275 2669   6.358   6.043   0.603  0.2550 -0.0223 -0.0844
    8MOL   C276 2670   6.334   6.133   0.731  0.4297 -0.5604 -0.3123
    8MOL   C277 2671   6.211   6.200   0.760 -0.6164 -0.1778 -0.7000
    8MOL   C278 2672   6.204   6.282   0.875  0.7591  0.4217 -0.0689
    8MOL   C279 2673   6.322   6.314   0.955  1.0613 -0.7025  0.7295
    8MOL   C280 2674   6.446   6.255   0.916  0.0741 -0.6816  0.4636
    8MOL   C281 2675   6.447   6.160   0.809 -0.2605  0.6348 -0.6164
    8MOL   O282 2676   6.349   6.110   0.480  0.3952 -0.4931  0.2109
    8MOL   H283 2677   6.254   5.879   0.687  0.1354  1.4311  0.7582
    8MOL   H284 2678   6.286   5.861   0.512 -0.4249 -1.3547  1.0953
    8MOL   H285 2679   6.458   6.002   0.618  0.1501 -0.4128 -0.4548
    8MOL   H286 2680   6.121   6.182   0.702 -1.7841 -0.0114  1.0138
    8MOL   H287 2681   6.113   6.336   0.893  0.3383  0.7363 -3.0024
    8MOL   H288 2682   6.321   6.387   1.035 -0.0422  1.9462 -1.6075
    8MOL   H289 2683   6.536   6.280   0.970  0.5359  1.9521 -1.4049
    8MOL   H290 2684   6.541   6.115   0.781 -0.4851  0.7734 -1.6064
    8MOL   C291 2685   6.459   6.198   0.444 -0.5697 -0.3086  0.6032
    8MOL   C292 2686   6.428   6.282   0.311 -0.3294  0.1456  0.0650
    8MOL   C293 2687   6.397   6.209   0.182  0.1228  0.9667 -0.6115
    8MOL   C294 2688   6.505   6.165   0.106  0.1632  0.2322 -0.2848
    8MOL   C295 2689   6.478   6.127   8.055  0.6258 -0.2644  0.5827
    8MOL   C296 2690   6.346   6.115   8.005  0.9698  0.1725  0.0350
    8MOL   C297 2691   6.234   6.145   0.006  0.1844 -1.0644 -0.0603
    8MOL   C298 2692   6.268   6.182   0.137  0.1744 -0.5331  0.1002
    8MOL   O299 2693   6.324   6.375   0.336 -0.9913  0.4450 -0.0184
    8MOL   H300 2694   6.542   6.137   0.408 -0.7359  0.8058 -1.8063
    8MOL   H301 2695   6.488   6.247   0.536  0.1607 -0.4862  0.4657
    8MOL   H302 2696   6.518   6.337   0.284 -1.0699  0.0238 -2.7805
    8MOL   H303 2697   6.611   6.171   0.125  0.2655  1.7967 -1.2131
    8MOL   H304 2698   6.564   6.122   7.990  1.3748  1.4054  1.4221
    8MOL   H305 2699   6.323   6.070   7.909  1.4247  1.0924 -0.5160
    8MOL   H306 2700   6.131   6.131   8.056  0.1454 -0.6512 -0.1157
    8MOL   H307 2701   6.184   6.210   0.199 -0.5423  0.8172 -1.4236
    8MOL   C308 2702   6.374   6.484   0.409  0.7771  1.0101  0.8953
    8MOL   C309 2703   6.278   6.504   0.519 -0.2526 -0.1135  0.0073
    8MOL   C310 2704   6.350   6.601   0.616  0.1287  0.2409 -0.2317
    8MOL   C311 2705   6.428   6.555   0.719  0.4782  0.0073  0.3328
    8MOL   C312 2706   6.503   6.639   0.799 -0.0430  0.1952 -0.4142
    8MOL   C313 2707   6.508   6.777   0.772  0.1363 -0.3773 -0.5349
    8MOL   C314 2708   6.435   6.834   0.661  0.3853  0.5303  0.6069
    8MOL   C315 2709   6.361   6.738   0.586  0.2695  0.0931  0.0243
    8MOL   O316 2710   6.161   6.562   0.470 -0.7421 -0.0192 -0.1965
    8MOL   H317 2711   6.375   6.579   0.355 -1.6375  0.5770  0.0313
    8MOL   H318 2712   6.469   6.460   0.457  0.1626 -0.1106  1.5523
    8MOL   H319 2713   6.260   6.407   0.567 -1.8748  0.1876  0.0300
    8MOL   H320 2714   6.439   6.449   0.739  3.1749  0.2461  0.3597
    8MOL   H321 2715   6.556   6.598   0.884 -0.8864  1.8306  0.9251
    8MOL   H322 2716   6.578   6.844   0.820 -0.3143  0.3373 -0.8617
    8MOL   H323 2717   6.451   6.939   0.644  0.7469  0.0953 -1.8983
    8MOL   H324 2718   6.305   6.783   0.505 -0.5867  1.0664  1.1334
    8MOL   C325 2719   6.042   6.528   0.548  0.5561 -0.6074  0.5731
    8MOL   C326 2720   5.920   6.613   0.500  0.3081 -0.0592  0.6261
    8MOL   C327 2721   5.779   6.572   0.548  0.6768 -1.0714 -0.1477
    8MOL   C328 2722   5.752   6.577   0.689  0.1960 -0.7809 -0.0489
    8MOL   C329 2723   5.624   6.544   0.732  0.4450  0.1291 -1.3002
    8MOL   C330 2724   5.529   6.491   0.649  0.7833 -0.3776  0.1257
    8MOL   C331 2725   5.559   6.478   0.516  0.9009  0.3996  0.1867
    8MOL   C332 2726   5.683   6.522   0.464  0.9461 -0.7761 -0.1565
    8MOL   O333 2727   5.942   6.748   0.542 -0.0933  0.0651  0.2323
    8MOL   H334 2728   6.049   6.550   0.654  2.6360 -2.5294  0.8680
    8MOL   H335 2729   6.012   6.425   0.529 -2.2274  0.3790 -0.6868
    8MOL   H336 2730   5.924   6.620   0.391 -0.2515 -1.6581  0.4977
    8MOL   H337 2731   5.835   6.595   0.756 -0.0452  0.5882 -0.1149
    8MOL   H338 2732   5.615   6.550   0.840  3.1842  0.9148 -1.0955
    8MOL   H339 2733   5.432   6.457   0.682 -0.3045  1.5253 -0.9692
    8MOL   H340 2734   5.487   6.439   0.445  2.0430 -2.0324  0.3072
    8MOL   H341 2735   5.698   6.517   0.357  3.5434 -2.1276  0.2261
    8MOL   H342 2736   6.033   6.768   0.529 -0.6392  2.3049 -0.4049
    9MOL     C1 2737   2.678   7.231   4.889 -0.3303  0.1699  0.3753
    9MOL     C2 2738   2.540   7.193   4.942  0.0868  0.0149 -0.2284
    9MOL     C3 2739   2.548   7.122   5.081  0.2665 -0.0584  0.6725
    9MOL     C4 2740   2.528   7.191   5.200  0.1246  0.7486 -0.0578
    9MOL     C5 2741   2.545   7.121   5.320  0.6076 -0.1805 -0.4333
    9MOL     C6 2742   2.578   6.985   5.322 -0.4298 -0.6897 -0.5191
    9MOL     C7 2743   2.613   6.917   5.206 -0.9314 -0.0022 -0.5575
    9MOL     C8 2744   2.602   6.985   5.084  0.8988  0.0942 -0.0217
    9MOL     O9 2745   2.479   7.121   4.847 -0.4121 -0.1933  1.1363
    9MOL    H10 2746   2.733   7.303   4.950 -0.3282  1.1736 -0.7931
    9MOL    H11 2747   2.745   7.147   4.871  2.4718  1.7450  2.9288
    9MOL    H12 2748   2.479   7.280   4.966 -1.0601 -0.3482 -1.7398
    9MOL    H13 2749   2.504   7.294   5.179  0.9739  0.7312 -1.2002
    9MOL    H14 2750   2.533   7.167   5.417 -3.0484  1.0226 -1.3808
    9MOL    H15 2751   2.578   6.938   5.419  1.1438 -0.1771 -0.2610
    9MOL    H16 2752   2.649   6.815   5.213  0.8807  0.6951  0.6934
    9MOL    H17 2753   2.640   6.935   4.997  0.9658 -0.2601  0.2102
    9MOL    H18 2754   2.656   7.282   4.795  0.2731  0.8022  0.5682
    9MOL    C19 2755   2.351   7.067   4.879 -0.7758 -0.2838  0.4634
    9MOL    C20 2756   2.285   6.997   4.764 -0.2405 -0.2623  0.2137
    9MOL    C21 2757   2.142   6.960   4.796 -0.6431 -0.0823 -0.0613
    9MOL    C22 2758   2.045   7.054   4.760 -0.1496  0.7632 -0.4170
    9MOL    C23 2759   1.910   7.037   4.805 -0.0760  0.1474 -0.1799
    9MOL    C24 2760   1.875   6.925   4.887 -0.4868  0.2536 -0.0364
    9MOL    C25 2761   1.977   6.833   4.920 -0.0729  0.4878  0.4179
    9MOL    C26 2762   2.110   6.847   4.874  0.3190  0.7300 -0.2689
    9MOL    O27 2763   2.354   6.874   4.738  0.5393 -0.2624 -0.1979
    9MOL    H28 2764   2.368   7.000   4.964 -0.9551 -1.1014 -0.1334
    9MOL    H29 2765   2.284   7.144   4.916  0.6079  0.5650  1.2549
    9MOL    H30 2766   2.286   7.071   4.685  1.3080  0.1174  0.5758
    9MOL    H31 2767   2.073   7.141   4.702 -2.3775 -0.2525 -3.1012
    9MOL    H32 2768   1.840   7.116   4.783 -0.4121  0.7867  2.9497
    9MOL    H33 2769   1.774   6.905   4.920 -0.2125  0.3361  0.8637
    9MOL    H34 2770   1.939   6.756   4.987  0.5619  0.8447  1.1980
    9MOL    H35 2771   2.184   6.777   4.910  0.6840  1.3564  0.2103
    9MOL    C36 2772   2.384   6.858   4.597 -0.0003  0.8663 -0.4309
    9MOL    C37 2773   2.267   6.799   4.517  0.0282 -0.5316  0.1211
    9MOL    C38 2774   2.310   6.732   4.383 -0.1324 -0.3734 -0.0284
    9MOL    C39 2775   2.287   6.597   4.353 -0.2550  0.2449  0.2621
    9MOL    C40 2776   2.330   6.543   4.231 -0.3471  0.2520  0.3715
    9MOL    C41 2777   2.384   6.624   4.132  0.1289 -0.6867 -0.2121
    9MOL    C42 2778   2.408   6.755   4.160 -0.0706  0.4512  0.2094
    9MOL    C43 2779   2.371   6.808   4.285  0.0222  0.3814  0.2953
    9MOL    O44 2780   2.173   6.897   4.505 -0.3817  0.3488 -0.2228
    9MOL    H45 2781   2.423   6.954   4.563  2.2147  0.2808  0.3441
    9MOL    H46 2782   2.473   6.797   4.586 -1.2048 -0.8967 -0.5561
    9MOL    H47 2783   2.236   6.719   4.585  0.0130 -1.2018 -0.6687
    9MOL    H48 2784   2.237   6.526   4.416 -0.9307  0.7099  0.2511
    9MOL    H49 2785   2.318   6.437   4.211 -0.7181  0.2382  0.6642
    9MOL    H50 2786   2.413   6.579   4.038 -0.4680 -2.5415  0.4648
    9MOL    H51 2787   2.458   6.817   4.088 -0.1106  1.1736  0.7945
    9MOL    H52 2788   2.398   6.911   4.306 -0.3863  0.2163  1.6801
    9MOL    C53 2789   2.044   6.850   4.478  0.1711  0.3915  0.2986
    9MOL    C54 2790   1.955   6.964   4.441  0.0488 -0.1276 -0.2524
    9MOL    C55 2791   2.010   7.051   4.329  0.8506 -0.6134 -0.7020
    9MOL    C56 2792   2.113   7.143   4.361 -0.5411  0.4056 -0.6365
    9MOL    C57 2793   2.150   7.232   4.261 -0.3217  0.0504  0.0220
    9MOL    C58 2794   2.100   7.203   4.129  0.3681  0.0238 -0.4278
    9MOL    C59 2795   2.016   7.095   4.096 -0.5247 -0.6511  0.2912
    9MOL    C60 2796   1.963   7.029   4.202  0.0242  0.0452 -0.5605
    9MOL    O61 2797   1.832   6.911   4.407 -0.1733 -0.4110 -0.3069
    9MOL    H62 2798   2.030   6.773   4.402 -4.3369 -1.1624  2.4953
    9MOL    H63 2799   2.006   6.802   4.568 -1.2707  0.4295 -0.2724
    9MOL    H64 2800   1.929   7.030   4.523 -1.0544 -1.7024  0.7059
    9MOL    H65 2801   2.142   7.166   4.463 -1.9062  0.0718 -0.1601
    9MOL    H66 2802   2.209   7.317   4.291 -2.4734  1.2774  0.8185
    9MOL    H67 2803   2.149   7.262   4.054  1.1763 -0.8033 -0.5587
    9MOL    H68 2804   1.988   7.070   3.994  2.7805 -1.6556 -0.4245
    9MOL    H69 2805   1.894   6.948   4.180 -0.7731  0.8963 -1.2040
    9MOL    C70 2806   1.741   6.891   4.514 -0.0378  0.4378 -0.4400
    9MOL    C71 2807   1.593   6.853   4.469  0.0188 -0.1554  0.0419
    9MOL    C72 2808   1.495   6.860   4.586 -0.1713  0.3916 -1.0154
    9MOL    C73 2809   1.369   6.922   4.559 -0.1504  0.3497  1.0102
    9MOL    C74 2810   1.278   6.942   4.666 -0.5419 -0.8502 -0.0454
    9MOL    C75 2811   1.313   6.895   4.794 -0.6107  0.5180 -0.4018
    9MOL    C76 2812   1.439   6.829   4.820 -0.4723 -0.2453 -0.1654
    9MOL    C77 2813   1.534   6.820   4.715  0.4099 -0.0325  0.0575
    9MOL    O78 2814   1.611   6.721   4.422  0.4579 -0.4373  0.2765
    9MOL    H79 2815   1.777   6.820   4.590  2.8504  1.5374 -0.7069
    9MOL    H80 2816   1.727   6.991   4.555  1.7439 -0.1572  1.7375
    9MOL    H81 2817   1.556   6.922   4.393 -0.6187 -0.5621 -0.0284
    9MOL    H82 2818   1.338   6.940   4.457 -1.8338  1.0392  1.6267
    9MOL    H83 2819   1.182   6.977   4.630  0.1894 -0.3527 -1.5814
    9MOL    H84 2820   1.235   6.899   4.868 -2.5537 -1.4821 -2.2402
    9MOL    H85 2821   1.464   6.796   4.920 -0.8951 -3.4013 -1.0619
    9MOL    H86 2822   1.633   6.782   4.736  0.7894  0.4847 -0.7844
    9MOL    C87 2823   1.496   6.678   4.343  0.5141 -0.4138  0.0829
    9MOL    C88 2824   1.543   6.592   4.233 -0.0663  0.7618  0.8162
    9MOL    C89 2825   1.660   6.652   4.158 -0.0634 -0.3952 -0.3445
    9MOL    C90 2826   1.788   6.613   4.191  0.1786  0.4038 -0.3929
    9MOL    C91 2827   1.897   6.653   4.113 -0.2084 -0.8533  0.2477
    9MOL    C92 2828   1.883   6.725   3.995 -0.2315 -0.1726  0.3259
    9MOL    C93 2829   1.752   6.771   3.967 -0.0314  0.0903  0.0121
    9MOL    C94 2830   1.639   6.736   4.049 -0.6136  0.1604 -0.1092
    9MOL    O95 2831   1.430   6.565   4.145  0.0628 -0.4002 -0.0498
    9MOL    H96 2832   1.440   6.762   4.302 -0.4440 -0.5720  1.0676
    9MOL    H97 2833   1.425   6.623   4.404  0.3030  0.7883  0.9453
    9MOL    H98 2834   1.567   6.492   4.268 -1.6612 -0.2080 -0.7661
    9MOL    H99 2835   1.804   6.539   4.268 -1.2962 -0.1046 -0.5646
    9MOL   H100 2836   1.988   6.599   4.135 -0.2625 -0.7972  0.6034
    9MOL   H101 2837   1.966   6.747   3.929  1.1266 -1.4115  1.5878
    9MOL   H102 2838   1.741   6.837   3.882 -0.5494  0.5825  0.4600
    9MOL   H103 2839   1.540   6.768   4.022 -1.3462 -2.0259 -0.1600
    9MOL   C104 2840   1.426   6.445   4.073  0.1920  0.0887  0.0647
    9MOL   C105 2841   1.331   6.447   3.952  0.6835 -0.2746 -0.0307
    9MOL   C106 2842   1.189   6.482   3.986 -0.6864  0.3227  0.4312
    9MOL   C107 2843   1.127   6.603   3.947 -0.4576 -0.6718 -0.4117
    9MOL   C108 2844   0.999   6.635   3.973  0.3261  0.5447 -0.8017
    9MOL   C109 2845   0.921   6.544   4.053 -0.3936 -0.3731  0.6033
    9MOL   C110 2846   0.972   6.424   4.090 -0.5872 -0.3699 -0.4918
    9MOL   C111 2847   1.107   6.391   4.057 -0.1187 -0.4934 -0.1502
    9MOL   O112 2848   1.381   6.527   3.847  0.3304  0.6220  0.2126
    9MOL   H113 2849   1.525   6.423   4.033  0.0902  1.8845 -1.2508
    9MOL   H114 2850   1.396   6.368   4.144 -2.1890  1.8110  1.0054
    9MOL   H115 2851   1.321   6.343   3.920 -0.1298  0.1152 -1.0520
    9MOL   H116 2852   1.187   6.680   3.900 -0.0785  0.2953  1.5959
    9MOL   H117 2853   0.945   6.714   3.924  1.1727  1.0120 -0.9871
    9MOL   H118 2854   0.818   6.574   4.069 -1.1842 -2.1951 -0.9289
    9MOL   H119 2855   0.912   6.360   4.153  0.9437  0.5841  2.0025
    9MOL   H120 2856   1.158   6.302   4.089 -1.4492 -1.3434 -0.3498
    9MOL   C121 2857   1.427   6.459   3.728 -0.0872 -0.2267  0.5955
    9MOL   C122 2858   1.461   6.576   3.633 -0.2903 -0.2525  0.1897
    9MOL   C123 2859   1.571   6.543   3.537 -0.5332  0.0397 -0.2431
    9MOL   C124 2860   1.701   6.514   3.592  0.1182 -1.1913  0.0856
    9MOL   C125 2861   1.813   6.498   3.509  0.2529  0.5702  0.4198
    9MOL   C126 2862   1.797   6.501   3.365 -0.3942  0.1899 -0.5421
    9MOL   C127 2863   1.668   6.522   3.316  0.2076  0.0504  0.0201
    9MOL   C128 2864   1.551   6.537   3.395  0.6068 -0.1251 -0.6220
    9MOL   O129 2865   1.337   6.606   3.560 -0.1877  0.2544 -0.0093
    9MOL   H130 2866   1.353   6.394   3.684 -1.3231  0.6049  1.4012
    9MOL   H131 2867   1.516   6.404   3.760  0.6747  0.4748 -0.3028
    9MOL   H132 2868   1.503   6.662   3.686 -0.2737 -0.7069  0.9230
    9MOL   H133 2869   1.707   6.515   3.699 -1.9115 -1.2382  0.2162
    9MOL   H134 2870   1.911   6.488   3.553  0.2489  2.3838  0.9049
    9MOL   H135 2871   1.883   6.503   3.299 -0.6308 -2.6379 -1.0072
    9MOL   H136 2872   1.661   6.530   3.209  0.0555  0.7559  0.0853
    9MOL   H137 2873   1.452   6.560   3.357 -0.1211 -0.1509  1.1955
    9MOL   C138 2874   1.264   6.705   3.629  0.2995  0.6180  0.6371
    9MOL   C139 2875   1.259   6.830   3.540 -0.6664  0.3459 -0.0831
    9MOL   C140 2876   1.161   6.931   3.591  0.7851 -0.1041 -0.2313
    9MOL   C141 2877   1.176   6.996   3.714  0.1793 -0.0378  0.2675
    9MOL   C142 2878   1.095   7.107   3.755 -0.5472 -0.4441  0.3779
    9MOL   C143 2879   0.992   7.144   3.669  0.1312 -1.0049 -0.3488
    9MOL   C144 2880   0.976   7.081   3.545 -0.1854 -0.0901 -0.6476
    9MOL   C145 2881   1.058   6.974   3.504 -0.6370  0.4675  0.6870
    9MOL   O146 2882   1.393   6.884   3.531 -0.0814  0.0940  0.4158
    9MOL   H147 2883   1.298   6.741   3.726 -0.1865  1.0864  0.6364
    9MOL   H148 2884   1.159   6.675   3.635  1.4798 -3.7923  0.7702
    9MOL   H149 2885   1.227   6.796   3.442 -0.4910 -0.3123  0.0856
    9MOL   H150 2886   1.260   6.961   3.773 -0.9127 -2.1867  0.6299
    9MOL   H151 2887   1.116   7.165   3.844 -2.8804 -0.7246  1.1454
    9MOL   H152 2888   0.939   7.234   3.697  2.4796  0.4898 -0.5966
    9MOL   H153 2889   0.908   7.136   3.481 -0.4025 -0.0596 -0.3962
    9MOL   H154 2890   1.048   6.935   3.404 -1.4864 -1.6755  1.5816
    9MOL   C155 2891   1.432   6.934   3.401  0.3462 -0.4019 -0.0323
    9MOL   C156 2892   1.550   7.026   3.416 -0.5705 -0.0346 -0.7707
    9MOL   C157 2893   1.680   6.949   3.432  0.2978  0.6593  0.4038
    9MOL   C158 2894   1.753   6.920   3.316 -0.4864 -0.8892 -0.6394
    9MOL   C159 2895   1.870   6.840   3.322  1.2024 -0.1900 -0.3693
    9MOL   C160 2896   1.920   6.804   3.447 -0.7426  0.1879 -0.0327
    9MOL   C161 2897   1.848   6.832   3.565  0.1121  0.3305 -0.3545
    9MOL   C162 2898   1.725   6.903   3.554 -0.7474 -0.2212 -0.3744
    9MOL   O163 2899   1.556   7.118   3.307 -0.0995  0.1802 -0.5307
    9MOL   H164 2900   1.345   6.992   3.370 -0.8031 -1.7756  0.5713
    9MOL   H165 2901   1.455   6.866   3.319 -0.4522  0.0765 -0.6686
    9MOL   H166 2902   1.548   7.092   3.502  0.1061 -2.1204  0.8881
    9MOL   H167 2903   1.705   6.951   3.225 -2.0491  0.9271  0.7397
    9MOL   H168 2904   1.921   6.819   3.229  1.5553 -1.3452  0.0782
    9MOL   H169 2905   2.007   6.741   3.437 -2.1102 -1.9422  1.1237
    9MOL   H170 2906   1.890   6.812   3.663  2.9368  0.2340 -1.5499
    9MOL   H171 2907   1.685   6.927   3.652  0.1809 -0.9352  0.1896
    9MOL   C172 2908   1.632   7.235   3.328  0.2506  0.3595 -0.9065
    9MOL   C173 2909   1.651   7.310   3.197  0.5049 -0.6651  0.8816
    9MOL   C174 2910   1.730   7.229   3.094  0.2538 -0.1241 -0.0604
    9MOL   C175 2911   1.666   7.193   2.974  0.6804  0.0937  0.1934
    9MOL   C176 2912   1.737   7.119   2.882 -0.3546  0.3753  0.0411
    9MOL   C177 2913   1.871   7.079   2.913 -0.3255  0.3146 -0.5971
    9MOL   C178 2914   1.934   7.115   3.031 -0.0181  0.3653 -0.5388
    9MOL   C179 2915   1.865   7.197   3.121 -0.1558 -0.1749 -0.5231
    9MOL   O180 2916   1.707   7.438   3.216  0.3158 -0.3520 -0.1306
    9MOL   H181 2917   1.599   7.303   3.406 -1.4394 -2.9863  1.4516
    9MOL   H182 2918   1.731   7.205   3.361  0.0332 -0.8493 -1.3005
    9MOL   H183 2919   1.556   7.333   3.148  0.3192 -1.5775  0.8046
    9MOL   H184 2920   1.567   7.229   2.949  1.4108 -0.3994 -3.6723
    9MOL   H185 2921   1.698   7.091   2.785  1.3819  1.4445 -0.9895
    9MOL   H186 2922   1.919   7.016   2.839  0.1743  0.6140 -0.5290
    9MOL   H187 2923   2.035   7.083   3.054 -1.4490 -3.8169  0.3627
    9MOL   H188 2924   1.914   7.232   3.211  1.3008 -2.9113 -0.2033
    9MOL   C189 2925   1.698   7.526   3.101  0.0693  0.6025  0.5925
    9MOL   C190 2926   1.796   7.637   3.114 -0.1887 -0.1558  0.1866
    9MOL   C191 2927   1.791   7.719   2.984  0.0810 -0.2238 -0.9307
    9MOL   C192 2928   1.673   7.794   2.955  0.1012 -0.6781 -0.0112
    9MOL   C193 2929   1.664   7.869   2.841  0.4285  0.1854 -0.3012
    9MOL   C194 2930   1.773   7.873   2.756  0.1674 -0.6943 -0.0443
    9MOL   C195 2931   1.887   7.793   2.773 -0.3508  0.1497  0.2848
    9MOL   C196 2932   1.895   7.719   2.896  0.1012  0.0541  0.4855
    9MOL   O197 2933   1.921   7.577   3.146  0.1555  0.2554 -0.3588
    9MOL   H198 2934   1.729   7.472   3.012 -0.5605  2.7298 -0.9716
    9MOL   H199 2935   1.594   7.560   3.099  0.4721  1.8688  0.9546
    9MOL   H200 2936   1.757   7.698   3.195 -2.4402  1.1122 -1.7850
    9MOL   H201 2937   1.592   7.777   3.024  0.2090  0.6236  0.4384
    9MOL   H202 2938   1.578   7.922   2.804  0.2639 -0.0057 -0.1948
    9MOL   H203 2939   1.772   7.934   2.666  1.0366  0.8125  0.9389
    9MOL   H204 2940   1.968   7.789   2.702 -1.7590 -2.0874 -1.2646
    9MOL   H205 2941   1.982   7.658   2.917 -0.5673 -1.5982 -1.3228
    9MOL   C206 2942   2.018   7.669   3.200 -0.6170 -0.0583  0.6421
    9MOL   C207 2943   2.137   7.596   3.270  0.1049 -0.4414 -0.1101
    9MOL   C208 2944   2.216   7.685   3.364  0.6298 -0.1336 -0.2981
    9MOL   C209 2945   2.201   7.663   3.501 -0.1944 -0.0297 -0.1210
    9MOL   C210 2946   2.275   7.741   3.594 -0.6357  0.0359 -0.1790
    9MOL   C211 2947   2.362   7.838   3.550 -0.2747 -0.2238  0.3635
    9MOL   C212 2948   2.383   7.858   3.408 -0.0180 -0.4295  0.0990
    9MOL   C213 2949   2.305   7.785   3.312  0.5312  0.0363  0.0655
    9MOL   O214 2950   2.217   7.562   3.158 -0.0186  0.3242 -0.5205
    9MOL   H215 2951   2.053   7.734   3.120 -0.2714 -1.6392 -0.5269
    9MOL   H216 2952   1.969   7.744   3.262 -0.2732  0.9840 -0.3268
    9MOL   H217 2953   2.102   7.514   3.333  1.7011 -1.1435 -0.1229
    9MOL   H218 2954   2.126   7.590   3.528 -1.4027  1.8487  1.7429
    9MOL   H219 2955   2.269   7.733   3.702  1.2215 -0.5666 -0.0959
    9MOL   H220 2956   2.423   7.894   3.619 -1.2150 -1.7151  2.4415
    9MOL   H221 2957   2.448   7.937   3.374 -0.8843  0.5268  0.6283
    9MOL   H222 2958   2.309   7.797   3.205  0.1804 -0.4715 -0.0085
    9MOL   C223 2959   2.216   7.421   3.133 -0.2698 -0.2424 -0.4170
    9MOL   C224 2960   2.317   7.357   3.232  0.4537  0.1446  0.3804
    9MOL   C225 2961   2.280   7.218   3.276 -0.1618 -0.7267 -0.4815
    9MOL   C226 2962   2.279   7.118   3.179  0.4112 -0.6407 -0.4125
    9MOL   C227 2963   2.241   6.985   3.215  0.2408  0.4012 -0.3327
    9MOL   C228 2964   2.213   6.951   3.349  0.0200  0.3448  0.6367
    9MOL   C229 2965   2.220   7.053   3.449  0.0921  0.3351 -0.3072
    9MOL   C230 2966   2.261   7.183   3.411  0.3106 -0.4502  0.4810
    9MOL   O231 2967   2.446   7.351   3.170  0.3246 -0.3047  0.4122
    9MOL   H232 2968   2.116   7.382   3.148 -0.7102  1.3745  0.8979
    9MOL   H233 2969   2.250   7.398   3.032 -0.1632 -3.0901  0.2218
    9MOL   H234 2970   2.314   7.413   3.325  0.4238 -0.0889  0.5201
    9MOL   H235 2971   2.315   7.144   3.080 -2.8507 -0.3590 -1.5706
    9MOL   H236 2972   2.237   6.914   3.134 -1.1255  0.1227 -0.0292
    9MOL   H237 2973   2.191   6.848   3.374 -0.9457 -0.1669 -2.1993
    9MOL   H238 2974   2.206   7.033   3.554 -0.0437 -0.0395 -0.3944
    9MOL   H239 2975   2.267   7.248   3.497 -1.2988 -0.6272  0.7356
    9MOL   C240 2976   2.530   7.463   3.187 -0.4030 -0.1522 -0.3680
    9MOL   C241 2977   2.647   7.451   3.100 -0.0342 -0.3996  0.5964
    9MOL   C242 2978   2.719   7.318   3.104  0.3428 -0.0282 -0.4979
    9MOL   C243 2979   2.668   7.202   3.042  0.2390 -0.0534  0.8713
    9MOL   C244 2980   2.733   7.078   3.040 -0.3573  0.1526  0.2003
    9MOL   C245 2981   2.859   7.072   3.109  0.2211 -0.8285  0.4797
    9MOL   C246 2982   2.907   7.183   3.185  0.0646 -0.4757  0.3031
    9MOL   C247 2983   2.837   7.305   3.178  0.1341  0.3444  0.5686
    9MOL   O248 2984   2.605   7.476   2.963  0.1422  1.1052 -0.3299
    9MOL   H249 2985   2.469   7.551   3.173 -0.7677 -0.3360  0.0387
    9MOL   H250 2986   2.561   7.461   3.292  0.8851  2.1304 -0.6684
    9MOL   H251 2987   2.718   7.530   3.125  0.0338  0.3892 -1.8949
    9MOL   H252 2988   2.579   7.205   2.982  0.1909  1.5579  1.0058
    9MOL   H253 2989   2.685   6.990   2.999 -1.8849  0.4826  1.2677
    9MOL   H254 2990   2.913   6.980   3.121  0.6140 -0.6398  0.1947
    9MOL   H255 2991   2.997   7.180   3.245 -1.5920 -0.3938  2.8564
    9MOL   H256 2992   2.873   7.390   3.235  0.5680  1.1756 -0.9121
    9MOL   C257 2993   2.708   7.482   2.866 -0.1390  0.2896 -0.4252
    9MOL   C258 2994   2.660   7.449   2.727 -0.3349 -0.8432 -0.4618
    9MOL   C259 2995   2.622   7.304   2.712 -0.1111  0.3385  0.0882
    9MOL   C260 2996   2.492   7.262   2.743  1.2128 -0.1804 -0.1907
    9MOL   C261 2997   2.457   7.127   2.742  0.6948 -0.0911 -0.6028
    9MOL   C262 2998   2.549   7.030   2.706 -0.7135  0.2559 -0.3760
    9MOL   C263 2999   2.684   7.071   2.682  0.2505  0.2042  0.2473
    9MOL   C264 3000   2.716   7.207   2.684 -0.3572  0.8412  0.1440
    9MOL   O265 3001   2.768   7.492   2.634 -0.4750  0.1886  0.0965
    9MOL   H266 3002   2.791   7.416   2.893  0.1839  0.7197 -0.3703
    9MOL   H267 3003   2.751   7.581   2.886 -2.3717  0.9683  1.2639
    9MOL   H268 3004   2.574   7.513   2.715  0.4991  0.5768  0.9551
    9MOL   H269 3005   2.410   7.328   2.762 -0.1293 -1.1952 -2.2196
    9MOL   H270 3006   2.356   7.097   2.767  0.2538  0.8854 -1.1672
    9MOL   H271 3007   2.504   6.932   2.694  1.8860 -0.8374 -1.6292
    9MOL   H272 3008   2.765   7.003   2.659  1.1355  1.1958  0.4048
    9MOL   H273 3009   2.817   7.245   2.673 -0.5427  1.8219  1.6244
    9MOL   C274 3010   2.715   7.485   2.505  1.0465 -0.3780 -0.3007
    9MOL   C275 3011   2.813   7.526   2.395 -0.1098 -0.4500 -0.1281
    9MOL   C276 3012   2.752   7.521   2.253  0.3352  0.1742  0.4468
    9MOL   C277 3013   2.703   7.403   2.192  0.7394 -0.1144 -0.2533
    9MOL   C278 3014   2.649   7.408   2.063 -0.4516 -0.3012  0.2415
    9MOL   C279 3015   2.638   7.530   1.984  0.6136  0.5405  0.2993
    9MOL   C280 3016   2.701   7.640   2.036  0.2705  0.3358 -0.5037
    9MOL   C281 3017   2.757   7.632   2.163 -0.6176 -0.5291 -0.2335
    9MOL   O282 3018   2.929   7.440   2.398  0.3780  0.3771  0.1062
    9MOL   H283 3019   2.690   7.383   2.478  2.7096 -1.2704  1.4656
    9MOL   H284 3020   2.634   7.557   2.496  0.2781 -0.8226  2.7049
    9MOL   H285 3021   2.840   7.631   2.405  1.2525 -0.7583 -0.5003
    9MOL   H286 3022   2.717   7.306   2.238  2.8801 -1.0759 -2.7524
    9MOL   H287 3023   2.604   7.318   2.026 -0.6814 -0.0952  0.0169
    9MOL   H288 3024   2.584   7.539   1.891 -0.6023  0.4667  0.9918
    9MOL   H289 3025   2.701   7.734   1.983 -1.9240 -0.5059 -2.0880
    9MOL   H290 3026   2.814   7.714   2.204 -2.6808  1.0119 -0.3870
    9MOL   C291 3027   3.054   7.486   2.354  0.4433  0.6571 -0.0889
    9MOL   C292 3028   3.146   7.553   2.459  0.2356  0.2883 -0.2891
    9MOL   C293 3029   3.289   7.574   2.404  0.6703  0.2587 -0.1217
    9MOL   C294 3030   3.311   7.689   2.334 -0.0082  0.1793 -0.2571
    9MOL   C295 3031   3.442   7.709   2.290  0.6343  0.0820  0.0221
    9MOL   C296 3032   3.543   7.608   2.302  0.2923 -0.3551  0.3787
    9MOL   C297 3033   3.519   7.487   2.372  0.2607  0.2073  0.0006
    9MOL   C298 3034   3.386   7.471   2.424  0.1293  0.5244 -0.4202
    9MOL   O299 3035   3.087   7.682   2.486  0.3137 -0.8029  0.4713
    9MOL   H300 3036   3.042   7.546   2.264 -1.1087 -0.9014 -0.9381
    9MOL   H301 3037   3.116   7.399   2.334  0.8722  1.2237 -1.2507
    9MOL   H302 3038   3.159   7.508   2.557 -0.9579  1.4449  0.4281
    9MOL   H303 3039   3.231   7.761   2.324  0.0440  0.2141 -0.4116
    9MOL   H304 3040   3.470   7.792   2.227 -2.1508 -0.7136 -2.4118
    9MOL   H305 3041   3.644   7.626   2.268 -0.5570 -0.3483 -2.2222
    9MOL   H306 3042   3.602   7.420   2.388  0.5536  0.5095 -0.2489
    9MOL   H307 3043   3.360   7.379   2.475  0.0718  0.9115  0.2649
    9MOL   C308 3044   3.102   7.732   2.619  0.1135 -0.6768  0.0383
    9MOL   C309 3045   3.059   7.880   2.638 -0.2454  0.5185 -0.3089
    9MOL   C310 3046   2.911   7.885   2.603 -0.9081 -0.2096  0.7976
    9MOL   C311 3047   2.808   7.858   2.694  0.7411  0.0573  0.5624
    9MOL   C312 3048   2.669   7.866   2.653 -0.5000  0.3807 -0.4448
    9MOL   C313 3049   2.641   7.895   2.520  0.0417  0.3592 -0.6260
    9MOL   C314 3050   2.744   7.905   2.426  0.2447 -0.6638  0.1197
    9MOL   C315 3051   2.878   7.906   2.467 -0.0480  0.5923  0.0439
    9MOL   O316 3052   3.085   7.910   2.774 -0.0975 -0.5894  0.1835
    9MOL   H317 3053   3.207   7.718   2.645  0.4147 -0.7472 -1.1757
    9MOL   H318 3054   3.032   7.673   2.678 -0.7989  0.9708  0.6261
    9MOL   H319 3055   3.115   7.950   2.576 -0.5110  1.0678  0.0622
    9MOL   H320 3056   2.823   7.854   2.801 -2.5598 -0.1826  1.0621
    9MOL   H321 3057   2.586   7.855   2.722  2.0441  2.3507  3.0910
    9MOL   H322 3058   2.538   7.907   2.488  0.0570  1.4254 -0.2679
    9MOL   H323 3059   2.724   7.924   2.321  0.1490 -0.3259  0.1960
    9MOL   H324 3060   2.957   7.935   2.398  0.7694 -0.4687  0.5160
    9MOL   C325 3061   3.038   8.034   2.824  0.3891  0.2730 -0.3141
    9MOL   C326 3062   3.072   8.046   2.971  0.5687 -0.9757  0.1198
    9MOL   C327 3063   2.995   7.950   3.062 -0.1402  0.2294  0.2528
    9MOL   C328 3064   2.990   7.806   3.045  0.9973  0.3479  0.7190
    9MOL   C329 3065   2.924   7.719   3.132  0.9809 -0.1522 -0.0966
    9MOL   C330 3066   2.847   7.772   3.240  0.2339  0.4299 -0.6806
    9MOL   C331 3067   2.853   7.912   3.257  0.4172 -0.4187  0.3816
    9MOL   C332 3068   2.924   7.998   3.170  0.1102  0.3394  0.3814
    9MOL   O333 3069   3.211   8.034   2.987 -0.5366 -0.1324  0.0327
    9MOL   H334 3070   2.932   8.054   2.806  0.0616 -0.3673  0.8332
    9MOL   H335 3071   3.090   0.033   2.770 -0.4479  1.5353  0.6676
    9MOL   H336 3072   3.052   0.068   3.004  0.6948 -0.8935 -0.0578
    9MOL   H337 3073   3.041   7.754   2.966  1.7103  2.9459 -0.5869
    9MOL   H338 3074   2.939   7.613   3.118  0.5487 -0.1614 -0.4955
    9MOL   H339 3075   2.799   7.715   3.319  0.1974  0.9357 -0.3377
    9MOL   H340 3076   2.808   7.952   3.346  1.2002  0.3197  0.4523
    9MOL   H341 3077   2.913   0.025   3.181 -2.1075  0.2329 -0.5101
    9MOL   H342 3078   3.236   7.967   2.926  1.5999 -0.0302  0.7437
   10MOL     C1 3079   0.440   4.845   1.002 -0.4089 -0.4856  0.8658
   10MOL     C2 3080   0.332   4.948   1.026  0.0352 -0.3242 -0.1568
   10MOL     C3 3081   0.337   5.004   1.166 -0.5841 -0.3911 -0.1639
   10MOL     C4 3082   0.318   4.921   1.276 -1.2275 -0.1947 -0.7274
   10MOL     C5 3083   0.318   4.976   1.411  0.4886 -0.2756  0.3117
   10MOL     C6 3084   0.342   5.117   1.433 -0.1908  0.2413 -0.3388
   10MOL     C7 3085   0.357   5.201   1.320 -0.2510  0.6173  0.4616
   10MOL     C8 3086   0.355   5.142   1.192  0.2554 -0.2723 -0.4365
   10MOL     O9 3087   0.201   4.888   0.996 -0.6274  0.3995 -0.0495
   10MOL    H10 3088   0.425   4.757   1.065 -2.7817  0.0405  1.0793
   10MOL    H11 3089   0.429   4.796   0.905 -1.9588 -0.7089  1.1502
   10MOL    H12 3090   0.338   5.038   0.965 -1.0014 -0.0334  0.1485
   10MOL    H13 3091   0.306   4.815   1.264  0.7004 -0.3795 -1.0864
   10MOL    H14 3092   0.318   4.903   1.491  3.7896  0.2744  0.8682
   10MOL    H15 3093   0.342   5.162   1.531 -0.7943 -1.7431  0.6002
   10MOL    H16 3094   0.375   5.307   1.332  1.3936  0.2717  1.1464
   10MOL    H17 3095   0.369   5.211   1.110 -0.3398  0.8017  0.3416
   10MOL    H18 3096   0.537   4.895   1.008 -1.3345  1.3131  1.3984
   10MOL    C19 3097   0.159   4.895   0.859 -0.1594  0.1479 -0.7756
   10MOL    C20 3098   0.095   5.023   0.806 -0.0319 -0.1966  0.1693
   10MOL    C21 3099   0.013   5.008   0.678 -0.0666 -0.1167 -0.5255
   10MOL    C22 3100   7.952   5.019   0.681  0.2846  0.2458  0.4448
   10MOL    C23 3101   7.875   4.995   0.564 -0.6437 -0.9579 -0.7336
   10MOL    C24 3102   7.939   4.973   0.442 -0.5139  0.2529 -0.6625
   10MOL    C25 3103   8.079   4.965   0.438 -0.6926  0.1180  0.7020
   10MOL    C26 3104   0.076   4.979   0.558 -0.1281 -1.1321 -0.1655
   10MOL    O27 3105   0.192   5.125   0.783 -0.2453  0.0577 -0.3963
   10MOL    H28 3106   0.226   4.849   0.786 -0.9845 -1.9063 -0.2438
   10MOL    H29 3107   0.073   4.830   0.867  0.1291 -0.2147 -0.5937
   10MOL    H30 3108   0.019   5.052   0.878 -1.3915  0.3294 -1.4294
   10MOL    H31 3109   7.892   5.049   0.766 -2.5318  1.7822 -1.9786
   10MOL    H32 3110   7.768   5.007   0.572 -0.4545 -0.8234  2.2418
   10MOL    H33 3111   7.890   4.970   0.346  1.8913 -3.8357 -1.9366
   10MOL    H34 3112   0.052   4.971   0.344  0.8933  0.3728  1.5963
   10MOL    H35 3113   0.184   4.989   0.555 -0.0507 -1.1451  1.9225
   10MOL    C36 3114   0.131   5.251   0.763  0.2953 -0.0413 -0.5715
   10MOL    C37 3115   0.243   5.354   0.723 -0.8899 -0.0436  0.0814
   10MOL    C38 3116   0.357   5.358   0.826  0.2418  0.2961  0.1887
   10MOL    C39 3117   0.472   5.274   0.821  0.3264  0.3967 -0.3610
   10MOL    C40 3118   0.572   5.282   0.917 -0.0444  0.5650  0.4668
   10MOL    C41 3119   0.564   5.382   1.017  0.5306  0.1205 -0.1186
   10MOL    C42 3120   0.451   5.467   1.026 -0.1776 -0.0937  0.1046
   10MOL    C43 3121   0.358   5.464   0.925 -0.0289  0.7829 -0.3445
   10MOL    O44 3122   0.178   5.481   0.706  0.2446  0.3919  0.0720
   10MOL    H45 3123   0.045   5.260   0.696  0.8958  0.2439 -1.3182
   10MOL    H46 3124   0.106   5.280   0.865  0.8006  3.0183 -1.2520
   10MOL    H47 3125   0.281   5.323   0.626  0.1754  0.3410  0.3699
   10MOL    H48 3126   0.471   5.207   0.737 -0.1256  0.9558 -0.8089
   10MOL    H49 3127   0.662   5.223   0.906 -1.2211 -1.0060 -1.0267
   10MOL    H50 3128   0.643   5.408   1.087 -1.3152  2.0544  1.2929
   10MOL    H51 3129   0.450   5.546   1.099 -2.0772 -0.1460  0.1515
   10MOL    H52 3130   0.267   5.522   0.930 -0.8074 -0.4678  0.2747
   10MOL    C53 3131   0.267   5.577   0.646 -0.0406 -0.7861 -0.4078
   10MOL    C54 3132   0.204   5.709   0.616  0.3783 -0.3750  0.0807
   10MOL    C55 3133   0.247   5.829   0.700  0.4260 -0.0672 -0.0881
   10MOL    C56 3134   0.319   5.928   0.638 -0.2961 -0.0920 -0.0976
   10MOL    C57 3135   0.379   6.031   0.711 -0.3515 -0.0004  0.3474
   10MOL    C58 3136   0.369   6.026   0.850  0.0102  0.2421  0.0724
   10MOL    C59 3137   0.281   5.940   0.917  0.1514 -0.0427 -0.1053
   10MOL    C60 3138   0.226   5.834   0.838  0.7621 -0.0323  0.2734
   10MOL    O61 3139   0.201   5.732   0.474  0.2923 -0.5228  0.1574
   10MOL    H62 3140   0.351   5.590   0.715 -0.5973  2.5264 -0.2902
   10MOL    H63 3141   0.316   5.536   0.557 -1.9908 -1.3162 -1.2529
   10MOL    H64 3142   0.099   5.694   0.638 -0.2700  1.5343 -1.5212
   10MOL    H65 3143   0.337   5.935   0.531  1.3222  2.1128  0.2720
   10MOL    H66 3144   0.462   6.089   0.675 -0.0232  0.2367  1.4592
   10MOL    H67 3145   0.419   6.104   0.905  0.0516  1.0747 -1.1267
   10MOL    H68 3146   0.259   5.954   1.022  2.2591  0.5151  0.2853
   10MOL    H69 3147   0.164   5.752   0.870  0.8315 -0.7596 -1.3864
   10MOL    C70 3148   0.084   5.798   0.423  0.3374  0.2491  0.3892
   10MOL    C71 3149   0.138   5.844   0.283  0.3519 -0.1677  0.3333
   10MOL    C72 3150   0.100   5.984   0.243 -0.7115 -0.5094  0.0221
   10MOL    C73 3151   0.185   6.091   0.290  0.4162  1.7123 -0.0807
   10MOL    C74 3152   0.162   6.223   0.247 -0.6596 -0.2198 -0.1930
   10MOL    C75 3153   0.036   6.246   0.181 -0.6059 -0.2844 -0.3802
   10MOL    C76 3154   8.022   6.148   0.153  0.0016  0.0092  0.5508
   10MOL    C77 3155   8.061   6.010   0.173  0.2169 -0.6773 -0.5237
   10MOL    O78 3156   0.099   5.753   0.179  0.0050  0.0750  0.0451
   10MOL    H79 3157   0.003   5.725   0.416  1.6143 -1.2284  0.7733
   10MOL    H80 3158   0.051   5.886   0.478  0.5038 -0.3503  1.4772
   10MOL    H81 3159   0.246   5.835   0.282  0.5615  1.9909 -1.7711
   10MOL    H82 3160   0.275   6.068   0.344  1.3481 -1.0124 -2.6600
   10MOL    H83 3161   0.229   6.303   0.275  0.5164 -0.7808 -1.3642
   10MOL    H84 3162   0.017   6.350   0.159 -0.2061  0.3713  2.2449
   10MOL    H85 3163   7.930   6.166   0.099  0.8692  1.8935 -0.3233
   10MOL    H86 3164   7.998   5.931   0.136  1.4533 -1.8373 -0.1779
   10MOL    C87 3165   0.157   5.618   0.181 -0.3892  0.7054 -0.5342
   10MOL    C88 3166   0.116   5.523   0.068 -0.3359  0.4754 -0.1188
   10MOL    C89 3167   8.047   5.472   0.082 -0.1921  0.4657 -0.0130
   10MOL    C90 3168   8.015   5.399   0.194 -0.2804  0.6187  0.1838
   10MOL    C91 3169   7.885   5.357   0.218  0.7303  0.2605 -0.6620
   10MOL    C92 3170   7.780   5.384   0.125 -0.3026  0.7668 -0.4875
   10MOL    C93 3171   7.813   5.457   0.008  0.2428  0.5968 -0.4655
   10MOL    C94 3172   7.946   5.498   8.061  0.6996  0.3130  0.6805
   10MOL    O95 3173   0.214   5.411   0.076  0.1039  0.5505 -0.4090
   10MOL    H96 3174   0.143   5.566   0.276 -2.5954 -1.0843 -1.7845
   10MOL    H97 3175   0.266   5.625   0.180 -0.3713  0.3681 -1.2971
   10MOL    H98 3176   0.118   5.584   8.057 -1.0694  2.5446  1.2108
   10MOL    H99 3177   0.013   5.374   0.264 -0.0029 -0.1717 -0.3963
   10MOL   H100 3178   7.862   5.308   0.312 -0.5819 -0.7833 -1.4973
   10MOL   H101 3179   7.680   5.350   0.146 -0.8675  2.2262 -0.7582
   10MOL   H102 3180   7.741   5.477   8.011 -1.0888 -3.4861 -0.3766
   10MOL   H103 3181   7.978   5.545   7.969 -1.6045  0.7176  0.0396
   10MOL   C104 3182   0.189   5.320   8.050  0.2198 -0.6081 -0.8102
   10MOL   C105 3183   0.293   5.207   8.052  1.2522  0.3808 -0.3280
   10MOL   C106 3184   0.435   5.263   8.023 -0.8626 -0.2205 -0.7937
   10MOL   C107 3185   0.501   5.354   0.032  0.0880  0.5306  0.2789
   10MOL   C108 3186   0.627   5.406   8.066  0.2998  0.6320 -0.2694
   10MOL   C109 3187   0.677   5.382   7.938  0.1192 -0.5120 -0.4454
   10MOL   C110 3188   0.609   5.298   7.848 -0.2173 -0.1830  0.3204
   10MOL   C111 3189   0.489   5.237   7.893 -0.3361 -0.5554  0.9968
   10MOL   O112 3190   0.280   5.142   0.102 -0.4288  0.4886  0.3850
   10MOL   H113 3191   0.089   5.276   8.058 -0.9149  2.0238 -0.1010
   10MOL   H114 3192   0.186   5.373   7.954 -0.5994  1.0055  0.0883
   10MOL   H115 3193   0.264   5.141   7.970  0.5092  0.5073 -0.1754
   10MOL   H116 3194   0.457   5.370   0.129 -0.3303 -2.6530  0.6679
   10MOL   H117 3195   0.678   5.475   0.052 -1.4542  1.1071  0.6150
   10MOL   H118 3196   0.770   5.429   7.910 -0.1896 -0.1194 -0.8145
   10MOL   H119 3197   0.645   5.274   7.749  1.5878 -0.5169  1.0482
   10MOL   H120 3198   0.442   5.164   7.828 -0.8847 -0.1283  0.9170
   10MOL   C121 3199   0.334   5.009   0.098 -0.1957 -0.4072 -0.3418
   10MOL   C122 3200   0.353   4.947   0.234  0.1692  0.5934 -0.2339
   10MOL   C123 3201   0.371   4.797   0.216  0.5441  0.1334 -0.0292
   10MOL   C124 3202   0.479   4.747   0.140 -0.9031 -0.2461  0.5314
   10MOL   C125 3203   0.521   4.615   0.165  0.2572  0.0459  0.4824
   10MOL   C126 3204   0.447   4.528   0.250 -0.2626 -0.8340 -0.6730
   10MOL   C127 3205   0.327   4.575   0.313  0.0554  1.0233 -0.3600
   10MOL   C128 3206   0.293   4.709   0.297  0.4578 -0.7018  1.2881
   10MOL   O129 3207   0.476   4.995   0.286  0.3652  0.4453  0.1484
   10MOL   H130 3208   0.429   5.003   0.044 -0.5480 -1.3239 -0.8699
   10MOL   H131 3209   0.277   4.940   0.036 -0.6475 -2.9959  2.8475
   10MOL   H132 3210   0.271   4.960   0.305 -1.5788 -0.4536 -2.0203
   10MOL   H133 3211   0.535   4.809   0.072 -1.3961 -0.5951 -0.1972
   10MOL   H134 3212   0.598   4.578   0.098  1.1267  0.2705  1.3461
   10MOL   H135 3213   0.485   4.427   0.253 -1.5042 -1.2855  0.1003
   10MOL   H136 3214   0.264   4.510   0.372  0.9830  2.3480  2.1524
   10MOL   H137 3215   0.206   4.749   0.347  0.3940  0.0163  0.6158
   10MOL   C138 3216   0.484   4.988   0.423 -0.1155  0.1661  0.5825
   10MOL   C139 3217   0.627   5.020   0.486 -0.1232  0.8907 -0.2106
   10MOL   C140 3218   0.745   4.936   0.432  0.0168  0.4342 -0.5133
   10MOL   C141 3219   0.721   4.802   0.387 -0.6481 -0.9005  0.3935
   10MOL   C142 3220   0.825   4.722   0.336  0.9224  0.2075 -0.4260
   10MOL   C143 3221   0.953   4.774   0.331 -0.3866  0.6399 -0.2636
   10MOL   C144 3222   0.984   4.901   0.381 -0.4158  0.2757 -0.4368
   10MOL   C145 3223   0.880   4.984   0.432 -0.2216 -0.4086  0.6797
   10MOL   O146 3224   0.636   5.168   0.483  0.3434 -0.4764 -0.7402
   10MOL   H147 3225   0.453   4.891   0.461  0.4415 -0.3339 -0.2070
   10MOL   H148 3226   0.410   5.059   0.459 -1.6483 -1.3943  0.5799
   10MOL   H149 3227   0.619   4.980   0.587  0.3665  1.4124  0.0373
   10MOL   H150 3228   0.628   4.752   0.408 -0.8051  0.0266  2.0167
   10MOL   H151 3229   0.807   4.620   0.303 -0.0550  0.6756 -1.3762
   10MOL   H152 3230   1.038   4.714   0.299 -0.0302  1.6612 -1.2583
   10MOL   H153 3231   1.083   4.945   0.378 -0.6581  0.8246 -0.3022
   10MOL   H154 3232   0.902   5.076   0.484  0.3465 -1.6112  2.6297
   10MOL   C155 3233   0.656   5.227   0.360 -0.1373  0.4957 -0.3513
   10MOL   C156 3234   0.725   5.365   0.369  0.5191 -0.1644 -0.4367
   10MOL   C157 3235   0.674   5.453   0.482 -0.3584 -0.3126  0.5566
   10MOL   C158 3236   0.728   5.448   0.610  0.0174 -0.3872 -0.4234
   10MOL   C159 3237   0.691   5.546   0.708 -0.0528  0.1113  1.1665
   10MOL   C160 3238   0.602   5.650   0.671  0.9582 -0.5082 -0.6755
   10MOL   C161 3239   0.560   5.657   0.535 -0.3429  0.3953  0.0171
   10MOL   C162 3240   0.580   5.553   0.444  0.4757  0.4423  0.1400
   10MOL   O163 3241   0.864   5.337   0.379  0.9564 -0.1948 -0.4731
   10MOL   H164 3242   0.563   5.243   0.305 -0.3427  3.2019  0.7136
   10MOL   H165 3243   0.710   5.156   0.297 -1.2293 -0.7394  0.0679
   10MOL   H166 3244   0.694   5.409   0.274 -0.1268 -0.7390 -0.4967
   10MOL   H167 3245   0.806   5.376   0.630 -0.7495 -1.2556 -0.5132
   10MOL   H168 3246   0.742   5.548   0.803 -2.4022  1.6593  2.4381
   10MOL   H169 3247   0.567   5.733   0.730  0.3949  0.2704 -2.0762
   10MOL   H170 3248   0.502   5.738   0.494 -1.1686 -0.0832  0.2231
   10MOL   H171 3249   0.539   5.560   0.344  2.6274  4.7891 -0.5712
   10MOL   C172 3250   0.936   5.369   0.260  0.7361 -0.0548 -0.0474
   10MOL   C173 3251   1.085   5.363   0.290 -0.2595  0.1593 -0.0120
   10MOL   C174 3252   1.137   5.504   0.327  0.0250 -0.7381  0.4329
   10MOL   C175 3253   1.087   5.559   0.444  0.5799 -0.0754 -0.3587
   10MOL   C176 3254   1.120   5.688   0.484  0.2050 -0.1766  0.4485
   10MOL   C177 3255   1.207   5.761   0.401  0.7998 -0.3801 -0.3642
   10MOL   C178 3256   1.276   5.702   0.295  0.6118 -0.2955 -0.6576
   10MOL   C179 3257   1.242   5.572   0.257  0.1331  0.0895 -0.0876
   10MOL   O180 3258   1.158   5.305   0.175 -0.3484 -0.4165  0.2977
   10MOL   H181 3259   0.907   5.305   0.177  3.0768  0.9737 -1.7257
   10MOL   H182 3260   0.907   5.469   0.229  0.0294 -0.2361  0.0161
   10MOL   H183 3261   1.093   5.305   0.382 -1.3019 -1.4873 -0.9336
   10MOL   H184 3262   1.018   5.498   0.500  0.3070 -0.1611 -0.7844
   10MOL   H185 3263   1.080   5.726   0.576 -1.9045 -0.2004 -0.4230
   10MOL   H186 3264   1.220   5.866   0.418 -1.4920  0.1672 -1.6999
   10MOL   H187 3265   1.355   5.762   0.252  1.8770 -0.2444  1.6408
   10MOL   H188 3266   1.301   5.519   0.183  3.8782  0.4424  2.4784
   10MOL   C189 3267   1.180   5.167   0.180 -0.2896  0.3268 -0.3410
   10MOL   C190 3268   1.288   5.127   0.077 -0.4189  0.0609 -0.2410
   10MOL   C191 3269   1.300   4.974   0.069  0.0564 -0.2268  0.4089
   10MOL   C192 3270   1.360   4.903   0.169 -0.4792  1.2800 -0.2273
   10MOL   C193 3271   1.390   4.761   0.154  0.3341 -0.5125  0.8803
   10MOL   C194 3272   1.352   4.698   0.034  0.2647  0.1123  1.1658
   10MOL   C195 3273   1.275   4.769   8.015 -0.3669  0.1809 -0.0037
   10MOL   C196 3274   1.255   4.902   8.040  0.5393  0.2814  0.3235
   10MOL   O197 3275   1.412   5.192   0.115  0.3169 -0.6680 -0.4406
   10MOL   H198 3276   1.223   5.132   0.274  0.7318 -1.1480 -1.3398
   10MOL   H199 3277   1.087   5.124   0.145 -1.2697  2.5131 -0.5269
   10MOL   H200 3278   1.249   5.171   8.065  0.1347  0.9720 -0.0495
   10MOL   H201 3279   1.398   4.954   0.256 -1.5304  1.0988  0.3347
   10MOL   H202 3280   1.434   4.695   0.228 -0.1000 -0.8172  0.8661
   10MOL   H203 3281   1.357   4.592   0.017 -2.6696  0.2235 -0.7904
   10MOL   H204 3282   1.228   4.723   7.930 -0.4847 -1.1905  0.7879
   10MOL   H205 3283   1.185   4.941   7.968  2.2912 -0.0716 -1.6410
   10MOL   C206 3284   1.513   5.209   0.004  0.2375  0.6172  0.3316
   10MOL   C207 3285   1.649   5.231   0.069 -0.4196 -0.4687 -0.2517
   10MOL   C208 3286   1.685   5.129   0.172 -0.6053  0.6367  0.1890
   10MOL   C209 3287   1.723   5.000   0.140 -0.3316 -0.4714 -0.3979
   10MOL   C210 3288   1.754   4.903   0.238 -0.3107  0.4859  0.4008
   10MOL   C211 3289   1.734   4.944   0.377  0.1787  0.4543  0.5389
   10MOL   C212 3290   1.684   5.072   0.410 -0.2412  0.0941  0.5668
   10MOL   C213 3291   1.652   5.161   0.309 -0.4434  0.7557 -0.1517
   10MOL   O214 3292   1.672   5.363   0.103  0.0515  0.3223  0.5856
   10MOL   H215 3293   1.511   5.118   8.022  0.9249 -0.2778  1.5996
   10MOL   H216 3294   1.475   5.288   8.019 -1.1376 -0.4230 -0.1727
   10MOL   H217 3295   1.712   5.204   8.064 -2.3401 -1.3501 -1.4394
   10MOL   H218 3296   1.743   4.979   0.036 -1.6690 -1.5518 -0.4506
   10MOL   H219 3297   1.795   4.806   0.211  2.3565  1.3374  1.2349
   10MOL   H220 3298   1.760   4.879   0.459 -1.9747 -0.0465  0.8514
   10MOL   H221 3299   1.682   5.098   0.515  0.9588 -0.5035  0.7408
   10MOL   H222 3300   1.618   5.262   0.327  0.1889  1.1731 -1.2309
   10MOL   C223 3301   1.813   5.401   0.096  0.3428 -0.4209  0.0893
   10MOL   C224 3302   1.836   5.545   0.156 -0.7369 -0.1061 -0.1231
   10MOL   C225 3303   1.751   5.643   0.072  0.2127 -0.3644 -0.4716
   10MOL   C226 3304   1.613   5.674   0.102  0.0706 -0.1220 -0.2886
   10MOL   C227 3305   1.543   5.763   0.019  0.2103  0.0485  0.6848
   10MOL   C228 3306   1.610   5.828   7.992  0.7329  0.4764  0.3106
   10MOL   C229 3307   1.745   5.797   7.963  0.5359  0.0442  0.1131
   10MOL   C230 3308   1.816   5.705   8.041  0.3119  0.6121 -0.0329
   10MOL   O231 3309   1.818   5.556   0.292 -0.2442  0.3807 -0.5876
   10MOL   H232 3310   1.876   5.331   0.151 -0.5991 -0.8268  0.6737
   10MOL   H233 3311   1.847   5.401   8.072  1.3741 -0.3215  0.4215
   10MOL   H234 3312   1.940   5.570   0.133 -0.9423 -0.0517 -0.9858
   10MOL   H235 3313   1.554   5.622   0.176  0.7737  0.6222  0.8152
   10MOL   H236 3314   1.438   5.787   0.025 -0.3448 -1.3224 -2.4718
   10MOL   H237 3315   1.559   5.902   7.933 -0.6275 -0.8221 -0.1610
   10MOL   H238 3316   1.788   5.845   7.876  1.8453  0.8892  1.1942
   10MOL   H239 3317   1.911   5.667   8.006 -0.3180  0.5506 -1.7198
   10MOL   C240 3318   1.930   5.511   0.373  0.6027 -0.7783 -0.1244
   10MOL   C241 3319   1.904   5.538   0.526  0.1928  0.0814  0.6874
   10MOL   C242 3320   1.787   5.457   0.580  0.0965  0.1156 -0.1728
   10MOL   C243 3321   1.655   5.505   0.548  0.4191  0.0873  0.7461
   10MOL   C244 3322   1.541   5.429   0.571  0.0004  0.3997  0.4818
   10MOL   C245 3323   1.557   5.316   0.657  0.6374  0.1182 -0.1160
   10MOL   C246 3324   1.683   5.278   0.713  0.4088 -0.4198  0.8449
   10MOL   C247 3325   1.799   5.344   0.661  0.5937  0.1384 -0.2144
   10MOL   O248 3326   2.022   5.495   0.595 -0.5525 -0.1187 -0.3192
   10MOL   H249 3327   1.945   5.405   0.353  1.8109 -0.1989 -2.5244
   10MOL   H250 3328   2.016   5.573   0.346  0.0406  0.2216  0.3342
   10MOL   H251 3329   1.878   5.639   0.556 -0.7976 -0.4331  1.6175
   10MOL   H252 3330   1.654   5.595   0.487  3.2492 -1.7476 -2.1219
   10MOL   H253 3331   1.445   5.456   0.530 -0.5175 -1.3488  0.4722
   10MOL   H254 3332   1.470   5.257   0.680 -0.4901  2.0803  0.7150
   10MOL   H255 3333   1.692   5.195   0.781  2.2801  1.1029  2.4896
   10MOL   H256 3334   1.897   5.307   0.688  1.1500  1.4732 -0.3816
   10MOL   C257 3335   2.144   5.568   0.585  0.0524 -0.9036 -0.7334
   10MOL   C258 3336   2.268   5.476   0.607 -0.0848 -0.3724 -0.1642
   10MOL   C259 3337   2.372   5.560   0.684  0.1410 -0.9006 -0.2492
   10MOL   C260 3338   2.365   5.555   0.827  0.1035  0.1277  0.2046
   10MOL   C261 3339   2.437   5.645   0.912  0.9510 -0.3454  0.2794
   10MOL   C262 3340   2.531   5.727   0.847  0.0790  0.0861  0.4966
   10MOL   C263 3341   2.548   5.727   0.705  0.0032 -0.2112  0.0851
   10MOL   C264 3342   2.468   5.647   0.622 -0.1283 -0.4286 -0.6117
   10MOL   O265 3343   2.332   5.431   0.485  0.3184 -0.7596 -0.0391
   10MOL   H266 3344   2.140   5.652   0.655  1.5407 -2.0090  0.7200
   10MOL   H267 3345   2.171   5.625   0.496  1.5531  1.2160  1.0236
   10MOL   H268 3346   2.227   5.403   0.677 -2.6838  2.1781  1.0393
   10MOL   H269 3347   2.293   5.496   0.883  1.0551  0.5076  1.8514
   10MOL   H270 3348   2.423   5.648   1.019  1.6880 -0.2019  0.3756
   10MOL   H271 3349   2.597   5.787   0.907  0.4306  0.5712 -0.3619
   10MOL   H272 3350   2.624   5.794   0.667 -1.8252  1.2586 -1.0589
   10MOL   H273 3351   2.485   5.649   0.515  1.7573 -0.5224 -0.3428
   10MOL   C274 3352   2.242   5.349   0.411 -0.1039 -0.4087  0.7408
   10MOL   C275 3353   2.314   5.264   0.298  1.2665 -0.4451 -0.1015
   10MOL   C276 3354   2.226   5.223   0.179  0.2812  0.6241 -0.4558
   10MOL   C277 3355   2.151   5.105   0.197  0.2261  0.1113  0.6537
   10MOL   C278 3356   2.067   5.052   0.098 -0.3457  0.1884 -0.3002
   10MOL   C279 3357   2.056   5.117   8.055  0.1998  0.1651  1.0910
   10MOL   C280 3358   2.129   5.238   8.035 -0.0940  0.0340 -0.2716
   10MOL   C281 3359   2.206   5.296   0.060 -0.0793  0.3598  0.0223
   10MOL   O282 3360   2.353   5.147   0.365 -0.2423  0.6753  0.4850
   10MOL   H283 3361   2.185   5.282   0.474  1.3668 -2.0415  0.3717
   10MOL   H284 3362   2.166   5.415   0.370  1.2639  0.2357 -0.8474
   10MOL   H285 3363   2.403   5.321   0.271  1.2374  0.2952  1.3399
   10MOL   H286 3364   2.165   5.039   0.282 -0.9231 -0.8943  0.0795
   10MOL   H287 3365   2.009   4.961   0.110 -1.0737  1.0250  2.8592
   10MOL   H288 3366   2.007   5.074   7.969 -1.3841  4.2067 -0.1445
   10MOL   H289 3367   2.136   5.284   7.938 -1.8413  1.0845  0.0779
   10MOL   H290 3368   2.266   5.383   0.036  1.6201 -0.4665  1.1454
   10MOL   C291 3369   2.480   5.149   0.423 -0.9631 -0.3162 -0.3575
   10MOL   C292 3370   2.506   5.058   0.548  0.0355  0.2551 -0.5976
   10MOL   C293 3371   2.396   5.070   0.656  0.0662  0.0341 -0.7390
   10MOL   C294 3372   2.407   5.168   0.759 -0.0619  0.0776  0.7739
   10MOL   C295 3373   2.304   5.185   0.847 -0.0815 -0.6861 -0.2114
   10MOL   C296 3374   2.195   5.101   0.843 -1.2829  0.2582  0.4077
   10MOL   C297 3375   2.183   5.002   0.745  0.0257  0.9380  0.1435
   10MOL   C298 3376   2.282   4.986   0.647  0.6177  1.0665  0.1607
   10MOL   O299 3377   2.538   4.927   0.508 -0.0223  0.8151 -0.0283
   10MOL   H300 3378   2.501   5.254   0.446 -0.2719 -0.1205 -1.8109
   10MOL   H301 3379   2.556   5.134   0.347 -0.2598 -1.4110  0.5456
   10MOL   H302 3380   2.599   5.092   0.594 -1.4612  0.8464  2.0998
   10MOL   H303 3381   2.499   5.224   0.760  0.3674 -0.4725 -2.3751
   10MOL   H304 3382   2.313   5.255   0.929 -0.8094  0.2433 -0.9046
   10MOL   H305 3383   2.127   5.111   0.927  0.4183  3.1789  1.4950
   10MOL   H306 3384   2.090   4.947   0.741  0.5245  0.1666 -1.0646
   10MOL   H307 3385   2.287   4.899   0.582  0.9564  0.7806  0.5670
   10MOL   C308 3386   2.593   4.842   0.608 -0.3009  0.6367  0.2106
   10MOL   C309 3387   2.548   4.691   0.582  0.0890  0.1573 -0.1979
   10MOL   C310 3388   2.661   4.603   0.530 -0.1352 -0.2553  0.1489
   10MOL   C311 3389   2.667   4.577   0.388  0.3755  0.0248 -0.2131
   10MOL   C312 3390   2.770   4.490   0.332 -0.2234 -0.4303  1.0450
   10MOL   C313 3391   2.869   4.444   0.418  0.6246  0.1843  0.3237
   10MOL   C314 3392   2.864   4.478   0.556 -0.0806  0.1145  0.3201
   10MOL   C315 3393   2.762   4.554   0.612  1.2003 -0.6711  0.6932
   10MOL   O316 3394   2.493   4.637   0.700 -0.2846 -0.3000  0.2552
   10MOL   H317 3395   2.550   4.872   0.704  3.1330  0.1596  1.9550
   10MOL   H318 3396   2.699   4.862   0.616 -0.0373 -0.5326 -0.2316
   10MOL   H319 3397   2.474   4.693   0.502 -0.9993 -0.9668  0.7616
   10MOL   H320 3398   2.595   4.628   0.326 -1.4240 -1.5550  0.5434
   10MOL   H321 3399   2.780   4.458   0.229 -0.7766 -1.3787  1.2833
   10MOL   H322 3400   2.941   4.375   0.378  1.3941  1.6497 -0.8646
   10MOL   H323 3401   2.936   4.433   0.622  1.1953  0.4689 -0.8228
   10MOL   H324 3402   2.760   4.573   0.718 -0.8246  1.7250  0.2695
   10MOL   C325 3403   2.387   4.547   0.679 -0.1185 -0.1303  0.1335
   10MOL   C326 3404   2.345   4.468   0.804 -0.6548  0.8696 -0.4857
   10MOL   C327 3405   2.456   4.393   0.875  0.0541 -0.2886  0.0338
   10MOL   C328 3406   2.576   4.364   0.811  0.5230 -0.2630  0.0148
   10MOL   C329 3407   2.684   4.320   0.889  0.0583  0.2761 -0.2334
   10MOL   C330 3408   2.674   4.293   1.022 -0.1854 -0.2788  0.0774
   10MOL   C331 3409   2.551   4.325   1.089 -0.1856 -0.5576 -0.4188
   10MOL   C332 3410   2.440   4.377   1.016  0.0791 -0.1196  0.0695
   10MOL   O333 3411   2.282   4.564   0.887 -0.0072  0.3071 -0.3207
   10MOL   H334 3412   2.416   4.482   0.596  0.7837  0.5721 -0.1121
   10MOL   H335 3413   2.311   4.610   0.634  0.5939  0.4947 -0.2163
   10MOL   H336 3414   2.266   4.395   0.787 -1.1694  1.2929  0.0840
   10MOL   H337 3415   2.596   4.388   0.708  1.6736 -1.0083  0.0518
   10MOL   H338 3416   2.784   4.308   0.849  0.8150 -0.7411  1.8503
   10MOL   H339 3417   2.760   4.266   1.080 -0.0480  0.4199  0.2002
   10MOL   H340 3418   2.546   4.318   1.197 -0.7395 -2.0766 -0.5393
   10MOL   H341 3419   2.355   4.414   1.071  0.7582  0.5105  0.7294
   10MOL   H342 3420   2.355   4.622   0.900  0.8069 -0.9574  0.9443
   11MOL     C1 3421   1.566   3.437   0.671  0.2711 -0.7563  0.2157
   11MOL     C2 3422   1.636   3.300   0.641 -0.0316 -0.7112 -0.0713
   11MOL     C3 3423   1.602   3.200   0.754  0.0776  0.7513 -0.1227
   11MOL     C4 3424   1.675   3.218   0.875 -0.4008  0.6536 -0.1653
   11MOL     C5 3425   1.647   3.141   0.988 -0.3868 -0.2236  0.0684
   11MOL     C6 3426   1.557   3.036   0.987  0.1567 -0.3832  0.5379
   11MOL     C7 3427   1.482   3.016   0.867 -0.6211 -0.6793  1.2019
   11MOL     C8 3428   1.505   3.102   0.754 -0.5588 -0.1999 -0.3052
   11MOL     O9 3429   1.770   3.337   0.641  0.3352  0.5899 -0.2759
   11MOL    H10 3430   1.597   3.514   0.601  0.4865  1.0480  2.2612
   11MOL    H11 3431   1.457   3.431   0.665  0.4483 -1.9989 -2.2949
   11MOL    H12 3432   1.600   3.278   0.540 -0.5808 -0.7187  0.1247
   11MOL    H13 3433   1.741   3.302   0.889  0.8655 -0.1140 -1.4356
   11MOL    H14 3434   1.693   3.165   1.083  0.6796  0.0741 -0.5152
   11MOL    H15 3435   1.564   2.971   1.073 -1.6931 -2.3748 -0.7764
   11MOL    H16 3436   1.418   2.930   0.855 -0.1448 -0.5326 -3.0756
   11MOL    H17 3437   1.454   3.099   0.659 -1.0807  4.0210 -0.2503
   11MOL    H18 3438   1.595   3.483   0.766 -0.0717  2.1148 -1.0333
   11MOL    C19 3439   1.860   3.242   0.590 -0.2480  0.2303  0.1902
   11MOL    C20 3440   2.009   3.275   0.620 -0.1035 -0.2877  0.4241
   11MOL    C21 3441   2.049   3.412   0.563  0.6413 -0.1444  0.2768
   11MOL    C22 3442   2.055   3.533   0.636  0.1776  0.4862 -0.4171
   11MOL    C23 3443   2.105   3.650   0.586  0.0536 -0.2226  0.2196
   11MOL    C24 3444   2.155   3.654   0.457 -1.3396  0.4942 -0.4539
   11MOL    C25 3445   2.157   3.535   0.382 -0.1064 -0.7096 -0.3795
   11MOL    C26 3446   2.099   3.422   0.434  0.3214  0.0658 -0.1381
   11MOL    O27 3447   2.077   3.158   0.569 -0.0235  0.5098 -0.1319
   11MOL    H28 3448   1.839   3.150   0.644 -2.6337  2.1091  2.6336
   11MOL    H29 3449   1.844   3.223   0.484 -1.7890 -0.5056  0.5359
   11MOL    H30 3450   2.010   3.269   0.729 -0.4032 -0.5433  0.4129
   11MOL    H31 3451   2.014   3.527   0.736  0.8245 -1.6270 -0.2616
   11MOL    H32 3452   2.088   3.741   0.642  0.0638 -0.2150  0.2101
   11MOL    H33 3453   2.203   3.746   0.427 -1.3078 -0.2569 -2.8242
   11MOL    H34 3454   2.192   3.531   0.280 -0.8994  0.7546 -0.7089
   11MOL    H35 3455   2.093   3.337   0.368 -0.1185  0.4200 -0.5605
   11MOL    C36 3456   2.209   3.135   0.604 -0.3043  0.7263  1.2281
   11MOL    C37 3457   2.262   2.994   0.548 -0.1362  0.0039 -0.3308
   11MOL    C38 3458   2.393   2.958   0.619 -0.3671 -0.1521 -0.5542
   11MOL    C39 3459   2.513   3.025   0.591  0.0411  0.9658 -0.5518
   11MOL    C40 3460   2.635   3.002   0.667  0.0688 -0.9940 -0.5557
   11MOL    C41 3461   2.639   2.891   0.754 -0.9427 -0.3403  0.1156
   11MOL    C42 3462   2.514   2.826   0.781 -0.4533 -0.1583 -0.8599
   11MOL    C43 3463   2.396   2.858   0.719  0.4239 -0.3414 -0.5194
   11MOL    O44 3464   2.270   3.003   0.408 -0.3895 -0.4761 -0.1737
   11MOL    H45 3465   2.280   3.210   0.568  0.6375 -0.9211 -0.4070
   11MOL    H46 3466   2.225   3.139   0.712  0.9434 -1.0508  1.1288
   11MOL    H47 3467   2.184   2.926   0.581 -0.8626  1.8207  1.8098
   11MOL    H48 3468   2.499   3.101   0.516 -2.9422  0.7629 -0.2407
   11MOL    H49 3469   2.720   3.063   0.643 -0.1899  0.0928  1.2286
   11MOL    H50 3470   2.730   2.870   0.807 -1.7492  2.4181  2.6891
   11MOL    H51 3471   2.523   2.752   0.859 -1.9016  1.4499  0.8840
   11MOL    H52 3472   2.311   2.802   0.756  0.4726  0.8457  1.4468
   11MOL    C53 3473   2.288   2.883   0.346 -0.1770  0.0160  0.2414
   11MOL    C54 3474   2.153   2.830   0.311  0.3394 -0.2310  0.1784
   11MOL    C55 3475   2.089   2.905   0.196  0.5768 -0.4491  0.5253
   11MOL    C56 3476   2.130   2.873   0.065  0.7065  0.2849  0.4298
   11MOL    C57 3477   2.094   2.965   8.040 -0.7494  0.4899  1.2122
   11MOL    C58 3478   2.008   3.076   8.057  0.0809 -0.2717  0.0520
   11MOL    C59 3479   1.975   3.112   0.110  0.6550 -0.8589 -0.0211
   11MOL    C60 3480   2.003   3.024   0.220 -0.0079 -0.0917  0.2249
   11MOL    O61 3481   2.165   2.694   0.290  0.4405 -0.1895 -0.4203
   11MOL    H62 3482   2.351   2.904   0.260 -0.5771  1.9425  0.4048
   11MOL    H63 3483   2.340   2.802   0.398 -0.7515 -0.8477 -0.5128
   11MOL    H64 3484   2.080   2.853   0.389 -1.1931 -3.8953 -0.0696
   11MOL    H65 3485   2.200   2.793   0.048 -0.7855 -0.7714 -0.9118
   11MOL    H66 3486   2.156   2.951   7.953  0.5190 -0.2225  2.2028
   11MOL    H67 3487   1.983   3.143   7.976 -1.1938  0.8217  1.3327
   11MOL    H68 3488   1.924   3.203   0.137  1.7034 -0.7499  1.6857
   11MOL    H69 3489   1.977   3.051   0.321  1.1596  0.4522  0.3841
   11MOL    C70 3490   2.034   2.618   0.295 -0.2977 -0.8927 -0.1823
   11MOL    C71 3491   2.066   2.465   0.311 -0.5541  0.0023  0.1889
   11MOL    C72 3492   1.931   2.393   0.331  0.4161 -0.2990  0.1479
   11MOL    C73 3493   1.852   2.341   0.230  0.0892 -0.2439 -0.0166
   11MOL    C74 3494   1.726   2.285   0.248 -0.1448  0.3157 -0.6848
   11MOL    C75 3495   1.669   2.299   0.375  0.8750 -0.3836 -0.4023
   11MOL    C76 3496   1.736   2.352   0.484 -0.4201  0.3921 -0.2626
   11MOL    C77 3497   1.869   2.401   0.464  0.9640  0.1041  0.0445
   11MOL    O78 3498   2.160   2.458   0.423 -0.2396  0.1809 -0.1818
   11MOL    H79 3499   1.966   2.646   0.376 -0.9580  0.3028 -1.1323
   11MOL    H80 3500   1.976   2.642   0.206  0.8799 -0.2117 -0.7797
   11MOL    H81 3501   2.122   2.435   0.222 -1.3044  0.6077 -0.4930
   11MOL    H82 3502   1.896   2.346   0.131  1.7709  1.0315  0.7765
   11MOL    H83 3503   1.669   2.253   0.162  1.0365 -0.2817 -1.2652
   11MOL    H84 3504   1.567   2.265   0.382  0.6198  0.3118 -0.7238
   11MOL    H85 3505   1.688   2.370   0.579 -0.0354  1.1336 -0.2024
   11MOL    H86 3506   1.922   2.446   0.547 -0.0101 -0.6637  1.1102
   11MOL    C87 3507   2.236   2.337   0.421 -0.1389 -0.6979  0.5540
   11MOL    C88 3508   2.344   2.352   0.533 -0.1627 -0.9565  0.2778
   11MOL    C89 3509   2.453   2.250   0.519  0.1144 -0.1835  0.2704
   11MOL    C90 3510   2.455   2.127   0.582  0.0037  0.2689  0.5420
   11MOL    C91 3511   2.562   2.035   0.564 -0.8776 -0.0838 -0.3148
   11MOL    C92 3512   2.666   2.070   0.474  0.5187 -0.5053 -0.3323
   11MOL    C93 3513   2.658   2.190   0.404  0.5165 -0.5780  0.0575
   11MOL    C94 3514   2.554   2.281   0.421  0.4977 -0.2303  0.5472
   11MOL    O95 3515   2.274   2.337   0.657  0.3160 -0.2131  0.9584
   11MOL    H96 3516   2.287   2.330   0.325 -0.1204  1.5060  0.3831
   11MOL    H97 3517   2.172   2.252   0.445  3.3920 -4.0565 -1.2424
   11MOL    H98 3518   2.384   2.452   0.518  0.9090 -1.5529 -0.8987
   11MOL    H99 3519   2.373   2.096   0.646 -0.3538  1.8464  0.8878
   11MOL   H100 3520   2.554   1.942   0.619 -1.0310  0.2451  0.2190
   11MOL   H101 3521   2.736   1.996   0.438  0.2837 -0.8639 -0.0534
   11MOL   H102 3522   2.740   2.201   0.334 -0.6168  0.2140 -1.1572
   11MOL   H103 3523   2.560   2.380   0.377  1.2274  0.3946  2.0228
   11MOL   C104 3524   2.349   2.380   0.771 -0.0239 -0.6756 -0.1281
   11MOL   C105 3525   2.258   2.336   0.890 -0.5536 -0.5142  0.3032
   11MOL   C106 3526   2.259   2.179   0.908  0.2016  0.0015  0.7292
   11MOL   C107 3527   2.131   2.109   0.909 -0.3076  0.4862 -0.0256
   11MOL   C108 3528   2.127   1.966   0.920  1.3356 -0.1384  0.4964
   11MOL   C109 3529   2.246   1.891   0.937 -0.2245  0.4807 -0.4059
   11MOL   C110 3530   2.367   1.962   0.949 -0.5000  0.6552  1.0314
   11MOL   C111 3531   2.376   2.100   0.929  0.0073  0.0965  0.8837
   11MOL   O112 3532   2.325   2.394   0.991  0.7111  0.2763 -0.1586
   11MOL   H113 3533   2.449   2.340   0.786  0.1736 -0.1650 -0.0713
   11MOL   H114 3534   2.357   2.488   0.765  0.2504 -0.8067 -2.6221
   11MOL   H115 3535   2.158   2.377   0.885  0.4680  2.8378  4.9513
   11MOL   H116 3536   2.040   2.166   0.900  0.1292  1.3419  0.7622
   11MOL   H117 3537   2.037   1.907   0.929  1.9823 -0.7024  3.8557
   11MOL   H118 3538   2.248   1.783   0.936 -1.8446  0.4268  0.4253
   11MOL   H119 3539   2.450   1.893   0.962  1.7315  3.1793  0.7170
   11MOL   H120 3540   2.466   2.157   0.944 -0.3272  0.5056  1.3515
   11MOL   C121 3541   2.246   2.433   1.099 -0.4323  0.3239 -1.1909
   11MOL   C122 3542   2.217   2.581   1.066  0.0033  0.2364 -0.7567
   11MOL   C123 3543   2.076   2.607   1.015  0.1879 -0.1034 -0.0577
   11MOL   C124 3544   2.052   2.649   0.884  0.4416 -0.5422  0.8295
   11MOL   C125 3545   1.929   2.693   0.842 -0.8412  0.2641 -0.2701
   11MOL   C126 3546   1.818   2.678   0.928 -0.7790 -0.2085  0.1609
   11MOL   C127 3547   1.839   2.635   1.065  0.7252 -0.7549 -0.1205
   11MOL   C128 3548   1.971   2.602   1.108  0.1839  0.3138  0.4039
   11MOL   O129 3549   2.242   2.657   1.180 -0.0751 -0.0956  0.2120
   11MOL   H130 3550   2.301   2.424   1.193  1.5307 -0.4608 -2.3818
   11MOL   H131 3551   2.167   2.362   1.121  0.5998 -0.3223  0.5482
   11MOL   H132 3552   2.289   2.609   0.989  1.7122 -1.9814 -0.0460
   11MOL   H133 3553   2.132   2.656   0.812 -0.2408 -0.7086  0.0477
   11MOL   H134 3554   1.907   2.732   0.744 -0.1839  1.0581 -0.1063
   11MOL   H135 3555   1.726   2.710   0.881  0.3889  1.4418 -1.0295
   11MOL   H136 3556   1.758   2.627   1.136 -0.0061  0.5368 -0.7907
   11MOL   H137 3557   1.987   2.576   1.212  0.1038 -1.5225 -0.0275
   11MOL   C138 3558   2.376   2.701   1.203  0.4064  0.3074  0.2719
   11MOL   C139 3559   2.401   2.728   1.357 -0.6297 -0.1876  0.6970
   11MOL   C140 3560   2.306   2.840   1.403 -0.6463 -0.0604 -0.4365
   11MOL   C141 3561   2.195   2.802   1.479  0.3663  0.0568 -0.2874
   11MOL   C142 3562   2.103   2.905   1.528  0.8834  0.0838 -0.7499
   11MOL   C143 3563   2.124   3.038   1.496  0.4189 -0.3934 -0.1609
   11MOL   C144 3564   2.235   3.072   1.408 -0.4650 -0.3644 -0.3540
   11MOL   C145 3565   2.331   2.974   1.371  0.0685 -0.3180  0.2316
   11MOL   O146 3566   2.383   2.604   1.432 -0.1129  0.5104 -0.5731
   11MOL   H147 3567   2.396   2.799   1.159 -3.2702  1.1514  0.2579
   11MOL   H148 3568   2.455   2.633   1.171 -0.2595 -0.6544  0.6517
   11MOL   H149 3569   2.507   2.751   1.369 -0.5813 -0.4081  0.6788
   11MOL   H150 3570   2.179   2.699   1.504  2.7493  0.1252  1.7609
   11MOL   H151 3571   2.016   2.864   1.577  0.2644  1.3449 -0.7749
   11MOL   H152 3572   2.045   3.107   1.521 -0.0735 -1.0114  0.0222
   11MOL   H153 3573   2.246   3.176   1.380 -0.6794 -0.9115 -2.5553
   11MOL   H154 3574   2.421   3.012   1.326 -0.1662  0.1569  0.1663
   11MOL   C155 3575   2.491   2.511   1.422 -0.1182  0.4029  0.4106
   11MOL   C156 3576   2.471   2.375   1.507 -0.3476  0.0860 -0.0245
   11MOL   C157 3577   2.365   2.285   1.447  0.2007  0.3440  0.5526
   11MOL   C158 3578   2.397   2.177   1.367  0.6408 -0.1568  0.9354
   11MOL   C159 3579   2.298   2.107   1.283 -0.1633 -0.2893 -0.6746
   11MOL   C160 3580   2.165   2.141   1.309  0.1691  0.1778  0.4775
   11MOL   C161 3581   2.129   2.250   1.394 -0.2903 -0.1801  1.1419
   11MOL   C162 3582   2.229   2.321   1.460 -0.5232  0.0513 -0.1198
   11MOL   O163 3583   2.599   2.312   1.522 -0.0204 -0.4197 -0.2073
   11MOL   H164 3584   2.588   2.554   1.446 -0.9959  1.4913  2.0828
   11MOL   H165 3585   2.514   2.475   1.322 -0.8143  0.9340  0.0477
   11MOL   H166 3586   2.431   2.396   1.606  0.2086 -1.0397  0.4421
   11MOL   H167 3587   2.501   2.150   1.357  1.3063  1.9475  1.7967
   11MOL   H168 3588   2.320   2.021   1.221  1.8031 -0.5607  0.3509
   11MOL   H169 3589   2.094   2.079   1.256  1.3138  0.6025 -1.6159
   11MOL   H170 3590   2.026   2.282   1.405 -0.8350 -1.3685 -0.3365
   11MOL   H171 3591   2.203   2.409   1.517  1.0822  1.2654 -1.2033
   11MOL   C172 3592   2.607   2.218   1.633  0.4813 -0.1942 -0.3988
   11MOL   C173 3593   2.658   2.288   1.758  0.1664  0.5248 -0.0859
   11MOL   C174 3594   2.785   2.362   1.721 -0.3360 -0.2777 -0.3560
   11MOL   C175 3595   2.772   2.498   1.685 -0.0402  0.2327 -0.0388
   11MOL   C176 3596   2.882   2.576   1.640  1.0374  0.3421  0.5255
   11MOL   C177 3597   3.006   2.518   1.633  0.3733  0.1990  0.2304
   11MOL   C178 3598   3.026   2.379   1.667  0.3832  0.4870 -0.3809
   11MOL   C179 3599   2.917   2.302   1.712 -0.0221  0.0485  0.0199
   11MOL   O180 3600   2.679   2.196   1.863  0.3163 -0.5710  0.6426
   11MOL   H181 3601   2.516   2.160   1.648 -0.7997  2.0974  0.9794
   11MOL   H182 3602   2.678   2.139   1.612 -1.8138 -2.1150 -1.1648
   11MOL   H183 3603   2.587   2.362   1.794 -3.0453 -1.7852 -1.4369
   11MOL   H184 3604   2.682   2.555   1.701 -0.7848 -1.2717  1.2633
   11MOL   H185 3605   2.874   2.683   1.623 -2.5412 -0.3460 -2.9031
   11MOL   H186 3606   3.091   2.576   1.601  1.7014 -1.8522 -0.0910
   11MOL   H187 3607   3.124   2.338   1.649  0.4362 -0.6042  2.2429
   11MOL   H188 3608   2.931   2.195   1.724 -0.2339 -0.4853 -3.8179
   11MOL   C189 3609   2.553   2.168   1.934  0.2382  0.1964 -0.0133
   11MOL   C190 3610   2.563   2.222   2.074 -0.1016  0.0236 -0.3988
   11MOL   C191 3611   2.447   2.166   2.158  0.5493 -0.8027 -0.1937
   11MOL   C192 3612   2.439   2.028   2.188 -0.3628 -0.1045  0.0278
   11MOL   C193 3613   2.331   1.974   2.260 -0.0455  0.5557  0.6606
   11MOL   C194 3614   2.228   2.064   2.293  0.4061  0.2704 -0.0679
   11MOL   C195 3615   2.233   2.197   2.267 -0.7218  0.0422 -0.0126
   11MOL   C196 3616   2.343   2.252   2.198  0.4509 -0.1065 -0.8898
   11MOL   O197 3617   2.566   2.362   2.060 -0.9367  0.0515 -0.1864
   11MOL   H198 3618   2.460   2.197   1.885  0.0616 -0.7889 -0.2736
   11MOL   H199 3619   2.537   2.061   1.950 -3.0519  0.7490  0.7914
   11MOL   H200 3620   2.656   2.182   2.114 -0.9058 -0.3611  1.1216
   11MOL   H201 3621   2.521   1.960   2.167  0.8838  1.4291 -0.1424
   11MOL   H202 3622   2.325   1.868   2.281 -1.1998  0.6967  1.0963
   11MOL   H203 3623   2.143   2.022   2.345  0.7109 -0.5918 -0.2676
   11MOL   H204 3624   2.153   2.261   2.302  0.1584  0.6404  0.9329
   11MOL   H205 3625   2.340   2.359   2.183 -0.1880  0.3107  1.8893
   11MOL   C206 3626   2.678   2.427   2.127 -0.3632 -0.0961  0.4638
   11MOL   C207 3627   2.679   2.571   2.089  0.0450 -0.0948  0.2428
   11MOL   C208 3628   2.820   2.622   2.116  0.3110  0.1806 -0.6272
   11MOL   C209 3629   2.852   2.669   2.249  0.5981  0.5559  0.3325
   11MOL   C210 3630   2.985   2.725   2.267 -0.2734 -0.0293  0.2211
   11MOL   C211 3631   3.081   2.731   2.166 -0.1342 -0.3316  0.1405
   11MOL   C212 3632   3.054   2.669   2.041  0.1552 -0.5511  0.6274
   11MOL   C213 3633   2.927   2.613   2.020 -0.5052  0.0829 -0.4382
   11MOL   O214 3634   2.572   2.642   2.157  0.2473 -0.0988  0.4320
   11MOL   H215 3635   2.662   2.412   2.234 -0.1792 -0.4688  0.4405
   11MOL   H216 3636   2.770   2.375   2.101 -0.6725 -1.1211  1.4030
   11MOL   H217 3637   2.661   2.586   1.983  3.6718  1.2239 -0.2428
   11MOL   H218 3638   2.788   2.647   2.333  1.6688  0.0574  1.0361
   11MOL   H219 3639   3.002   2.771   2.364  0.1200 -2.2099  1.2146
   11MOL   H220 3640   3.180   2.768   2.186 -0.2817 -0.3372  0.8981
   11MOL   H221 3641   3.140   2.657   1.977  0.1569  0.2600  0.4635
   11MOL   H222 3642   2.908   2.560   1.929 -0.1851 -2.1772  0.7739
   11MOL   C223 3643   2.526   2.764   2.116 -0.1932 -0.2735 -0.5576
   11MOL   C224 3644   2.419   2.825   2.213  0.0386  0.5101  0.3680
   11MOL   C225 3645   2.331   2.722   2.291 -0.6305  0.0740 -0.3810
   11MOL   C226 3646   2.244   2.643   2.215 -0.0596  0.3000  0.0022
   11MOL   C227 3647   2.168   2.543   2.277 -0.8392  0.1444 -0.2287
   11MOL   C228 3648   2.181   2.522   2.420  1.2839 -0.1589 -0.1115
   11MOL   C229 3649   2.264   2.611   2.497 -0.3730 -0.3397  0.0128
   11MOL   C230 3650   2.338   2.708   2.433 -0.4496 -0.1282 -0.6252
   11MOL   O231 3651   2.485   2.922   2.305 -0.3196 -0.4487  0.6145
   11MOL   H232 3652   2.604   2.838   2.101  1.6470 -2.2427 -0.9768
   11MOL   H233 3653   2.493   2.745   2.014 -0.2620 -0.3891 -0.5147
   11MOL   H234 3654   2.349   2.878   2.149 -1.9572 -0.6277  1.5522
   11MOL   H235 3655   2.245   2.644   2.107 -1.6612  3.3380 -0.0423
   11MOL   H236 3656   2.102   2.480   2.220 -1.2059  0.0311  0.3167
   11MOL   H237 3657   2.129   2.446   2.477  0.4508  0.5240  0.0371
   11MOL   H238 3658   2.266   2.590   2.603 -1.7112  2.1497  0.5599
   11MOL   H239 3659   2.407   2.767   2.491 -1.4339  2.0317 -1.5822
   11MOL   C240 3660   2.475   3.056   2.264 -0.6813 -0.1229 -0.1336
   11MOL   C241 3661   2.579   3.148   2.333  0.4245  0.4491 -0.1541
   11MOL   C242 3662   2.627   3.248   2.237  0.4898  0.3774 -0.0585
   11MOL   C243 3663   2.706   3.214   2.120  0.2626  0.1997  0.2196
   11MOL   C244 3664   2.736   3.308   2.029  0.6333  0.2185  0.3825
   11MOL   C245 3665   2.693   3.442   2.050 -0.2695  0.0578  0.0859
   11MOL   C246 3666   2.621   3.481   2.161  0.4052  0.3029  0.5593
   11MOL   C247 3667   2.587   3.383   2.255  0.1674  0.3302  0.1192
   11MOL   O248 3668   2.543   3.206   2.458  0.3835 -0.9076  0.1582
   11MOL   H249 3669   2.500   3.064   2.158 -0.4804  3.9645  0.1379
   11MOL   H250 3670   2.375   3.100   2.269 -1.4316 -1.8616  0.6219
   11MOL   H251 3671   2.665   3.083   2.351 -0.1533 -0.1276  0.5421
   11MOL   H252 3672   2.730   3.109   2.109 -1.2808 -0.2424  0.9147
   11MOL   H253 3673   2.806   3.276   1.954 -0.1681  0.3573 -0.4394
   11MOL   H254 3674   2.717   3.522   1.982 -1.6675  0.8919  0.5643
   11MOL   H255 3675   2.580   3.580   2.174  0.8566  0.5537  0.0883
   11MOL   H256 3676   2.534   3.416   2.343 -2.6525 -1.0391 -1.0127
   11MOL   C257 3677   2.447   3.143   2.544 -0.0337  0.6488  0.4550
   11MOL   C258 3678   2.400   3.238   2.655 -0.3481  0.6674  0.2051
   11MOL   C259 3679   2.331   3.360   2.605 -0.5247 -0.1894 -0.0702
   11MOL   C260 3680   2.406   3.473   2.577  0.0082 -0.6513 -0.5533
   11MOL   C261 3681   2.336   3.600   2.555  0.0616 -0.1856  0.1473
   11MOL   C262 3682   2.194   3.605   2.531 -0.7504 -1.1016  0.7470
   11MOL   C263 3683   2.122   3.479   2.546 -0.1436 -0.1982 -0.1190
   11MOL   C264 3684   2.188   3.364   2.583  0.0481 -0.1693 -0.0331
   11MOL   O265 3685   2.498   3.259   2.757 -0.3397 -0.1260 -0.0735
   11MOL   H266 3686   2.485   3.056   2.597 -0.2290  0.3619  0.1346
   11MOL   H267 3687   2.364   3.111   2.480  0.7600 -0.3480 -0.0824
   11MOL   H268 3688   2.324   3.176   2.702 -0.0036 -0.4147 -0.6124
   11MOL   H269 3689   2.512   3.469   2.592 -0.1415  0.0239  0.6821
   11MOL   H270 3690   2.402   3.685   2.551 -1.2670  0.9188  1.0525
   11MOL   H271 3691   2.150   3.695   2.493 -0.1447 -1.3217 -0.4951
   11MOL   H272 3692   2.015   3.481   2.529 -0.3621 -1.1879  1.0441
   11MOL   H273 3693   2.136   3.269   2.581 -0.8531  0.3349 -1.1166
   11MOL   C274 3694   2.435   3.281   2.882 -0.0039 -0.5966 -0.0795
   11MOL   C275 3695   2.544   3.313   2.982 -0.2525 -0.7540  0.1705
   11MOL   C276 3696   2.616   3.186   3.043 -0.1414  0.9827 -0.5951
   11MOL   C277 3697   2.652   3.083   2.950 -0.0881 -0.1763 -0.7498
   11MOL   C278 3698   2.703   2.964   3.000 -0.3138 -0.3483 -0.0911
   11MOL   C279 3699   2.731   2.955   3.142 -0.8379  0.1224 -0.0739
   11MOL   C280 3700   2.697   3.058   3.231  0.9498 -0.3452  0.7461
   11MOL   C281 3701   2.625   3.168   3.182 -0.0877 -0.4456  0.1935
   11MOL   O282 3702   2.493   3.404   3.079 -0.1569  0.2032 -0.2037
   11MOL   H283 3703   2.376   3.372   2.869 -0.3049 -0.8503 -0.5162
   11MOL   H284 3704   2.384   3.196   2.930  1.5629  0.7407  4.2096
   11MOL   H285 3705   2.623   3.359   2.923 -0.8912  1.7296  1.1485
   11MOL   H286 3706   2.637   3.095   2.843  0.0027  1.0545 -0.6223
   11MOL   H287 3707   2.735   2.886   2.933 -0.1692 -1.6846  1.4849
   11MOL   H288 3708   2.772   2.861   3.177 -0.6541  0.2533  0.0581
   11MOL   H289 3709   2.705   3.054   3.338  2.3243  0.5581  0.6769
   11MOL   H290 3710   2.571   3.234   3.248  1.2542 -0.3725  1.2556
   11MOL   C291 3711   2.587   3.500   3.120 -1.0575 -0.4303  0.6081
   11MOL   C292 3712   2.586   3.622   3.022 -0.5347  0.0930  0.7020
   11MOL   C293 3713   2.456   3.692   3.008  0.2312 -0.1558 -0.6745
   11MOL   C294 3714   2.374   3.718   3.118  1.0579 -0.0230 -0.7993
   11MOL   C295 3715   2.260   3.800   3.104  0.3263  0.0991 -0.4044
   11MOL   C296 3716   2.215   3.840   2.977 -0.3574  0.1514  0.2924
   11MOL   C297 3717   2.294   3.814   2.861 -0.4308 -0.3311  0.4454
   11MOL   C298 3718   2.410   3.735   2.876 -0.3035 -0.4722  0.4024
   11MOL   O299 3719   2.680   3.728   3.055 -0.0582 -0.1474  0.4761
   11MOL   H300 3720   2.689   3.462   3.125 -0.1299  1.8815 -0.4077
   11MOL   H301 3721   2.568   3.533   3.223 -0.0270 -1.3402  1.0911
   11MOL   H302 3722   2.608   3.586   2.922  2.7131  0.4041  1.2370
   11MOL   H303 3723   2.408   3.697   3.219 -0.0428  1.6295 -0.0582
   11MOL   H304 3724   2.201   3.814   3.193 -1.1845 -1.5932 -1.0875
   11MOL   H305 3725   2.126   3.902   2.969 -1.2876 -1.2983 -0.9441
   11MOL   H306 3726   2.265   3.842   2.761  1.3099 -1.8040 -0.5053
   11MOL   H307 3727   2.467   3.712   2.788 -0.5606  3.4389 -0.8688
   11MOL   C308 3728   2.814   3.703   3.007  0.1467  0.2410 -0.4106
   11MOL   C309 3729   2.920   3.809   3.055  0.5234  0.3705 -0.4030
   11MOL   C310 3730   2.903   3.937   2.973 -0.2560  0.8746  0.4207
   11MOL   C311 3731   2.802   4.030   3.000  0.0726 -0.6655 -0.0817
   11MOL   C312 3732   2.802   4.153   2.921  0.1104 -0.1336 -0.6634
   11MOL   C313 3733   2.903   4.183   2.833 -0.4166 -0.1997  0.3046
   11MOL   C314 3734   2.996   4.088   2.805  0.5043  0.1216 -0.2468
   11MOL   C315 3735   2.998   3.968   2.872  0.0178 -0.7521  0.3652
   11MOL   O316 3736   2.890   3.826   3.194 -0.0022 -0.1293  0.6661
   11MOL   H317 3737   2.812   3.707   2.898 -0.4965  0.6677 -0.3880
   11MOL   H318 3738   2.860   3.608   3.035  0.3665  0.8367  1.3604
   11MOL   H319 3739   3.019   3.767   3.035 -0.2182 -1.9569  0.6145
   11MOL   H320 3740   2.732   4.008   3.079  1.3526  2.3595  1.9786
   11MOL   H321 3741   2.723   4.225   2.939 -1.4193 -1.8989 -0.1330
   11MOL   H322 3742   2.910   4.280   2.786  1.1658 -1.4024 -2.0995
   11MOL   H323 3743   3.076   4.106   2.735  1.6491  0.4392  1.1130
   11MOL   H324 3744   3.073   3.894   2.848 -0.7264 -1.8434  1.3539
   11MOL   C325 3745   2.970   3.923   3.258  0.9850  0.0426 -0.7527
   11MOL   C326 3746   2.914   3.946   3.397 -0.6478 -0.8071  0.0127
   11MOL   C327 3747   2.784   4.029   3.386 -0.2810 -0.6554  0.1753
   11MOL   C328 3748   2.778   4.167   3.418 -0.9497  0.1392 -0.3824
   11MOL   C329 3749   2.663   4.240   3.408 -0.0779  0.1778  0.3312
   11MOL   C330 3750   2.543   4.178   3.379 -0.5163 -0.2118  0.3164
   11MOL   C331 3751   2.546   4.042   3.337  0.0029  0.2095  0.2927
   11MOL   C332 3752   2.662   3.972   3.345 -0.7338  0.2281  0.4646
   11MOL   O333 3753   2.908   3.817   3.449 -0.5675 -0.3279  0.8458
   11MOL   H334 3754   2.983   4.017   3.204  2.9332 -0.1269 -0.6404
   11MOL   H335 3755   3.068   3.875   3.258  0.7251 -0.4890 -0.2419
   11MOL   H336 3756   2.992   3.996   3.454 -0.6291  0.4001 -1.0459
   11MOL   H337 3757   2.870   4.220   3.435 -1.3729  0.8222 -0.1664
   11MOL   H338 3758   2.670   4.347   3.425  2.1868 -0.1122  1.4252
   11MOL   H339 3759   2.456   4.240   3.367 -0.0824  0.4737  0.6750
   11MOL   H340 3760   2.457   3.991   3.305 -1.3869  1.9841  1.2603
   11MOL   H341 3761   2.654   3.868   3.318  1.5130 -0.0908  0.9009
   11MOL   H342 3762   2.856   3.772   3.383 -1.9943  1.6441  0.5792
   12MOL     C1 3763   4.510   4.013   5.835  0.3402  0.3543  0.6710
   12MOL     C2 3764   4.595   4.127   5.901  0.1893 -0.8398 -0.4338
   12MOL     C3 3765   4.612   4.105   6.052 -0.3973  0.2050  0.3254
   12MOL     C4 3766   4.506   4.112   6.144  0.0934  0.5707 -0.0802
   12MOL     C5 3767   4.526   4.066   6.279  0.3186  0.6064  0.4486
   12MOL     C6 3768   4.653   4.030   6.327  0.1650 -0.2397 -0.5520
   12MOL     C7 3769   4.759   4.047   6.245  0.0478 -0.5356 -0.2894
   12MOL     C8 3770   4.743   4.081   6.112  0.2218  0.5757 -0.2364
   12MOL     O9 3771   4.536   4.255   5.867  0.5967  0.0446 -0.4018
   12MOL    H10 3772   4.521   4.006   5.726  0.3782  0.3262  0.6763
   12MOL    H11 3773   4.547   3.915   5.867  2.6654  1.5897  1.9083
   12MOL    H12 3774   4.693   4.118   5.852 -0.1918  2.7993 -1.9859
   12MOL    H13 3775   4.407   4.141   6.114  0.1780 -1.9504 -2.9850
   12MOL    H14 3776   4.439   4.060   6.342  1.7512 -0.6522  2.3446
   12MOL    H15 3777   4.661   3.994   6.429 -0.7221 -0.2231 -0.4705
   12MOL    H16 3778   4.859   4.040   6.285 -0.2393  0.6721  0.6425
   12MOL    H17 3779   4.831   4.086   6.050  0.3654  0.4204 -0.0471
   12MOL    H18 3780   4.408   4.039   5.861  0.4717  0.8634  0.6821
   12MOL    C19 3781   4.624   4.372   5.870  0.1499  0.4179 -0.2515
   12MOL    C20 3782   4.544   4.491   5.827 -0.0009  0.2351 -0.3823
   12MOL    C21 3783   4.420   4.521   5.915  0.3011  1.2092  0.3302
   12MOL    C22 3784   4.444   4.576   6.038  0.6216  0.4745  0.0127
   12MOL    C23 3785   4.342   4.605   6.122  0.5099 -0.1061  0.0623
   12MOL    C24 3786   4.208   4.583   6.081  0.0227  0.0880  0.5491
   12MOL    C25 3787   4.175   4.528   5.952  0.1691 -0.5314  0.6797
   12MOL    C26 3788   4.286   4.497   5.871 -0.0994  0.6368  0.6253
   12MOL    O27 3789   4.504   4.480   5.690  0.5869  0.4914  0.1546
   12MOL    H28 3790   4.660   4.394   5.971  2.2220  1.8369 -1.2701
   12MOL    H29 3791   4.713   4.361   5.808  1.5477  0.8168  1.6199
   12MOL    H30 3792   4.602   4.583   5.834 -0.8188  0.6459  1.1771
   12MOL    H31 3793   4.546   4.594   6.070  0.5352  2.3411 -0.6832
   12MOL    H32 3794   4.359   4.638   6.223  0.4717  2.1779 -0.6434
   12MOL    H33 3795   4.134   4.610   6.155  1.7179  0.4510  2.1733
   12MOL    H34 3796   4.076   4.508   5.914 -0.3976  0.0889  1.8103
   12MOL    H35 3797   4.264   4.469   5.769  0.9891  0.6825  0.3683
   12MOL    C36 3798   4.591   4.532   5.593  0.3318 -0.2111 -0.0686
   12MOL    C37 3799   4.533   4.507   5.451 -0.5662  0.1226 -0.1258
   12MOL    C38 3800   4.378   4.524   5.450 -0.3956 -0.5683 -0.2761
   12MOL    C39 3801   4.291   4.430   5.502 -0.1923 -0.6183  0.5001
   12MOL    C40 3802   4.153   4.443   5.475  0.6060 -0.6072  0.3238
   12MOL    C41 3803   4.098   4.551   5.398 -0.8185  0.4447 -0.2391
   12MOL    C42 3804   4.184   4.645   5.340  0.3239  0.4027 -0.3159
   12MOL    C43 3805   4.326   4.631   5.370 -0.1024 -0.3268  0.4993
   12MOL    O44 3806   4.570   4.376   5.408  0.2849  0.6384  0.5306
   12MOL    H45 3807   4.607   4.639   5.606 -0.4483  0.1799 -2.1701
   12MOL    H46 3808   4.692   4.494   5.611  1.0983  1.6346 -0.3871
   12MOL    H47 3809   4.581   4.577   5.383 -0.6300 -0.7807 -1.1261
   12MOL    H48 3810   4.328   4.339   5.548  2.0400  0.5627  1.1276
   12MOL    H49 3811   4.088   4.367   5.517  2.4713 -2.3732  0.1178
   12MOL    H50 3812   3.990   4.561   5.391 -0.6300  0.8310 -3.8924
   12MOL    H51 3813   4.149   4.723   5.275 -0.2606 -1.5560 -2.3927
   12MOL    H52 3814   4.396   4.703   5.330 -0.4914 -1.3854 -2.1715
   12MOL    C53 3815   4.576   4.353   5.268  0.5119 -0.1827 -0.2259
   12MOL    C54 3816   4.611   4.203   5.242 -0.3966 -0.0194 -0.6203
   12MOL    C55 3817   4.558   4.150   5.104 -0.5525 -0.4563 -0.0517
   12MOL    C56 3818   4.421   4.131   5.093  0.0353 -0.3116  0.6146
   12MOL    C57 3819   4.359   4.080   4.974 -0.1580 -0.3543 -0.8532
   12MOL    C58 3820   4.442   4.068   4.861 -0.0735 -0.6966 -0.0675
   12MOL    C59 3821   4.586   4.093   4.871 -0.4180 -0.1700 -0.1150
   12MOL    C60 3822   4.641   4.134   4.993 -0.8814  0.4509  0.4556
   12MOL    O61 3823   4.751   4.186   5.264 -0.3202 -0.0469 -0.3283
   12MOL    H62 3824   4.476   4.385   5.238  0.4564  0.3300  0.4903
   12MOL    H63 3825   4.643   4.418   5.213  0.9367  0.1333  0.6504
   12MOL    H64 3826   4.560   4.146   5.319  0.3337 -0.2842 -0.3333
   12MOL    H65 3827   4.358   4.159   5.176 -1.6087 -2.7666  0.2489
   12MOL    H66 3828   4.252   4.063   4.976 -0.0122 -1.2711 -0.5467
   12MOL    H67 3829   4.402   4.039   4.765  1.9683  1.2678 -1.5884
   12MOL    H68 3830   4.645   4.075   4.782  1.3501 -1.1169  1.2241
   12MOL    H69 3831   4.747   4.154   4.990 -0.9131  0.9218  1.8184
   12MOL    C70 3832   4.795   4.188   5.401 -0.7824  0.4705 -0.6684
   12MOL    C71 3833   4.939   4.231   5.426 -0.6165 -0.1213  0.3962
   12MOL    C72 3834   4.976   4.195   5.567  1.2860 -0.2381 -0.1590
   12MOL    C73 3835   4.947   4.271   5.677  0.2742  0.5588 -0.0618
   12MOL    C74 3836   4.981   4.224   5.808  0.2511  0.3481  0.0635
   12MOL    C75 3837   5.040   4.094   5.827  0.3405  0.2409  0.3639
   12MOL    C76 3838   5.085   4.026   5.710 -0.2453 -0.0615  0.2622
   12MOL    C77 3839   5.046   4.074   5.585 -0.5123 -0.0899 -0.0241
   12MOL    O78 3840   4.934   4.368   5.410  0.3712  0.1608  0.3739
   12MOL    H79 3841   4.725   4.237   5.468 -0.7689  0.3011 -0.5291
   12MOL    H80 3842   4.782   4.084   5.429 -0.5160  0.7217  0.3783
   12MOL    H81 3843   5.009   4.178   5.362 -1.1581 -1.6567  1.0432
   12MOL    H82 3844   4.901   4.367   5.663  0.0480  0.4945  0.2428
   12MOL    H83 3845   4.950   4.269   5.901  0.4540 -1.4604  1.0367
   12MOL    H84 3846   5.047   4.054   5.927  0.1196  0.6458  0.5435
   12MOL    H85 3847   5.135   3.931   5.715 -0.6406 -0.1916  2.0129
   12MOL    H86 3848   5.093   4.026   5.501 -1.1909 -2.0227  0.6719
   12MOL    C87 3849   5.044   4.434   5.353 -0.4302  0.2580 -0.8880
   12MOL    C88 3850   5.042   4.580   5.389 -1.2088  0.2780 -0.5952
   12MOL    C89 3851   5.029   4.597   5.541 -0.5285 -0.4967  0.4981
   12MOL    C90 3852   5.110   4.537   5.637 -0.1868  0.3438 -0.1926
   12MOL    C91 3853   5.095   4.561   5.771 -0.8281  0.8888  0.1904
   12MOL    C92 3854   4.995   4.647   5.814 -0.5248  0.2994  0.5148
   12MOL    C93 3855   4.922   4.724   5.725 -0.4311  0.0529 -0.5532
   12MOL    C94 3856   4.942   4.699   5.590  0.1562 -0.0283 -0.1995
   12MOL    O95 3857   4.958   4.660   5.313  0.2039 -0.0332 -0.1373
   12MOL    H96 3858   5.048   4.410   5.247  0.9208  0.7854 -0.9707
   12MOL    H97 3859   5.140   4.394   5.386 -1.4231 -2.4421 -1.1424
   12MOL    H98 3860   5.142   4.621   5.373  0.5775 -2.8164  1.9904
   12MOL    H99 3861   5.177   4.456   5.609  0.1229 -0.0409  1.6284
   12MOL   H100 3862   5.165   4.511   5.837 -1.0309  0.5468  0.1498
   12MOL   H101 3863   4.996   4.661   5.921  0.5392 -0.2237  0.5745
   12MOL   H102 3864   4.843   4.795   5.748 -2.7697 -3.2542  2.0474
   12MOL   H103 3865   4.885   4.758   5.519  1.1160  1.0806 -0.0640
   12MOL   C104 3866   5.003   4.701   5.184  0.7928 -0.6037  0.0382
   12MOL   C105 3867   4.887   4.776   5.129  0.1798 -0.6348  0.2789
   12MOL   C106 3868   4.841   4.884   5.227 -0.2369 -0.5594  0.1555
   12MOL   C107 3869   4.917   4.999   5.235  0.4159  0.0611 -0.1493
   12MOL   C108 3870   4.874   5.108   5.312 -0.2743 -0.3482  0.6204
   12MOL   C109 3871   4.753   5.092   5.384  0.6118 -0.5303  0.0605
   12MOL   C110 3872   4.684   4.975   5.380 -0.2231  0.4212 -0.1541
   12MOL   C111 3873   4.723   4.865   5.305 -0.1911 -0.6426  0.6338
   12MOL   O112 3874   4.907   4.826   4.999  0.2139  0.4456 -0.2037
   12MOL   H113 3875   5.087   4.770   5.195  0.7327 -0.4538 -0.4419
   12MOL   H114 3876   5.036   4.621   5.119  1.3009 -1.1248  0.9218
   12MOL   H115 3877   4.806   4.703   5.127 -0.7156  0.3483  0.2408
   12MOL   H116 3878   5.001   5.009   5.168  1.5358 -1.9214  0.9198
   12MOL   H117 3879   4.938   5.194   5.310  0.0200 -0.5852 -1.7955
   12MOL   H118 3880   4.720   5.169   5.453  1.6425 -2.3238  2.6336
   12MOL   H119 3881   4.596   4.968   5.443 -0.9629 -0.8862 -1.3159
   12MOL   H120 3882   4.673   4.769   5.314 -2.7397  0.6025  0.2907
   12MOL   C121 3883   4.817   4.772   4.903 -0.1235 -0.6198  0.1547
   12MOL   C122 3884   4.797   4.889   4.799  0.0534  0.1141 -0.1120
   12MOL   C123 3885   4.743   5.012   4.876  0.0051 -0.2847  0.4641
   12MOL   C124 3886   4.608   5.031   4.903  0.8389  0.0227  0.1094
   12MOL   C125 3887   4.560   5.128   4.988  0.3511 -0.1614  0.0832
   12MOL   C126 3888   4.643   5.227   5.034  0.7189 -0.3238 -0.3585
   12MOL   C127 3889   4.784   5.215   5.010 -0.4456  0.0514  0.1797
   12MOL   C128 3890   4.827   5.109   4.932  0.3153 -0.4439 -0.2932
   12MOL   O129 3891   4.923   4.919   4.740 -0.0558 -0.3949  0.6396
   12MOL   H130 3892   4.716   4.749   4.935 -1.4011  2.4252 -1.4967
   12MOL   H131 3893   4.860   4.681   4.859 -0.2150 -1.5437  1.9473
   12MOL   H132 3894   4.732   4.870   4.714  0.1378 -1.2901  0.1404
   12MOL   H133 3895   4.540   4.962   4.857 -0.7671  3.3020 -2.6474
   12MOL   H134 3896   4.454   5.130   5.012 -0.0935  1.0559 -1.8454
   12MOL   H135 3897   4.608   5.302   5.102  0.4737  0.3990 -1.2763
   12MOL   H136 3898   4.850   5.285   5.058  1.5969 -1.8671  0.2664
   12MOL   H137 3899   4.935   5.099   4.933  0.4178  0.5913  1.6554
   12MOL   C138 3900   4.900   4.991   4.621  0.3219 -0.0287  1.1834
   12MOL   C139 3901   5.042   5.042   4.572 -0.0350  0.6287 -0.0925
   12MOL   C140 3902   5.120   5.105   4.685 -0.8675 -0.0334 -0.4450
   12MOL   C141 3903   5.240   5.058   4.747  0.4334 -0.5464  0.1913
   12MOL   C142 3904   5.303   5.132   4.851  0.2353  0.2507 -0.2063
   12MOL   C143 3905   5.253   5.258   4.890  0.2327 -0.9210 -0.3407
   12MOL   C144 3906   5.132   5.305   4.832 -0.4318 -0.0038  0.4694
   12MOL   C145 3907   5.076   5.232   4.723 -0.4967  0.5205  0.2175
   12MOL   O146 3908   5.117   4.934   4.504  0.0770 -0.7120  0.4621
   12MOL   H147 3909   4.846   5.086   4.626 -0.9762 -0.4710 -2.4217
   12MOL   H148 3910   4.843   4.930   4.551 -0.2251  0.9561  0.7603
   12MOL   H149 3911   5.023   5.118   4.496  1.1597 -0.7850 -1.8498
   12MOL   H150 3912   5.282   4.964   4.714  1.3944  0.1231 -0.5504
   12MOL   H151 3913   5.391   5.098   4.903 -0.0087  1.4813  1.0419
   12MOL   H152 3914   5.301   5.324   4.960 -1.3684 -0.5772  0.4578
   12MOL   H153 3915   5.107   5.405   4.862 -1.8745  0.3291 -1.7596
   12MOL   H154 3916   4.986   5.271   4.678 -0.4284 -0.1804 -0.5427
   12MOL   C155 3917   5.233   4.974   4.431  0.0344 -0.1192  0.3148
   12MOL   C156 3918   5.196   5.030   4.284  0.0579  0.0785  0.2223
   12MOL   C157 3919   5.092   4.943   4.218  0.2890 -0.0393 -0.4749
   12MOL   C158 3920   4.955   4.963   4.230  0.0356 -0.2497 -0.4885
   12MOL   C159 3921   4.863   4.872   4.179 -0.0596  0.1354  0.1121
   12MOL   C160 3922   4.905   4.765   4.096 -0.1990  0.8518 -0.4013
   12MOL   C161 3923   5.045   4.746   4.074  0.6171 -0.3199  0.1438
   12MOL   C162 3924   5.133   4.829   4.144  0.2530 -0.6618 -0.5739
   12MOL   O163 3925   5.162   5.170   4.277  0.4012 -0.2804  0.3619
   12MOL   H164 3926   5.292   4.883   4.422 -0.8854 -0.9269  2.0915
   12MOL   H165 3927   5.297   5.044   4.484  0.3682 -0.0755 -0.1476
   12MOL   H166 3928   5.278   5.028   4.213 -1.3089  3.7722 -1.6580
   12MOL   H167 3929   4.912   5.050   4.278 -0.9558 -0.5470 -0.8393
   12MOL   H168 3930   4.759   4.889   4.203  0.6286  2.9180  1.3780
   12MOL   H169 3931   4.834   4.698   4.050 -0.0029  1.6463 -1.9095
   12MOL   H170 3932   5.076   4.657   4.021  2.7654 -1.2212  2.7965
   12MOL   H171 3933   5.234   4.792   4.133 -0.2825 -1.5465 -2.6159
   12MOL   C172 3934   5.145   5.222   4.146 -0.8428  0.6501 -0.7069
   12MOL   C173 3935   5.076   5.360   4.130 -0.4171  0.0680  0.0960
   12MOL   C174 3936   5.147   5.473   4.208 -0.1436 -0.2980  0.1711
   12MOL   C175 3937   5.104   5.496   4.340  0.3807 -0.0967 -0.7636
   12MOL   C176 3938   5.161   5.597   4.417  0.2552 -0.3705  0.5634
   12MOL   C177 3939   5.257   5.687   4.353  0.6268 -0.3135 -0.0541
   12MOL   C178 3940   5.290   5.666   4.221  0.1258  0.3685  0.3643
   12MOL   C179 3941   5.241   5.557   4.151  1.3257  0.0796  0.0059
   12MOL   O180 3942   4.946   5.333   4.178 -0.9821 -0.6066  0.2819
   12MOL   H181 3943   5.235   5.229   4.084 -0.0632 -3.2030 -0.1341
   12MOL   H182 3944   5.090   5.148   4.087  0.5877 -0.2969 -0.8855
   12MOL   H183 3945   5.068   5.384   4.024 -0.5343  0.4028  0.1814
   12MOL   H184 3946   5.041   5.432   4.399  0.2635  0.4975 -0.2463
   12MOL   H185 3947   5.132   5.611   4.520 -1.0514  1.7311 -0.0609
   12MOL   H186 3948   5.300   5.768   4.410  0.6873  1.4168 -2.5000
   12MOL   H187 3949   5.373   5.722   4.182 -1.1211  0.2447 -2.5431
   12MOL   H188 3950   5.271   5.532   4.051  0.9714  1.0749 -0.3511
   12MOL   C189 3951   4.849   5.434   4.148  0.1238  0.6532  0.1090
   12MOL   C190 3952   4.721   5.372   4.091  0.9280 -0.0083  0.3831
   12MOL   C191 3953   4.757   5.319   3.946  0.4479 -0.4580  0.7822
   12MOL   C192 3954   4.794   5.408   3.841 -0.8930  0.1544 -1.0829
   12MOL   C193 3955   4.822   5.356   3.717 -0.9362  0.6828 -0.0652
   12MOL   C194 3956   4.817   5.221   3.691 -0.1838  0.3134  0.6125
   12MOL   C195 3957   4.783   5.132   3.796 -0.1032  0.7940 -0.2332
   12MOL   C196 3958   4.748   5.180   3.920 -0.4382  0.2454  0.0679
   12MOL   O197 3959   4.634   5.485   4.083 -0.0106  0.3298 -0.2001
   12MOL   H198 3960   4.815   5.478   4.241  1.5919  0.1260  0.8962
   12MOL   H199 3961   4.892   5.523   4.101 -0.3627  1.7966  1.8077
   12MOL   H200 3962   4.702   5.286   4.155  1.4676 -0.3027  0.1489
   12MOL   H201 3963   4.781   5.514   3.857 -1.1866 -0.0389 -0.0534
   12MOL   H202 3964   4.857   5.417   3.635  2.6861 -0.8252  0.2615
   12MOL   H203 3965   4.834   5.189   3.590  2.7527 -1.0581  1.4952
   12MOL   H204 3966   4.771   5.028   3.770 -1.5908  1.0336 -0.5643
   12MOL   H205 3967   4.708   5.112   3.994  1.4988  0.4007  1.3031
   12MOL   C206 3968   4.501   5.444   4.071  0.5117 -0.3097 -0.0240
   12MOL   C207 3969   4.424   5.453   4.203 -0.7913 -0.4019 -0.0291
   12MOL   C208 3970   4.428   5.595   4.270  0.9601  0.9015 -0.7528
   12MOL   C209 3971   4.522   5.612   4.372 -0.1278  0.0986  0.1356
   12MOL   C210 3972   4.542   5.735   4.434  0.0465  0.6979 -0.1674
   12MOL   C211 3973   4.463   5.840   4.402  0.2710  0.2568  0.1874
   12MOL   C212 3974   4.357   5.832   4.316 -0.2845  0.0069  0.2663
   12MOL   C213 3975   4.332   5.705   4.252 -0.2282 -0.6536  0.1012
   12MOL   O214 3976   4.459   5.349   4.298  0.7949 -0.4506 -0.5143
   12MOL   H215 3977   4.450   5.505   3.997  1.1190 -0.1631 -0.3290
   12MOL   H216 3978   4.485   5.343   4.032 -0.3221 -0.3097  0.3230
   12MOL   H217 3979   4.323   5.436   4.166 -0.4999  1.4084 -1.6939
   12MOL   H218 3980   4.589   5.528   4.387 -0.8201 -0.5484 -0.3059
   12MOL   H219 3981   4.620   5.754   4.507 -0.3433 -3.6250  1.4972
   12MOL   H220 3982   4.494   5.932   4.451  0.2361  0.9850 -1.1404
   12MOL   H221 3983   4.295   5.919   4.300 -1.6247 -0.7128  1.3022
   12MOL   H222 3984   4.251   5.684   4.184 -0.5629  1.8394 -0.3490
   12MOL   C223 3985   4.355   5.317   4.391 -0.2845  0.1540 -0.0539
   12MOL   C224 3986   4.410   5.227   4.508  0.0592 -0.3103 -0.0676
   12MOL   C225 3987   4.526   5.298   4.576  0.8988 -0.4213  0.1029
   12MOL   C226 3988   4.508   5.390   4.682 -0.5470  0.0676 -1.1154
   12MOL   C227 3989   4.616   5.464   4.731 -0.4689 -0.2574  0.6124
   12MOL   C228 3990   4.742   5.457   4.665 -0.3838  0.0756  0.9866
   12MOL   C229 3991   4.757   5.368   4.557 -0.4989 -0.1625 -0.3905
   12MOL   C230 3992   4.653   5.277   4.518  0.3622 -0.4565  0.1985
   12MOL   O231 3993   4.300   5.199   4.596  0.3635  0.0022  0.2021
   12MOL   H232 3994   4.306   5.396   4.448 -2.3952  0.4628 -2.2336
   12MOL   H233 3995   4.270   5.271   4.341 -0.1232  0.4380 -0.5965
   12MOL   H234 3996   4.447   5.137   4.459 -0.3855 -1.6428  1.9637
   12MOL   H235 3997   4.408   5.408   4.717 -0.2731  1.9250 -1.2641
   12MOL   H236 3998   4.614   5.532   4.815 -0.2558  0.7922 -0.2170
   12MOL   H237 3999   4.822   5.526   4.688  0.3177 -0.9714  1.6903
   12MOL   H238 4000   4.852   5.360   4.506 -0.2843  0.9738 -0.1791
   12MOL   H239 4001   4.668   5.221   4.427 -0.3836  1.8952 -1.4172
   12MOL   C240 4002   4.333   5.111   4.693 -0.2379 -0.5898  0.1633
   12MOL   C241 4003   4.291   4.969   4.659  0.3360  0.2400 -0.3693
   12MOL   C242 4004   4.159   4.953   4.586  0.2900 -0.1362 -0.0408
   12MOL   C243 4005   4.143   4.987   4.451  0.4671  0.1304 -0.1636
   12MOL   C244 4006   4.017   4.958   4.388 -0.2654  0.2640 -0.3742
   12MOL   C245 4007   3.914   4.892   4.453  0.6645 -0.5113 -0.5127
   12MOL   C246 4008   3.933   4.852   4.591  0.2757  0.0719 -1.0244
   12MOL   C247 4009   4.056   4.887   4.652 -0.0769 -0.9143 -0.9062
   12MOL   O248 4010   4.400   4.907   4.590  0.2512 -0.0926 -0.2325
   12MOL   H249 4011   4.438   5.119   4.720 -0.4780 -2.6704  1.8458
   12MOL   H250 4012   4.264   5.138   4.773 -0.7747 -0.1446 -0.4408
   12MOL   H251 4013   4.292   4.921   4.757  1.7277 -0.4650 -0.7166
   12MOL   H252 4014   4.218   5.047   4.402  0.0913  1.6015  1.0263
   12MOL   H253 4015   4.008   4.983   4.283  1.6583  2.8294  0.0012
   12MOL   H254 4016   3.817   4.876   4.410 -0.8541  0.0063  2.5509
   12MOL   H255 4017   3.863   4.793   4.649  2.2309 -2.5415 -1.2560
   12MOL   H256 4018   4.073   4.835   4.746  1.4531 -2.7102 -2.1556
   12MOL   C257 4019   4.418   4.763   4.615  0.0795 -0.3924  0.2431
   12MOL   C258 4020   4.492   4.705   4.492  0.2416  0.0276  0.2461
   12MOL   C259 4021   4.405   4.720   4.362 -0.7961  0.4783  0.1457
   12MOL   C260 4022   4.328   4.615   4.310 -0.6703  0.7787  0.3256
   12MOL   C261 4023   4.265   4.625   4.184  0.1847  0.2289  0.1816
   12MOL   C262 4024   4.289   4.743   4.102 -0.3252  0.2214  0.2808
   12MOL   C263 4025   4.368   4.851   4.153 -0.5641  0.0446 -0.6968
   12MOL   C264 4026   4.427   4.829   4.281 -0.5680  0.2473  0.5829
   12MOL   O265 4027   4.529   4.564   4.528 -0.4208 -0.9668  0.1757
   12MOL   H266 4028   4.323   4.709   4.618 -0.1317 -0.0761 -0.6763
   12MOL   H267 4029   4.463   4.753   4.714  0.1241  0.1834  0.2811
   12MOL   H268 4030   4.586   4.757   4.473  0.7733 -0.5214  1.3211
   12MOL   H269 4031   4.316   4.525   4.370 -0.2014 -0.3455 -1.2440
   12MOL   H270 4032   4.208   4.543   4.145 -0.1158  0.2504  0.5752
   12MOL   H271 4033   4.242   4.754   4.005  0.7499 -0.6246 -0.3619
   12MOL   H272 4034   4.387   4.948   4.109  1.4647  0.8386  1.8166
   12MOL   H273 4035   4.491   4.906   4.321 -0.0246  1.8083 -3.0564
   12MOL   C274 4036   4.653   4.556   4.603  0.1252 -0.2833  1.5516
   12MOL   C275 4037   4.664   4.408   4.646 -0.0160  0.4396  0.0249
   12MOL   C276 4038   4.777   4.390   4.748  0.2134 -0.0263  0.1318
   12MOL   C277 4039   4.750   4.421   4.881 -0.3378  0.1383  0.4991
   12MOL   C278 4040   4.851   4.416   4.975  0.1967 -0.0301 -0.0796
   12MOL   C279 4041   4.977   4.363   4.944 -0.1178  0.3442  0.4225
   12MOL   C280 4042   5.004   4.324   4.813  0.0482  0.0354 -0.0173
   12MOL   C281 4043   4.910   4.342   4.710  0.2575 -0.3851 -0.3095
   12MOL   O282 4044   4.685   4.327   4.525  0.5101 -0.0316 -0.1313
   12MOL   H283 4045   4.730   4.573   4.528 -1.0245 -1.4691  0.0737
   12MOL   H284 4046   4.639   4.631   4.681 -1.2620  0.4788  0.5783
   12MOL   H285 4047   4.566   4.382   4.684  0.2540 -1.5187 -0.5821
   12MOL   H286 4048   4.645   4.445   4.893 -0.6633 -0.7716 -0.4582
   12MOL   H287 4049   4.813   4.443   5.072 -0.5396 -0.9399 -0.1077
   12MOL   H288 4050   5.052   4.345   5.019 -0.9239 -1.4311  0.8274
   12MOL   H289 4051   5.108   4.299   4.798  1.0763  2.1771  2.9515
   12MOL   H290 4052   4.935   4.313   4.609  1.2155 -0.7929  0.0470
   12MOL   C291 4053   4.567   4.248   4.492 -0.0933  0.6547  0.0599
   12MOL   C292 4054   4.608   4.142   4.396 -0.2083 -0.7209 -0.0395
   12MOL   C293 4055   4.731   4.070   4.455  0.6014  0.2526  0.5453
   12MOL   C294 4056   4.708   3.964   4.547  0.0269 -0.3995  0.5472
   12MOL   C295 4057   4.815   3.890   4.609  0.1140  0.7361  0.7248
   12MOL   C296 4058   4.947   3.921   4.565  0.4147  0.0315 -0.0158
   12MOL   C297 4059   4.969   4.035   4.482  0.8244 -0.4338 -0.6079
   12MOL   C298 4060   4.862   4.105   4.420 -0.7751  1.3268 -0.3467
   12MOL   O299 4061   4.493   4.068   4.365  0.1206  0.5247 -0.4256
   12MOL   H300 4062   4.482   4.303   4.451  0.2698  2.1723  1.2884
   12MOL   H301 4063   4.532   4.191   4.579  0.5806 -0.5390 -0.4474
   12MOL   H302 4064   4.642   4.189   4.304 -0.0909 -0.6127  0.0582
   12MOL   H303 4065   4.609   3.932   4.577  0.3723 -0.6655  1.4234
   12MOL   H304 4066   4.779   3.814   4.677 -1.0944  0.0759 -0.6098
   12MOL   H305 4067   5.034   3.864   4.596 -0.3966 -0.6407  1.0423
   12MOL   H306 4068   5.071   4.070   4.474  1.1534 -1.0937  0.5360
   12MOL   H307 4069   4.881   4.194   4.362 -2.5885  1.6469 -0.4834
   12MOL   C308 4070   4.508   3.955   4.273  0.0092 -0.3420  0.4459
   12MOL   C309 4071   4.570   3.983   4.137  0.4930  0.2663  0.4050
   12MOL   C310 4072   4.634   3.851   4.085  0.1570 -0.0361 -0.1917
   12MOL   C311 4073   4.774   3.843   4.100  0.3755 -0.3027 -0.2237
   12MOL   C312 4074   4.834   3.726   4.056 -0.7319 -0.0070 -0.7460
   12MOL   C313 4075   4.765   3.624   3.996  0.2314  0.2977  0.7143
   12MOL   C314 4076   4.626   3.630   3.991 -0.0369 -0.1200 -0.3255
   12MOL   C315 4077   4.560   3.744   4.038  0.3884 -0.6379 -0.0136
   12MOL   O316 4078   4.474   4.028   4.051 -0.1847 -0.5663  0.5953
   12MOL   H317 4079   4.413   3.904   4.255  0.4075  0.1227 -3.4801
   12MOL   H318 4080   4.573   3.884   4.325  0.4267 -0.8242 -0.6991
   12MOL   H319 4081   4.652   4.055   4.133  0.7293  0.1291  2.1494
   12MOL   H320 4082   4.836   3.919   4.145  1.0067  0.2234 -1.9651
   12MOL   H321 4083   4.938   3.702   4.074 -1.6618 -4.2366 -0.4411
   12MOL   H322 4084   4.815   3.540   3.950  1.7000  2.2410 -1.3271
   12MOL   H323 4085   4.572   3.549   3.945  0.5589  0.2911 -1.7856
   12MOL   H324 4086   4.452   3.747   4.039  0.3975  0.7447 -1.1659
   12MOL   C325 4087   4.512   4.073   3.921 -0.5630  0.3466 -0.6906
   12MOL   C326 4088   4.485   4.221   3.901  0.4986 -0.2861 -0.3194
   12MOL   C327 4089   4.577   4.301   3.993  0.0893  0.9773 -0.1771
   12MOL   C328 4090   4.524   4.366   4.106  0.2535  0.4696 -0.2980
   12MOL   C329 4091   4.614   4.424   4.190 -0.0592  0.0455 -0.3928
   12MOL   C330 4092   4.755   4.421   4.172  0.0336 -0.2832 -0.1407
   12MOL   C331 4093   4.810   4.354   4.060 -0.2921 -0.1936 -0.4722
   12MOL   C332 4094   4.718   4.293   3.971 -0.0560 -0.1319 -0.0867
   12MOL   O333 4095   4.492   4.262   3.769 -0.4685  0.6563  0.7637
   12MOL   H334 4096   4.456   4.025   3.841 -2.0765 -0.6705  0.9336
   12MOL   H335 4097   4.612   4.045   3.887  0.0221 -0.3775  1.5303
   12MOL   H336 4098   4.385   4.243   3.937  1.0868  3.3224 -0.7882
   12MOL   H337 4099   4.418   4.357   4.125  0.7113 -1.5647  1.4835
   12MOL   H338 4100   4.572   4.460   4.282 -0.4564 -2.3567  0.3903
   12MOL   H339 4101   4.821   4.459   4.249  1.2067 -0.3483 -1.1056
   12MOL   H340 4102   4.917   4.355   4.042 -0.5144  0.4616 -1.8501
   12MOL   H341 4103   4.746   4.232   3.887  1.0265  1.8072 -1.1559
   12MOL   H342 4104   4.548   4.338   3.773  0.1591  0.2577 -0.1440
   13MOL     C1 4105   1.165   2.323   2.755 -0.2011 -0.2213  1.1202
   13MOL     C2 4106   1.214   2.229   2.861  0.3847  0.1744  0.1016
   13MOL     C3 4107   1.363   2.251   2.884  0.0706  0.7186  0.0443
   13MOL     C4 4108   1.407   2.290   3.011  0.0473  0.2221  0.0624
   13MOL     C5 4109   1.544   2.280   3.033 -0.2479 -0.8124 -0.3550
   13MOL     C6 4110   1.638   2.246   2.933 -0.2293  0.1756 -0.1812
   13MOL     C7 4111   1.593   2.219   2.800 -0.6665 -0.2512 -0.6539
   13MOL     C8 4112   1.454   2.221   2.779  0.1567 -0.1126 -0.3060
   13MOL     O9 4113   1.192   2.098   2.796  0.2183  0.0600 -0.5298
   13MOL    H10 4114   1.213   2.418   2.779 -1.3449  0.8940 -0.8817
   13MOL    H11 4115   1.192   2.305   2.652 -3.1666  0.8430  0.0835
   13MOL    H12 4116   1.153   2.233   2.952  1.4377  1.8576  0.7725
   13MOL    H13 4117   1.339   2.321   3.089 -0.8166  1.1014 -1.0196
   13MOL    H14 4118   1.593   2.304   3.126 -0.9342  2.5031 -0.7772
   13MOL    H15 4119   1.746   2.253   2.944 -0.2321  0.1015 -0.1092
   13MOL    H16 4120   1.656   2.199   2.715 -0.4577 -0.2973 -0.4867
   13MOL    H17 4121   1.409   2.185   2.688 -0.6413  0.3806 -0.1094
   13MOL    H18 4122   1.058   2.343   2.755 -0.0968  0.3584  0.2485
   13MOL    C19 4123   1.220   1.987   2.880 -0.2632 -0.0590  0.1850
   13MOL    C20 4124   1.120   1.972   2.995  0.2354  0.4052 -0.3877
   13MOL    C21 4125   0.979   1.987   2.966 -0.3809 -0.2912 -0.1852
   13MOL    C22 4126   0.902   2.104   2.987 -0.3165  0.1799 -0.1693
   13MOL    C23 4127   0.766   2.108   2.967  0.6763 -0.2937 -0.1476
   13MOL    C24 4128   0.692   1.995   2.925 -0.6482 -0.3971  0.0370
   13MOL    C25 4129   0.767   1.873   2.898 -0.3069  0.0996 -0.2628
   13MOL    C26 4130   0.910   1.878   2.915  0.3620  0.3193 -0.6455
   13MOL    O27 4131   1.159   2.055   3.104  0.4633  0.2060  0.2196
   13MOL    H28 4132   1.206   1.902   2.813  0.2005 -1.9187  2.3814
   13MOL    H29 4133   1.321   1.981   2.920 -0.3538  0.4996  0.4989
   13MOL    H30 4134   1.142   1.871   3.030 -0.2646  0.6806  0.7604
   13MOL    H31 4135   0.954   2.191   3.025  0.1925 -0.0975 -0.2261
   13MOL    H32 4136   0.710   2.200   2.973  1.2678  0.0779 -0.2844
   13MOL    H33 4137   0.587   1.995   2.901 -0.8489 -1.6237  0.8613
   13MOL    H34 4138   0.715   1.788   2.856  1.1942 -1.2852  0.6424
   13MOL    H35 4139   0.965   1.791   2.884  1.2193 -0.4721  2.8730
   13MOL    C36 4140   1.237   2.001   3.205 -0.4163 -0.6304 -0.8252
   13MOL    C37 4141   1.267   2.104   3.312 -0.2721 -0.6702  0.5264
   13MOL    C38 4142   1.364   2.050   3.420 -0.3021  0.1063  0.2424
   13MOL    C39 4143   1.470   2.129   3.473 -0.2469  0.1861  0.4639
   13MOL    C40 4144   1.557   2.079   3.575 -0.2156  0.7016 -0.8721
   13MOL    C41 4145   1.543   1.948   3.623 -0.3305 -0.0241 -0.2610
   13MOL    C42 4146   1.436   1.868   3.571  0.3888 -0.0457  0.4304
   13MOL    C43 4147   1.348   1.923   3.479  0.3552 -0.1905 -0.1956
   13MOL    O44 4148   1.155   2.138   3.387 -0.1728  0.1344  0.2380
   13MOL    H45 4149   1.183   1.922   3.257  1.6570 -0.6773  1.3297
   13MOL    H46 4150   1.328   1.950   3.172  1.2529  0.3104  2.0587
   13MOL    H47 4151   1.305   2.190   3.258  0.8055 -2.2012 -1.2062
   13MOL    H48 4152   1.495   2.229   3.442  2.2239 -0.1025  1.4271
   13MOL    H49 4153   1.625   2.147   3.625 -0.2335 -0.9048  1.3781
   13MOL    H50 4154   1.617   1.918   3.695  0.7213  1.1008 -0.8573
   13MOL    H51 4155   1.432   1.766   3.606  2.3023 -0.4476 -0.4163
   13MOL    H52 4156   1.276   1.861   3.428 -0.8931  0.1456  1.1232
   13MOL    C53 4157   1.074   2.239   3.331 -0.3122 -0.6189  0.5004
   13MOL    C54 4158   0.951   2.246   3.417 -0.5395 -0.2039 -0.2920
   13MOL    C55 4159   0.992   2.311   3.553  0.3241  0.2466 -0.4043
   13MOL    C56 4160   0.942   2.442   3.588  0.1747  0.0699  0.5665
   13MOL    C57 4161   0.978   2.504   3.710  0.0141  0.4915 -0.4671
   13MOL    C58 4162   1.058   2.437   3.811 -0.3200  0.2491 -0.5323
   13MOL    C59 4163   1.115   2.317   3.768  0.0941  0.5163 -0.5787
   13MOL    C60 4164   1.086   2.249   3.646  0.2551 -0.0931  0.1321
   13MOL    O61 4165   0.852   2.323   3.347 -0.1279  0.2132 -0.1254
   13MOL    H62 4166   1.126   2.334   3.317  1.1550 -1.5140 -0.2476
   13MOL    H63 4167   1.042   2.216   3.229 -0.6894 -0.2629  0.5350
   13MOL    H64 4168   0.918   2.142   3.426 -1.0108 -0.1361 -1.1684
   13MOL    H65 4169   0.880   2.491   3.515 -1.1654 -1.7228  0.4775
   13MOL    H66 4170   0.937   2.603   3.727 -1.8023 -0.0842 -1.3758
   13MOL    H67 4171   1.076   2.489   3.903 -1.2378  0.4875 -0.4901
   13MOL    H68 4172   1.180   2.268   3.839 -2.2261 -0.7481  0.7476
   13MOL    H69 4173   1.118   2.148   3.628  0.6555  0.0344  0.1340
   13MOL    C70 4174   0.719   2.270   3.366  0.1489 -0.0286 -0.2745
   13MOL    C71 4175   0.614   2.368   3.309  0.9787 -0.0504 -0.3898
   13MOL    C72 4176   0.471   2.311   3.313 -0.0238  0.4395 -0.2487
   13MOL    C73 4177   0.382   2.357   3.409 -0.0464 -0.0076 -0.2554
   13MOL    C74 4178   0.246   2.309   3.412 -1.1089 -0.3705 -0.5802
   13MOL    C75 4179   0.208   2.209   3.323  0.2614  0.1018 -0.4977
   13MOL    C76 4180   0.301   2.152   3.238 -0.8841 -0.0992  0.4403
   13MOL    C77 4181   0.430   2.213   3.222  0.1898 -0.2418  0.5951
   13MOL    O78 4182   0.664   2.375   3.174 -0.1363 -0.2825 -0.4219
   13MOL    H79 4183   0.713   2.165   3.335 -0.1659 -0.2086  0.3819
   13MOL    H80 4184   0.704   2.266   3.474 -0.6480  2.8233 -0.2344
   13MOL    H81 4185   0.619   2.457   3.370 -0.3532  0.1458 -0.5559
   13MOL    H82 4186   0.404   2.432   3.484 -0.4980 -1.4298  1.3300
   13MOL    H83 4187   0.165   2.347   3.474 -0.6796  1.7882 -1.3214
   13MOL    H84 4188   0.110   2.165   3.322 -0.4812  1.7664 -3.0327
   13MOL    H85 4189   0.256   2.075   3.177  1.2509 -1.1287  0.1194
   13MOL    H86 4190   0.501   2.164   3.158 -1.3423 -0.9475 -0.6059
   13MOL    C87 4191   0.615   2.477   3.088  0.1373  0.3675  0.0872
   13MOL    C88 4192   0.701   2.504   2.964  1.0868 -0.3080  0.7845
   13MOL    C89 4193   0.838   2.554   2.993 -0.7665 -0.7672  0.2286
   13MOL    C90 4194   0.866   2.693   2.982 -0.6143  0.1332  0.0666
   13MOL    C91 4195   0.999   2.748   2.992  0.5149 -0.0624 -0.2161
   13MOL    C92 4196   1.106   2.660   3.016 -0.1438  0.1367 -0.2154
   13MOL    C93 4197   1.078   2.522   3.048  0.3686 -0.5612 -0.0408
   13MOL    C94 4198   0.948   2.476   3.029 -0.1894  0.3361  0.6200
   13MOL    O95 4199   0.627   2.589   2.878 -0.2141 -0.6809  0.4286
   13MOL    H96 4200   0.608   2.564   3.152  0.2308 -0.2875  1.0000
   13MOL    H97 4201   0.516   2.445   3.056  0.2229 -0.8924  1.0020
   13MOL    H98 4202   0.727   2.411   2.914 -0.0035 -0.6304  0.8249
   13MOL    H99 4203   0.783   2.760   2.971 -0.8983  0.1317  2.0578
   13MOL   H100 4204   0.994   2.855   2.984 -0.0182 -0.0502  0.1794
   13MOL   H101 4205   1.205   2.699   3.031 -1.4504  3.9531 -0.9906
   13MOL   H102 4206   1.153   2.449   3.078 -1.0206 -1.7074  0.6851
   13MOL   H103 4207   0.923   2.372   3.046  2.0721 -0.4013 -0.3550
   13MOL   C104 4208   0.537   2.532   2.781 -0.0960  0.6039  0.1358
   13MOL   C105 4209   0.455   2.643   2.709 -0.0054 -0.0765 -0.3894
   13MOL   C106 4210   0.369   2.720   2.809  0.0365 -0.0383 -0.4204
   13MOL   C107 4211   0.236   2.687   2.836 -0.2633  0.4536  0.8491
   13MOL   C108 4212   0.158   2.755   2.929  0.6357  0.4929 -0.0614
   13MOL   C109 4213   0.210   2.865   3.001  0.2802 -0.7330 -0.0912
   13MOL   C110 4214   0.344   2.905   2.966  0.5597 -0.2338 -0.5647
   13MOL   C111 4215   0.420   2.834   2.872  0.3634  0.8142  0.0915
   13MOL   O112 4216   0.557   2.714   2.642 -0.3381 -0.3894 -0.1456
   13MOL   H113 4217   0.592   2.479   2.702  1.6183 -0.7737  2.1859
   13MOL   H114 4218   0.474   2.458   2.831  0.3825  1.1770  1.6084
   13MOL   H115 4219   0.396   2.597   2.630  0.9538 -2.6646  0.3569
   13MOL   H116 4220   0.196   2.601   2.785 -0.4599  1.7531 -1.2380
   13MOL   H117 4221   0.054   2.729   2.941  0.8270 -0.8200 -1.1326
   13MOL   H118 4222   0.153   2.926   3.069 -0.5971 -0.2978 -1.2090
   13MOL   H119 4223   0.389   2.996   3.004 -0.2600  0.5029 -1.3220
   13MOL   H120 4224   0.523   2.862   2.851  0.7475 -0.3155  0.4379
   13MOL   C121 4225   0.517   2.815   2.541  0.2605 -0.4477 -0.5945
   13MOL   C122 4226   0.632   2.899   2.496  0.0534 -0.1961  0.6098
   13MOL   C123 4227   0.591   2.973   2.370 -0.2218  0.2106  0.5720
   13MOL   C124 4228   0.598   2.906   2.246  0.0266  0.6382  0.1484
   13MOL   C125 4229   0.582   2.982   2.123 -0.1111  0.3518 -0.0737
   13MOL   C126 4230   0.562   3.123   2.134  0.4147 -0.1853  0.6930
   13MOL   C127 4231   0.536   3.185   2.262 -0.0302  0.8419  0.1760
   13MOL   C128 4232   0.545   3.110   2.377 -0.0214  0.0599 -0.7264
   13MOL   O129 4233   0.675   2.993   2.592 -0.0883  0.2146  0.2593
   13MOL   H130 4234   0.431   2.868   2.582  0.9318  1.7034 -1.9052
   13MOL   H131 4235   0.484   2.759   2.454 -1.1062  1.3651 -1.2702
   13MOL   H132 4236   0.719   2.841   2.465 -0.1798  0.1149 -0.6689
   13MOL   H133 4237   0.625   2.802   2.238  1.9423  1.1832 -0.7873
   13MOL   H134 4238   0.583   2.928   2.030 -2.3655  0.9783 -0.4927
   13MOL   H135 4239   0.546   3.183   2.046  0.8497 -1.0482  0.0218
   13MOL   H136 4240   0.518   3.292   2.271  0.8526  0.8928  1.5588
   13MOL   H137 4241   0.537   3.164   2.470 -0.2338 -1.1338 -0.0479
   13MOL   C138 4242   0.791   2.960   2.670 -0.7393  0.4351  0.3871
   13MOL   C139 4243   0.840   3.082   2.748  0.1266 -0.2853 -0.7334
   13MOL   C140 4244   0.736   3.158   2.836 -0.6814  0.4770  0.0363
   13MOL   C141 4245   0.682   3.284   2.807 -0.2399  0.6410  0.2779
   13MOL   C142 4246   0.586   3.348   2.886 -0.4829  0.2213  0.6790
   13MOL   C143 4247   0.545   3.289   3.001  0.4635  0.0118  0.6604
   13MOL   C144 4248   0.596   3.163   3.044 -0.0187  0.4603  0.2468
   13MOL   C145 4249   0.687   3.097   2.957 -0.3554  0.1735 -0.3409
   13MOL   O146 4250   0.948   3.041   2.830  0.0978  0.8234  0.1434
   13MOL   H147 4251   0.878   2.918   2.621 -0.6793 -0.1091  0.9520
   13MOL   H148 4252   0.772   2.879   2.739 -0.2300 -1.7399 -1.9558
   13MOL   H149 4253   0.886   3.145   2.672  0.1716 -0.8259 -1.1615
   13MOL   H150 4254   0.722   3.332   2.719  0.9829 -3.5402 -1.5763
   13MOL   H151 4255   0.555   3.449   2.865  0.5740  0.3888 -0.1637
   13MOL   H152 4256   0.475   3.336   3.069 -2.1083 -2.0982 -0.4288
   13MOL   H153 4257   0.566   3.114   3.134  1.1625  0.5544  0.7053
   13MOL   H154 4258   0.725   2.999   2.979  1.4133  0.2160 -3.0886
   13MOL   C155 4259   1.067   3.123   2.810 -0.2756  0.1250  0.2010
   13MOL   C156 4260   1.174   3.070   2.902  0.2421  0.0548  0.5472
   13MOL   C157 4261   1.305   3.144   2.893  0.2203  0.3509  0.6145
   13MOL   C158 4262   1.325   3.279   2.935  0.4637  0.5797  0.3427
   13MOL   C159 4263   1.449   3.332   2.926  0.0618  1.2280 -0.3734
   13MOL   C160 4264   1.561   3.260   2.878 -0.4315 -0.5172  0.5053
   13MOL   C161 4265   1.540   3.128   2.836 -0.3967  0.0982 -0.0101
   13MOL   C162 4266   1.407   3.072   2.833 -0.2562  1.0217  0.8571
   13MOL   O163 4267   1.112   3.080   3.034 -0.1218 -0.8892  0.0511
   13MOL   H164 4268   1.039   3.228   2.819  0.5744  0.3919 -0.2247
   13MOL   H165 4269   1.111   3.115   2.711  0.1743 -2.6037  0.6021
   13MOL   H166 4270   1.188   2.962   2.897  0.1902 -0.0488  2.2245
   13MOL   H167 4271   1.248   3.347   2.970  0.3302  0.1457  0.8981
   13MOL   H168 4272   1.472   3.436   2.946  1.5226  1.1526 -1.5673
   13MOL   H169 4273   1.660   3.302   2.876 -0.5508 -0.1473  1.7025
   13MOL   H170 4274   1.620   3.068   2.793  0.5404  0.6298  0.9640
   13MOL   H171 4275   1.383   2.975   2.792  1.8197 -0.2318  2.5052
   13MOL   C172 4276   1.180   3.019   3.140  0.3339 -0.3388  0.3596
   13MOL   C173 4277   1.093   3.007   3.266  0.1061 -0.2976  0.0754
   13MOL   C174 4278   1.016   3.137   3.294 -0.4024 -0.1790  0.7639
   13MOL   C175 4279   1.085   3.250   3.348  0.7696  0.7886 -0.2492
   13MOL   C176 4280   1.014   3.365   3.379  0.4491 -1.3972 -0.9789
   13MOL   C177 4281   0.873   3.368   3.361 -0.1835  0.8911  0.0556
   13MOL   C178 4282   0.807   3.257   3.303  0.1550 -0.9598 -0.6321
   13MOL   C179 4283   0.876   3.137   3.280  0.0184 -0.3462 -0.3176
   13MOL   O180 4284   1.186   2.998   3.378  0.4154  0.2284 -0.0136
   13MOL   H181 4285   1.227   2.924   3.114  0.0977 -0.8179  1.6261
   13MOL   H182 4286   1.267   3.080   3.166  0.2443 -0.1716  0.2687
   13MOL   H183 4287   1.016   2.932   3.250  0.3964 -0.3753 -0.9914
   13MOL   H184 4288   1.192   3.242   3.358  0.8896 -0.0264 -1.9781
   13MOL   H185 4289   1.061   3.444   3.436  1.1113 -1.4347 -1.4648
   13MOL   H186 4290   0.821   3.457   3.391 -0.5696  0.7287 -0.1343
   13MOL   H187 4291   0.704   3.268   3.270 -0.1066  0.0367  0.4479
   13MOL   H188 4292   0.825   3.052   3.237  0.1272  0.1848 -1.5037
   13MOL   C189 4293   1.241   2.865   3.394 -1.1201  0.0935  0.2530
   13MOL   C190 4294   1.388   2.886   3.436 -0.4166 -0.4946 -0.1128
   13MOL   C191 4295   1.396   3.001   3.543  0.2680  0.0054 -0.4739
   13MOL   C192 4296   1.370   2.969   3.681  0.6163  0.4146  0.5333
   13MOL   C193 4297   1.392   3.064   3.777 -0.2251 -0.5300  0.1893
   13MOL   C194 4298   1.426   3.198   3.738 -0.5002 -0.4310  0.7181
   13MOL   C195 4299   1.436   3.227   3.603  0.5100  0.2450  0.6579
   13MOL   C196 4300   1.420   3.133   3.501 -0.3845  0.9249  0.7715
   13MOL   O197 4301   1.455   2.921   3.311 -1.0892 -0.2328 -0.1088
   13MOL   H198 4302   1.192   2.823   3.481 -3.2150  0.2499 -0.8302
   13MOL   H199 4303   1.236   2.797   3.308  1.0734 -0.2108  0.3301
   13MOL   H200 4304   1.428   2.792   3.474  0.1042 -0.6561 -1.0376
   13MOL   H201 4305   1.358   2.864   3.705  1.0292  0.3728  0.5531
   13MOL   H202 4306   1.369   3.049   3.881 -1.3201 -0.1583  0.0063
   13MOL   H203 4307   1.452   3.271   3.812  3.7544 -0.7223 -0.3515
   13MOL   H204 4308   1.464   3.328   3.578 -1.0205  0.1484 -1.5860
   13MOL   H205 4309   1.435   3.162   3.398 -2.6434  0.1303  0.1755
   13MOL   C206 4310   1.594   2.910   3.323 -0.4067  1.0928 -0.5853
   13MOL   C207 4311   1.664   2.929   3.185 -0.4399 -0.3588  0.0367
   13MOL   C208 4312   1.637   2.810   3.097  0.0575 -0.7227 -0.0843
   13MOL   C209 4313   1.519   2.808   3.025 -0.5759 -0.7392  0.6472
   13MOL   C210 4314   1.479   2.696   2.952 -0.2449  0.0536 -0.2612
   13MOL   C211 4315   1.574   2.590   2.933 -0.0012  0.0342  0.3277
   13MOL   C212 4316   1.697   2.597   3.009 -0.1512  0.0469 -0.4353
   13MOL   C213 4317   1.731   2.706   3.092  0.0072 -0.1634 -0.5451
   13MOL   O214 4318   1.802   2.961   3.206  0.2498 -0.4041  0.1813
   13MOL   H215 4319   1.635   2.980   3.396  0.5666  0.7960 -0.8356
   13MOL   H216 4320   1.615   2.807   3.352  0.6573  1.6728  0.7739
   13MOL   H217 4321   1.618   3.018   3.142 -1.0378 -0.4398  0.4990
   13MOL   H218 4322   1.459   2.897   3.033 -1.0661 -0.9052 -0.9318
   13MOL   H219 4323   1.386   2.692   2.896 -0.9141 -1.7369  0.9337
   13MOL   H220 4324   1.551   2.516   2.858  3.6903 -1.2290  0.3512
   13MOL   H221 4325   1.768   2.516   3.000  0.7417  0.6951  0.5842
   13MOL   H222 4326   1.823   2.714   3.149 -0.5966  2.3403  0.1574
   13MOL   C223 4327   1.839   3.081   3.281  0.0264 -0.7213 -0.3194
   13MOL   C224 4328   1.997   3.108   3.270  0.0574 -0.0933 -0.0079
   13MOL   C225 4329   2.032   3.198   3.160  0.5182  0.4044 -0.0033
   13MOL   C226 4330   1.972   3.187   3.037  0.2031  0.3171 -0.7489
   13MOL   C227 4331   2.012   3.275   2.934  0.5777  0.3916 -0.7187
   13MOL   C228 4332   2.109   3.372   2.952  1.4026  0.2083  0.0097
   13MOL   C229 4333   2.180   3.379   3.077 -0.0655 -0.4789  0.4609
   13MOL   C230 4334   2.136   3.291   3.183  0.3146 -0.0826  0.2851
   13MOL   O231 4335   2.042   3.150   3.403 -0.1948  0.2898 -0.1406
   13MOL   H232 4336   1.772   3.163   3.255  0.9692 -0.4664 -2.0321
   13MOL   H233 4337   1.820   3.055   3.385 -1.1280 -1.3061 -0.6710
   13MOL   H234 4338   2.039   3.008   3.258  2.5513  1.0693 -1.4029
   13MOL   H235 4339   1.895   3.114   3.017  0.2823 -0.5627  1.9166
   13MOL   H236 4340   1.966   3.251   2.840 -1.7125 -4.5366  1.5126
   13MOL   H237 4341   2.128   3.442   2.872  1.4867 -0.7184 -0.7910
   13MOL   H238 4342   2.259   3.447   3.105 -0.3403 -0.0677  0.2342
   13MOL   H239 4343   2.183   3.290   3.280 -1.4234  2.0137  1.1885
   13MOL   C240 4344   2.123   3.057   3.475  0.6207  0.3202  0.1665
   13MOL   C241 4345   2.264   3.046   3.413 -0.2371  0.1828  0.5366
   13MOL   C242 4346   2.362   2.995   3.519 -0.5927 -0.1016  0.7457
   13MOL   C243 4347   2.487   3.068   3.537 -0.3442  1.2076  0.1270
   13MOL   C244 4348   2.581   3.018   3.635  0.1022 -0.3222  0.1164
   13MOL   C245 4349   2.544   2.910   3.714  0.1146 -0.2501  0.3332
   13MOL   C246 4350   2.417   2.859   3.711 -0.2078  0.0735 -0.1836
   13MOL   C247 4351   2.325   2.896   3.613  0.4177 -0.6486 -0.3192
   13MOL   O248 4352   2.264   2.947   3.314 -0.1087 -0.0365 -0.0381
   13MOL   H249 4353   2.130   3.092   3.578 -0.6772 -3.2970  1.5663
   13MOL   H250 4354   2.089   2.953   3.476  0.8702  0.2050 -1.6481
   13MOL   H251 4355   2.292   3.142   3.370 -0.2019 -1.1243 -2.4902
   13MOL   H252 4356   2.513   3.152   3.474  2.8796  0.0484 -0.1835
   13MOL   H253 4357   2.681   3.058   3.646  0.0099  0.2672 -1.0917
   13MOL   H254 4358   2.603   2.867   3.794  1.0428 -2.4097 -1.4809
   13MOL   H255 4359   2.401   2.767   3.765  0.6378 -0.3506 -0.6459
   13MOL   H256 4360   2.232   2.842   3.615 -0.3027  0.5815  0.3009
   13MOL   C257 4361   2.382   2.953   3.227  0.5164 -0.6528 -0.6097
   13MOL   C258 4362   2.376   2.837   3.131  0.5385 -0.5368 -0.4425
   13MOL   C259 4363   2.274   2.859   3.019  0.7694  0.5642  0.3750
   13MOL   C260 4364   2.310   2.887   2.890 -0.1073 -0.2045 -0.0004
   13MOL   C261 4365   2.220   2.910   2.789 -0.2576 -0.6787 -0.7415
   13MOL   C262 4366   2.081   2.907   2.823 -0.5491 -0.0029  0.2198
   13MOL   C263 4367   2.042   2.864   2.949 -0.0652 -0.1946 -0.6278
   13MOL   C264 4368   2.135   2.844   3.049 -0.3935 -0.0694 -0.0493
   13MOL   O265 4369   2.358   2.718   3.200  0.0181 -0.1418 -0.0128
   13MOL   H266 4370   2.472   2.944   3.289  0.2684  0.0520 -0.1391
   13MOL   H267 4371   2.397   3.046   3.172 -1.3792 -0.5945 -1.0520
   13MOL   H268 4372   2.472   2.839   3.080  0.8805  0.2049  0.2198
   13MOL   H269 4373   2.416   2.895   2.873  0.1792 -2.2775  0.6907
   13MOL   H270 4374   2.262   2.940   2.694  0.8139 -3.7869 -1.3210
   13MOL   H271 4375   2.013   2.913   2.739 -1.0397  1.5851  0.7106
   13MOL   H272 4376   1.940   2.841   2.976  0.3186 -0.4216  0.7065
   13MOL   H273 4377   2.103   2.820   3.149  2.0411 -2.4725  0.2265
   13MOL   C274 4378   2.419   2.608   3.141 -0.5991  0.4936 -0.3777
   13MOL   C275 4379   2.399   2.482   3.228  0.1740  0.2802  0.2676
   13MOL   C276 4380   2.472   2.477   3.360  0.1529  1.3430  0.0145
   13MOL   C277 4381   2.538   2.591   3.421 -0.6422 -0.2226 -0.4158
   13MOL   C278 4382   2.608   2.571   3.547  0.9648  0.8955  0.1846
   13MOL   C279 4383   2.627   2.442   3.601  0.0444  0.1488 -0.7329
   13MOL   C280 4384   2.571   2.333   3.536  0.0024 -0.4307 -0.0627
   13MOL   C281 4385   2.495   2.350   3.417  0.2871  0.3585 -0.7740
   13MOL   O282 4386   2.442   2.372   3.144  0.4019  0.3141  0.1652
   13MOL   H283 4387   2.378   2.586   3.042  0.6219  1.8861 -1.2124
   13MOL   H284 4388   2.525   2.623   3.121 -0.4986  0.1420 -0.1332
   13MOL   H285 4389   2.291   2.476   3.243  0.0494 -0.0822 -0.6888
   13MOL   H286 4390   2.521   2.693   3.390  1.6830  0.2453 -0.1999
   13MOL   H287 4391   2.643   2.654   3.606  0.0180 -0.3404  2.5213
   13MOL   H288 4392   2.678   2.427   3.694 -0.3904  2.5078 -0.0816
   13MOL   H289 4393   2.586   2.236   3.583 -0.3444 -0.1654  0.6102
   13MOL   H290 4394   2.439   2.271   3.370 -1.3076  1.1153 -0.2043
   13MOL   C291 4395   2.343   2.273   3.114 -0.6860 -0.0955  0.6866
   13MOL   C292 4396   2.408   2.183   3.008 -0.2089 -0.5269 -0.5872
   13MOL   C293 4397   2.518   2.095   3.065  1.0876  0.4121  0.5320
   13MOL   C294 4398   2.637   2.160   3.081 -0.1600 -0.0845 -0.6425
   13MOL   C295 4399   2.740   2.084   3.139  0.2193  0.1738  0.8180
   13MOL   C296 4400   2.717   1.947   3.176  0.0956 -0.2061 -0.7087
   13MOL   C297 4401   2.593   1.888   3.149  0.4223  0.1761  0.0549
   13MOL   C298 4402   2.491   1.961   3.100  0.0172 -0.6668  0.1430
   13MOL   O299 4403   2.299   2.101   2.965  0.3733  0.3055 -0.2079
   13MOL   H300 4404   2.247   2.311   3.079 -1.1458  0.9936  3.0046
   13MOL   H301 4405   2.319   2.213   3.202 -0.3560 -1.5732 -0.2143
   13MOL   H302 4406   2.451   2.237   2.923 -0.7159 -0.4220 -0.7773
   13MOL   H303 4407   2.650   2.264   3.052 -1.6338 -0.0512 -1.2299
   13MOL   H304 4408   2.835   2.135   3.150 -0.6045  1.9760 -0.2728
   13MOL   H305 4409   2.796   1.888   3.220  0.1710  2.5352  3.0981
   13MOL   H306 4410   2.569   1.790   3.187  0.8034 -0.0034 -0.1539
   13MOL   H307 4411   2.390   1.921   3.092 -0.5708  1.2114 -2.1888
   13MOL   C308 4412   2.314   2.033   2.845 -0.3069  0.1976 -0.5434
   13MOL   C309 4413   2.304   2.121   2.722 -0.2417 -0.4289  0.0130
   13MOL   C310 4414   2.196   2.230   2.729  0.5447  0.8296  0.1006
   13MOL   C311 4415   2.229   2.355   2.789 -0.1697  0.3767 -0.1604
   13MOL   C312 4416   2.135   2.461   2.791 -0.3053  0.5647  0.1685
   13MOL   C313 4417   2.005   2.442   2.750  0.4697  0.6113  0.3135
   13MOL   C314 4418   1.965   2.318   2.697 -0.4503  0.1915  0.1980
   13MOL   C315 4419   2.061   2.212   2.687 -0.3229 -0.8304  0.8726
   13MOL   O316 4420   2.429   2.168   2.681  0.1745 -0.0421 -0.3077
   13MOL   H317 4421   2.231   1.961   2.847  0.9263 -1.2524 -0.7729
   13MOL   H318 4422   2.409   1.980   2.850 -0.1359  0.5277 -0.2467
   13MOL   H319 4423   2.273   2.058   2.638  0.0006  1.2580 -1.3844
   13MOL   H320 4424   2.331   2.361   2.823 -0.1438 -2.4988  0.4095
   13MOL   H321 4425   2.175   2.559   2.811 -1.4472  0.7923  1.4769
   13MOL   H322 4426   1.931   2.520   2.754  0.5310  0.5914  1.8946
   13MOL   H323 4427   1.864   2.293   2.666 -0.2766  1.1296 -1.1663
   13MOL   H324 4428   2.030   2.113   2.658 -2.5020 -0.1595  0.8159
   13MOL   C325 4429   2.457   2.185   2.537 -0.2937 -0.2373 -0.1131
   13MOL   C326 4430   2.599   2.247   2.527  0.4080  0.2693  0.4737
   13MOL   C327 4431   2.631   2.345   2.642 -0.3068 -0.0093  0.1669
   13MOL   C328 4432   2.736   2.323   2.732  0.5986  0.6571  0.1353
   13MOL   C329 4433   2.741   2.407   2.845  0.1533  0.5350 -0.6283
   13MOL   C330 4434   2.661   2.524   2.852 -0.0498 -0.2300  0.0034
   13MOL   C331 4435   2.566   2.555   2.754  0.5362  0.2699  0.1501
   13MOL   C332 4436   2.548   2.461   2.654 -0.5144 -0.4334  0.1580
   13MOL   O333 4437   2.686   2.135   2.542 -0.0632 -0.2567 -0.5477
   13MOL   H334 4438   2.386   2.259   2.501  0.1350 -0.1447 -0.7609
   13MOL   H335 4439   2.446   2.091   2.484  0.6096 -0.5532  0.2436
   13MOL   H336 4440   2.608   2.298   2.431 -1.9351  2.2515  1.2663
   13MOL   H337 4441   2.795   2.233   2.735  1.0790  1.0168  1.2511
   13MOL   H338 4442   2.810   2.380   2.923 -0.7535 -0.0016 -0.0143
   13MOL   H339 4443   2.654   2.584   2.941  0.6902 -0.2012  0.0455
   13MOL   H340 4444   2.500   2.641   2.757  1.4838  0.9616  2.7854
   13MOL   H341 4445   2.468   2.474   2.583 -0.6490 -2.9802 -0.1986
   13MOL   H342 4446   2.707   2.134   2.634  2.1568  2.4286 -0.9712
   14MOL     C1 4447   1.350   5.244   1.159 -0.9639 -0.2861  0.6367
   14MOL     C2 4448   1.333   5.196   1.017 -0.7929 -0.2974 -0.4087
   14MOL     C3 4449   1.245   5.296   0.933 -0.3312 -0.7292 -0.2099
   14MOL     C4 4450   1.108   5.270   0.911 -0.0360  0.9905 -0.2206
   14MOL     C5 4451   1.026   5.362   0.849 -0.7878 -0.2356  0.4210
   14MOL     C6 4452   1.084   5.484   0.800  0.3651 -0.3657  0.1011
   14MOL     C7 4453   1.223   5.512   0.827 -0.4633  0.1666 -0.7212
   14MOL     C8 4454   1.303   5.418   0.898 -0.4104  0.5537  0.2087
   14MOL     O9 4455   1.293   5.058   1.012 -0.2544 -0.0723 -0.9076
   14MOL    H10 4456   1.427   5.184   1.208  1.5200  1.7613 -0.5858
   14MOL    H11 4457   1.386   5.347   1.160  0.0435 -0.6329  0.9192
   14MOL    H12 4458   1.421   5.206   0.953  2.4399  3.0075  4.2278
   14MOL    H13 4459   1.075   5.172   0.942 -1.6823  0.5512 -3.2048
   14MOL    H14 4460   0.922   5.336   0.835 -0.9891  0.6628  0.1918
   14MOL    H15 4461   1.023   5.557   0.749  2.6586  0.7282 -1.2050
   14MOL    H16 4462   1.255   5.611   0.797  2.2892 -0.4753  0.0076
   14MOL    H17 4463   1.406   5.439   0.923 -0.0245 -0.9680 -0.0234
   14MOL    H18 4464   1.252   5.249   1.206 -0.6398  0.3203  1.2593
   14MOL    C19 4465   1.398   4.958   1.023  0.2229 -0.5970  0.1142
   14MOL    C20 4466   1.354   4.825   0.983  0.5079  0.1227 -0.2933
   14MOL    C21 4467   1.332   4.830   0.836  0.4117 -0.0992  0.1685
   14MOL    C22 4468   1.202   4.868   0.789 -0.4034  0.1781 -0.0188
   14MOL    C23 4469   1.181   4.901   0.654  0.2818 -0.6509  0.2488
   14MOL    C24 4470   1.286   4.885   0.559  0.2631  0.2084  0.6637
   14MOL    C25 4471   1.412   4.844   0.602 -0.1768  0.1966 -0.0348
   14MOL    C26 4472   1.437   4.824   0.741 -0.5037  0.1542  0.6955
   14MOL    O27 4473   1.234   4.790   1.046 -0.2296  0.3038 -0.5461
   14MOL    H28 4474   1.479   4.986   0.956 -0.5820  2.0789  0.2023
   14MOL    H29 4475   1.431   4.976   1.126 -0.9560  1.5599  0.1357
   14MOL    H30 4476   1.426   4.748   1.011 -1.4720 -1.3960  0.6630
   14MOL    H31 4477   1.119   4.884   0.857 -1.0872 -0.3927 -0.6915
   14MOL    H32 4478   1.086   4.941   0.621  0.8410  0.1617 -0.3955
   14MOL    H33 4479   1.268   4.916   0.457 -1.6631  0.3396  1.0273
   14MOL    H34 4480   1.500   4.852   0.540 -1.0465 -2.3071 -1.6526
   14MOL    H35 4481   1.540   4.811   0.768 -0.2672  3.5901  1.6760
   14MOL    C36 4482   1.210   4.647   1.054 -0.4551 -0.4541  0.1888
   14MOL    C37 4483   1.062   4.636   1.094  0.1316 -0.8994 -0.2216
   14MOL    C38 4484   0.960   4.687   0.991  0.3872  0.1615  0.2095
   14MOL    C39 4485   0.877   4.798   1.024  0.2113 -0.0360 -0.0782
   14MOL    C40 4486   0.798   4.858   0.922 -0.3979  0.5596  0.6653
   14MOL    C41 4487   0.787   4.795   0.797 -0.0130  1.3450 -0.0282
   14MOL    C42 4488   0.862   4.679   0.763 -0.3669  0.2990  0.1801
   14MOL    C43 4489   0.954   4.632   0.861 -0.7033  0.0225 -0.3139
   14MOL    O44 4490   1.042   4.688   1.222  0.1471  0.3008  0.0164
   14MOL    H45 4491   1.245   4.598   0.963  1.4908  1.7469 -0.2957
   14MOL    H46 4492   1.262   4.597   1.135  0.6971 -0.1532 -0.3476
   14MOL    H47 4493   1.037   4.531   1.102 -0.4672 -0.6119  2.0545
   14MOL    H48 4494   0.875   4.839   1.124 -0.5077 -0.7703  0.2089
   14MOL    H49 4495   0.739   4.945   0.946 -0.3493  0.9262 -0.5169
   14MOL    H50 4496   0.712   4.825   0.726  0.2074  1.0621 -0.3818
   14MOL    H51 4497   0.852   4.630   0.668 -1.9349 -0.0855  0.5289
   14MOL    H52 4498   1.042   4.577   0.833 -0.5287 -0.8208  1.8073
   14MOL    C53 4499   1.084   4.614   1.333 -0.0188 -0.0772 -0.6294
   14MOL    C54 4500   1.097   4.707   1.455 -0.0772 -1.1512  0.6315
   14MOL    C55 4501   1.078   4.639   1.595  0.2539  0.1847  0.1965
   14MOL    C56 4502   0.955   4.603   1.638  0.1459 -0.1966  0.4597
   14MOL    C57 4503   0.933   4.547   1.768  0.0388  0.0692  0.4281
   14MOL    C58 4504   1.041   4.530   1.858 -0.0639 -0.1338  0.1496
   14MOL    C59 4505   1.166   4.584   1.819  0.5012  0.5664 -0.4402
   14MOL    C60 4506   1.184   4.632   1.690 -0.2089 -0.1904  0.0051
   14MOL    O61 4507   1.221   4.782   1.456 -0.5333  0.0937  0.0707
   14MOL    H62 4508   1.007   4.539   1.351 -0.8193  0.1990 -2.7224
   14MOL    H63 4509   1.179   4.562   1.325  0.0495  0.1341 -1.2145
   14MOL    H64 4510   1.018   4.782   1.457 -0.4646 -1.5664  1.8887
   14MOL    H65 4511   0.862   4.616   1.583 -0.9283  0.1395  2.2915
   14MOL    H66 4512   0.831   4.514   1.787 -0.5687  0.4219 -2.1290
   14MOL    H67 4513   1.023   4.485   1.955 -0.0206  0.0771  0.2548
   14MOL    H68 4514   1.245   4.587   1.892 -1.2248 -2.2156  1.6308
   14MOL    H69 4515   1.285   4.654   1.661  0.5797 -1.5051  1.6763
   14MOL    C70 4516   1.224   4.893   1.372  0.1911 -0.2802  0.6961
   14MOL    C71 4517   1.202   5.029   1.444  0.6213  0.4894 -0.4898
   14MOL    C72 4518   1.318   5.046   1.540 -0.5119  0.0947 -0.3472
   14MOL    C73 4519   1.424   5.128   1.508 -0.4423  0.2359  0.6329
   14MOL    C74 4520   1.528   5.139   1.604  0.2152 -0.1965 -0.5440
   14MOL    C75 4521   1.528   5.075   1.729 -0.0470 -0.1074  0.5032
   14MOL    C76 4522   1.413   5.007   1.765  0.4362 -0.4021 -0.2550
   14MOL    C77 4523   1.306   4.992   1.671 -0.0050  0.4975 -0.2102
   14MOL    O78 4524   1.078   5.044   1.513  0.0597  0.0347  0.6135
   14MOL    H79 4525   1.315   4.885   1.312  0.1387  1.1668  0.4023
   14MOL    H80 4526   1.145   4.898   1.297  0.7332 -3.5949 -0.1456
   14MOL    H81 4527   1.204   5.106   1.368 -1.4038 -0.5187 -1.5948
   14MOL    H82 4528   1.436   5.169   1.409  0.9898 -0.1836  0.6278
   14MOL    H83 4529   1.613   5.204   1.587  0.3095  0.2539  1.4897
   14MOL    H84 4530   1.614   5.079   1.795  0.0920 -0.6549  0.3647
   14MOL    H85 4531   1.409   4.969   1.866 -2.4532  0.5214  0.0124
   14MOL    H86 4532   1.218   4.937   1.702  0.9358 -1.6427 -1.1645
   14MOL    C87 4533   1.052   5.172   1.579 -0.3721  0.3078  0.2190
   14MOL    C88 4534   1.001   5.275   1.481 -0.6034  0.1835  0.3733
   14MOL    C89 4535   0.894   5.217   1.379 -0.2109 -0.1395 -0.2978
   14MOL    C90 4536   0.923   5.179   1.243  0.3787 -0.2220  0.5070
   14MOL    C91 4537   0.820   5.119   1.173 -0.2035  0.2358 -0.0515
   14MOL    C92 4538   0.699   5.077   1.230  0.3581  0.1027  1.1906
   14MOL    C93 4539   0.681   5.098   1.368  0.1351 -1.4016  0.2560
   14MOL    C94 4540   0.779   5.165   1.443  0.0943  0.0700 -0.0685
   14MOL    O95 4541   1.108   5.338   1.414  0.6848  0.0121 -0.0609
   14MOL    H96 4542   1.137   5.219   1.629  0.3103 -0.7308  0.0537
   14MOL    H97 4543   0.970   5.173   1.651  0.3733  2.5823  1.0804
   14MOL    H98 4544   0.951   5.349   1.545  1.0212  1.6453 -0.0240
   14MOL    H99 4545   1.015   5.197   1.189 -1.1394  1.3981 -1.6212
   14MOL   H100 4546   0.853   5.091   1.074  1.3115  0.8234  0.2704
   14MOL   H101 4547   0.626   5.025   1.169 -0.2055 -1.6160  3.2557
   14MOL   H102 4548   0.594   5.058   1.418 -1.9376  1.6842 -0.7375
   14MOL   H103 4549   0.765   5.174   1.550 -1.3902 -2.4192 -0.0080
   14MOL   C104 4550   1.093   5.478   1.395 -0.2235 -0.1839  0.1588
   14MOL   C105 4551   1.183   5.547   1.495  1.0172 -0.5777  0.1098
   14MOL   C106 4552   1.326   5.560   1.446 -0.1899 -0.0551  0.1090
   14MOL   C107 4553   1.416   5.463   1.492 -0.6351 -0.3337  0.0339
   14MOL   C108 4554   1.546   5.448   1.438 -0.5087  0.4931 -0.4564
   14MOL   C109 4555   1.583   5.548   1.342  0.6665 -0.2839  0.4536
   14MOL   C110 4556   1.493   5.651   1.302  0.1044  1.0573 -0.3554
   14MOL   C111 4557   1.360   5.655   1.348 -0.1603 -0.0844  0.9515
   14MOL   O112 4558   1.109   5.663   1.521  0.4976  0.0266 -0.7273
   14MOL   H113 4559   1.109   5.506   1.291  0.1827  0.0150  0.2747
   14MOL   H114 4560   0.989   5.507   1.409 -0.8112 -2.1025 -0.1514
   14MOL   H115 4561   1.178   5.491   1.589 -0.4720  1.0280  1.0122
   14MOL   H116 4562   1.380   5.383   1.555 -0.2728  0.1981  0.9337
   14MOL   H117 4563   1.608   5.363   1.461 -1.2496  0.0061 -0.2533
   14MOL   H118 4564   1.687   5.549   1.313  1.3139 -0.7006  2.6243
   14MOL   H119 4565   1.529   5.716   1.223 -0.1235  0.8191 -0.6581
   14MOL   H120 4566   1.280   5.722   1.320  0.6813  1.2164  1.6098
   14MOL   C121 4567   1.174   5.747   1.621 -0.1849 -0.6909  0.4426
   14MOL   C122 4568   1.081   5.855   1.670 -0.2790  0.4683 -0.2077
   14MOL   C123 4569   0.935   5.812   1.689  0.3330  0.1293  0.2891
   14MOL   C124 4570   0.840   5.834   1.590 -0.3519  0.6120  0.4340
   14MOL   C125 4571   0.712   5.787   1.601 -0.1829 -0.1256  0.1880
   14MOL   C126 4572   0.678   5.702   1.713 -0.1089 -0.0017 -0.2261
   14MOL   C127 4573   0.776   5.677   1.813  0.4148  0.3789 -0.0526
   14MOL   C128 4574   0.902   5.736   1.800  0.2353 -0.1718 -0.2146
   14MOL   O129 4575   1.139   5.918   1.784 -0.7797  0.8332 -0.5417
   14MOL   H130 4576   1.271   5.780   1.581 -1.1022 -0.4063 -1.6415
   14MOL   H131 4577   1.203   5.675   1.697  3.0216 -0.4149 -0.4242
   14MOL   H132 4578   1.075   5.925   1.586  0.1341 -0.2353 -0.8335
   14MOL   H133 4579   0.861   5.897   1.504  0.6319 -0.9979 -0.5371
   14MOL   H134 4580   0.643   5.800   1.519  1.2150 -2.0458 -1.3617
   14MOL   H135 4581   0.580   5.658   1.721  0.3809 -1.2022 -0.6179
   14MOL   H136 4582   0.747   5.612   1.893  0.5262  1.0607  0.5480
   14MOL   H137 4583   0.984   5.715   1.867  1.6143  2.5533 -0.9644
   14MOL   C138 4584   1.166   6.055   1.777 -0.3061 -0.6666 -0.2229
   14MOL   C139 4585   1.289   6.089   1.688 -0.0015  0.2618  0.0943
   14MOL   C140 4586   1.415   6.009   1.711 -0.1333  0.0862 -0.4831
   14MOL   C141 4587   1.482   5.931   1.614 -0.0713  0.2176  0.4808
   14MOL   C142 4588   1.592   5.855   1.661  0.4078  0.1606  0.8639
   14MOL   C143 4589   1.618   5.840   1.803 -0.1252 -0.2994  0.3592
   14MOL   C144 4590   1.555   5.922   1.893  0.4450 -0.3022  0.0590
   14MOL   C145 4591   1.450   6.006   1.847 -0.1648  0.8081  0.0074
   14MOL   O146 4592   1.251   6.098   1.553 -0.3164 -0.3727 -0.1871
   14MOL   H147 4593   1.174   6.079   1.883  1.5568  0.0566 -0.5005
   14MOL   H148 4594   1.076   6.104   1.741  0.4657  1.4662  0.6199
   14MOL   H149 4595   1.314   6.192   1.711  0.7262  0.1318 -0.0865
   14MOL   H150 4596   1.471   5.942   1.508 -1.3120  0.3002  0.6049
   14MOL   H151 4597   1.658   5.804   1.592 -0.1254 -0.7029  1.0025
   14MOL   H152 4598   1.693   5.780   1.852 -0.0883 -1.0450 -0.6013
   14MOL   H153 4599   1.575   5.916   1.999  0.4853  2.5626  0.2713
   14MOL   H154 4600   1.396   6.062   1.921 -0.3188 -1.1030  1.3775
   14MOL   C155 4601   1.182   6.217   1.502 -0.2518  0.3767 -0.1915
   14MOL   C156 4602   1.225   6.250   1.359 -0.2443  1.4690  0.1151
   14MOL   C157 4603   1.259   6.121   1.283 -0.5770  0.5344  0.6852
   14MOL   C158 4604   1.394   6.088   1.268 -0.1753  0.4304 -0.5985
   14MOL   C159 4605   1.427   5.972   1.195  0.4038  0.4432  0.2958
   14MOL   C160 4606   1.322   5.894   1.148 -0.2373 -0.8553  0.0213
   14MOL   C161 4607   1.186   5.929   1.158  0.2642 -0.2039 -0.5718
   14MOL   C162 4608   1.154   6.038   1.237 -0.0135 -0.5397 -0.1906
   14MOL   O163 4609   1.118   6.319   1.288 -0.2719 -0.0217  0.2461
   14MOL   H164 4610   1.174   6.300   1.572  1.8181  0.6600 -0.2592
   14MOL   H165 4611   1.076   6.193   1.498 -0.2306  0.3654 -0.7831
   14MOL   H166 4612   1.303   6.324   1.377  1.8830 -0.6372 -0.2925
   14MOL   H167 4613   1.461   6.153   1.323  0.5166 -0.6845 -0.1002
   14MOL   H168 4614   1.527   5.933   1.202  0.4417  0.5048  0.1021
   14MOL   H169 4615   1.353   5.808   1.092  1.2827  0.3194 -0.9755
   14MOL   H170 4616   1.109   5.861   1.123 -0.7233  0.7755 -0.3235
   14MOL   H171 4617   1.052   6.073   1.229 -0.2333 -0.7880  1.3593
   14MOL   C172 4618   1.161   6.378   1.165 -0.2653  0.3574  0.3768
   14MOL   C173 4619   1.051   6.480   1.112 -0.3617 -0.5174 -0.7657
   14MOL   C174 4620   1.089   6.515   0.973  0.2212 -0.1250  0.7845
   14MOL   C175 4621   1.053   6.429   0.867 -0.4122  0.4637  0.0417
   14MOL   C176 4622   1.086   6.467   0.736 -0.6693 -0.0006 -1.2174
   14MOL   C177 4623   1.173   6.570   0.704  0.4114 -0.8505  0.7994
   14MOL   C178 4624   1.218   6.652   0.810  1.0789 -0.4048  0.0098
   14MOL   C179 4625   1.165   6.626   0.943 -0.0770 -0.3202 -0.7247
   14MOL   O180 4626   1.042   6.590   1.196 -0.6405  0.0955  0.3277
   14MOL   H181 4627   1.259   6.425   1.171  0.7565 -1.6378 -0.2375
   14MOL   H182 4628   1.171   6.302   1.088 -1.5240 -1.0570  1.5735
   14MOL   H183 4629   0.960   6.421   1.108  0.2455 -1.5595  0.3756
   14MOL   H184 4630   0.994   6.340   0.885 -0.5659  0.1311 -2.0093
   14MOL   H185 4631   1.041   6.412   0.655  0.3263  0.1500 -1.8769
   14MOL   H186 4632   1.196   6.594   0.602 -0.5767  0.3728  0.8636
   14MOL   H187 4633   1.278   6.737   0.779 -0.4413  1.0103  0.8404
   14MOL   H188 4634   1.191   6.698   1.020  1.4860  0.5227 -2.0102
   14MOL   C189 4635   0.931   6.673   1.162 -0.3148  0.4439  0.1794
   14MOL   C190 4636   0.928   6.790   1.257  0.1279 -0.1655 -0.2952
   14MOL   C191 4637   0.796   6.873   1.238 -0.0711 -0.3891 -0.4197
   14MOL   C192 4638   0.677   6.820   1.286  0.3271 -0.1880  0.7716
   14MOL   C193 4639   0.558   6.892   1.268 -0.5509 -0.0714  0.7769
   14MOL   C194 4640   0.560   7.007   1.190 -0.3887  0.0023 -0.5999
   14MOL   C195 4641   0.677   7.059   1.132 -0.9507 -0.2287  0.1444
   14MOL   C196 4642   0.792   6.988   1.156 -0.2911  0.1445 -0.3283
   14MOL   O197 4643   1.039   6.866   1.216 -0.6626 -0.1962  0.3057
   14MOL   H198 4644   0.932   6.697   1.055  0.3989 -0.3205  0.0064
   14MOL   H199 4645   0.847   6.608   1.182 -0.3717  0.7061  0.7838
   14MOL   H200 4646   0.934   6.753   1.359  0.1858 -1.7153 -0.8522
   14MOL   H201 4647   0.673   6.726   1.340 -1.4950 -2.0632 -2.5179
   14MOL   H202 4648   0.464   6.858   1.309  0.0815  1.5517  3.7005
   14MOL   H203 4649   0.468   7.064   1.193 -0.6549 -0.4620  0.1508
   14MOL   H204 4650   0.681   7.156   1.085 -0.2288 -1.6841 -2.9169
   14MOL   H205 4651   0.888   7.012   1.113  0.2021  0.3661  0.8796
   14MOL   C206 4652   1.096   6.948   1.317  0.1605  0.2402 -0.2042
   14MOL   C207 4653   1.231   7.001   1.278 -0.0709  0.9829 -0.1081
   14MOL   C208 4654   1.323   6.909   1.200 -0.2245  0.2736 -0.6432
   14MOL   C209 4655   1.398   6.953   1.089  0.5245  0.0885  0.5395
   14MOL   C210 4656   1.485   6.861   1.021  0.8734  0.9831  0.1342
   14MOL   C211 4657   1.505   6.730   1.064  0.4754 -0.2576  0.0562
   14MOL   C212 4658   1.427   6.690   1.175 -0.3923  0.0499 -0.1020
   14MOL   C213 4659   1.335   6.770   1.244  0.1238 -0.0861 -0.1218
   14MOL   O214 4660   1.297   7.063   1.388  0.1446  0.4141 -0.3365
   14MOL   H215 4661   1.030   7.034   1.329  1.0966  0.8100  1.0237
   14MOL   H216 4662   1.111   6.889   1.407  0.2122 -0.3135 -0.5739
   14MOL   H217 4663   1.214   7.083   1.207 -0.9431  0.9746  0.0759
   14MOL   H218 4664   1.391   7.056   1.058 -0.8983  0.5637  2.3844
   14MOL   H219 4665   1.535   6.893   0.931 -0.5512 -0.9234 -1.3782
   14MOL   H220 4666   1.582   6.670   1.017  0.4413  1.1344 -1.8091
   14MOL   H221 4667   1.439   6.591   1.215  2.1185  0.7304  0.9440
   14MOL   H222 4668   1.278   6.736   1.329 -0.4663 -2.0697 -1.2839
   14MOL   C223 4669   1.407   7.148   1.357  0.0470 -0.7858  0.1263
   14MOL   C224 4670   1.381   7.283   1.424  0.8654  0.5718 -0.2394
   14MOL   C225 4671   1.505   7.368   1.411 -0.6570 -0.5504 -0.4598
   14MOL   C226 4672   1.527   7.445   1.294 -0.2016  0.4609  0.6744
   14MOL   C227 4673   1.647   7.512   1.283  0.0075 -0.2638  0.4360
   14MOL   C228 4674   1.747   7.510   1.381 -0.1605  0.0218 -0.5076
   14MOL   C229 4675   1.722   7.438   1.504 -0.0617  0.5123 -0.1280
   14MOL   C230 4676   1.602   7.367   1.514  0.5378  0.5729  0.5590
   14MOL   O231 4677   1.268   7.344   1.365  0.3089  0.4554 -0.5632
   14MOL   H232 4678   1.490   7.099   1.408 -0.8950 -2.3096  0.2574
   14MOL   H233 4679   1.414   7.174   1.252  0.3058 -0.0614  0.3167
   14MOL   H234 4680   1.365   7.253   1.527  0.5610  1.5074 -0.0155
   14MOL   H235 4681   1.453   7.450   1.216  0.2016  0.5152  0.2944
   14MOL   H236 4682   1.671   7.565   1.192 -0.3825 -0.0817  0.4380
   14MOL   H237 4683   1.844   7.552   1.363 -0.3523  0.5352 -0.3480
   14MOL   H238 4684   1.797   7.442   1.582 -1.1497  1.6099  0.8944
   14MOL   H239 4685   1.576   7.308   1.601 -0.4588 -0.9600 -0.7364
   14MOL   C240 4686   1.223   7.466   1.439  0.0342  0.4296 -0.2579
   14MOL   C241 4687   1.124   7.447   1.555 -0.1014  0.0347 -0.0946
   14MOL   C242 4688   1.168   7.355   1.668  0.8919  0.3852 -0.0888
   14MOL   C243 4689   1.151   7.208   1.659 -0.0330  0.2327  0.6584
   14MOL   C244 4690   1.189   7.130   1.769  0.4698  0.0812  0.7266
   14MOL   C245 4691   1.255   7.187   1.876 -0.2233 -0.0578  0.3600
   14MOL   C246 4692   1.261   7.327   1.892 -0.4921 -0.5153 -0.5329
   14MOL   C247 4693   1.217   7.411   1.783 -0.6162 -1.5598 -0.0896
   14MOL   O248 4694   1.095   7.577   1.592 -0.3026  0.2270 -0.3446
   14MOL   H249 4695   1.306   7.512   1.492 -1.2318  0.9252  1.3269
   14MOL   H250 4696   1.193   7.542   1.367  2.5027  1.9196  0.2224
   14MOL   H251 4697   1.038   7.398   1.508 -1.9966  1.2422  2.0029
   14MOL   H252 4698   1.119   7.149   1.574 -0.8941 -0.2769  1.3277
   14MOL   H253 4699   1.179   7.022   1.771 -0.2743  0.0385 -2.3931
   14MOL   H254 4700   1.297   7.128   1.956  0.8846 -0.7652 -0.7283
   14MOL   H255 4701   1.310   7.364   1.980  2.9611 -2.7021 -1.3948
   14MOL   H256 4702   1.236   7.517   1.783 -0.7535 -1.5308  0.8327
   14MOL   C257 4703   0.984   7.591   1.684 -0.6329 -0.3834  0.0666
   14MOL   C258 4704   1.004   7.712   1.773  0.0591 -0.2274 -0.4760
   14MOL   C259 4705   1.045   7.839   1.700  0.3049 -0.0439  0.4826
   14MOL   C260 4706   0.950   7.943   1.692  0.1211 -0.1953 -0.4112
   14MOL   C261 4707   0.981   8.059   1.618 -0.7273 -0.2912 -0.2256
   14MOL   C262 4708   1.114   8.080   1.575 -0.1702 -0.3638  0.0583
   14MOL   C263 4709   1.209   7.981   1.596 -0.6560 -0.0340 -0.8257
   14MOL   C264 4710   1.177   7.859   1.653 -0.4093  0.9622 -0.2482
   14MOL   O265 4711   1.089   7.672   1.876  0.3392 -0.0914 -0.3038
   14MOL   H266 4712   0.959   7.506   1.748 -1.5117  0.8681  1.4183
   14MOL   H267 4713   0.899   7.608   1.619  0.0558 -0.7924 -0.9497
   14MOL   H268 4714   0.909   7.732   1.822  0.1889  1.0150 -0.7144
   14MOL   H269 4715   0.853   7.931   1.736  0.0137  1.4238 -0.1489
   14MOL   H270 4716   0.898   0.048   1.611 -1.4921 -1.3109 -1.2449
   14MOL   H271 4717   1.138   0.095   1.530 -3.7358 -0.0971 -1.3713
   14MOL   H272 4718   1.305   8.007   1.554 -0.3307  2.0998  1.1778
   14MOL   H273 4719   1.247   7.777   1.667  0.5938  1.7727 -0.4017
   14MOL   C274 4720   1.107   7.759   1.985 -0.7984  0.0404 -0.2851
   14MOL   C275 4721   1.217   7.705   2.071 -0.2660 -0.2252 -0.9085
   14MOL   C276 4722   1.178   7.622   2.188  0.4827  0.1191 -0.2190
   14MOL   C277 4723   1.075   7.527   2.177  0.1561  0.1720  0.2402
   14MOL   C278 4724   1.046   7.436   2.278 -0.4480 -0.1403 -0.0083
   14MOL   C279 4725   1.121   7.435   2.394 -0.2850 -0.5283  0.0170
   14MOL   C280 4726   1.232   7.517   2.399  0.5345  0.6448  0.6170
   14MOL   C281 4727   1.261   7.617   2.305  0.1248  0.5862  0.1578
   14MOL   O282 4728   1.291   7.822   2.113 -0.5559  0.1533  0.5865
   14MOL   H283 4729   1.133   7.855   1.939 -3.1543 -0.0024 -1.7925
   14MOL   H284 4730   1.013   7.771   2.038 -0.8863  0.8279 -0.6087
   14MOL   H285 4731   1.272   7.641   2.002 -0.7756  0.0277 -1.5631
   14MOL   H286 4732   1.013   7.516   2.090 -0.1510 -0.3890  0.5266
   14MOL   H287 4733   0.957   7.375   2.278 -0.9427  0.5602 -0.7539
   14MOL   H288 4734   1.109   7.374   2.482 -1.9483  2.2851  1.8081
   14MOL   H289 4735   1.282   7.516   2.494 -0.4606  0.5631  1.1427
   14MOL   H290 4736   1.339   7.691   2.313 -1.6028  2.6660 -1.6988
   14MOL   C291 4737   1.402   7.854   2.038 -0.1281  0.1028  0.6417
   14MOL   C292 4738   1.444   7.997   2.084 -0.4494  0.7418 -0.3396
   14MOL   C293 4739   1.479   8.009   2.233 -0.0256 -0.2132 -0.4549
   14MOL   C294 4740   1.456   0.049   2.300 -0.4962 -0.6002 -0.3152
   14MOL   C295 4741   1.469   0.061   2.440 -0.5726 -0.5952 -0.1931
   14MOL   C296 4742   1.531   8.031   2.504  0.1614 -0.0965  0.1117
   14MOL   C297 4743   1.563   7.912   2.439  0.0093 -0.0620  0.0771
   14MOL   C298 4744   1.533   7.895   2.304  0.6363  0.5613 -0.4110
   14MOL   O299 4745   1.560   8.026   2.008  0.7783 -0.3415 -0.0954
   14MOL   H300 4746   1.369   7.841   1.935  1.8489 -2.3747  0.2900
   14MOL   H301 4747   1.490   7.790   2.046  1.8829  2.2887 -2.7589
   14MOL   H302 4748   1.365   8.068   2.059  0.0718  0.9419 -1.4322
   14MOL   H303 4749   1.425   0.137   2.247 -1.6937  0.1991  1.6636
   14MOL   H304 4750   1.464   0.156   2.492 -0.3356 -0.0765 -1.1075
   14MOL   H305 4751   1.551   8.048   2.609  0.7791 -0.3556  0.0391
   14MOL   H306 4752   1.623   7.845   2.499  2.4413  2.8796  1.0295
   14MOL   H307 4753   1.558   7.805   2.249 -0.1199 -0.6708  1.2097
   14MOL   C308 4754   1.531   8.052   1.866 -0.1357 -0.1145 -0.5333
   14MOL   C309 4755   1.649   8.001   1.785 -0.5713  0.2922 -0.0522
   14MOL   C310 4756   1.649   7.844   1.798  0.3071  0.5130 -0.0076
   14MOL   C311 4757   1.752   7.781   1.875 -0.1105 -0.3683  0.0240
   14MOL   C312 4758   1.753   7.638   1.888  0.4969 -0.1388  0.3682
   14MOL   C313 4759   1.648   7.564   1.826  0.5868 -0.0065  0.0316
   14MOL   C314 4760   1.552   7.627   1.750  0.5901 -0.4049 -0.3191
   14MOL   C315 4761   1.547   7.767   1.743  0.1781 -0.2730  1.4007
   14MOL   O316 4762   1.632   8.032   1.648  0.0371 -0.2596 -0.4120
   14MOL   H317 4763   1.500   0.075   1.846  0.1962  0.4695  1.8289
   14MOL   H318 4764   1.446   8.003   1.819  1.7620 -1.2755 -2.8525
   14MOL   H319 4765   1.746   8.038   1.816 -0.0868 -1.9146  1.1876
   14MOL   H320 4766   1.814   7.848   1.934 -0.9444  1.5985 -1.3024
   14MOL   H321 4767   1.827   7.581   1.942 -0.3306 -3.0459 -1.4210
   14MOL   H322 4768   1.649   7.456   1.818  0.5087  0.1762 -2.8474
   14MOL   H323 4769   1.482   7.571   1.691 -0.6229 -0.3760  1.0642
   14MOL   H324 4770   1.475   7.814   1.677  1.9380 -2.0043 -1.8852
   14MOL   C325 4771   1.680   0.084   1.605 -0.9007 -0.0024  0.0504
   14MOL   C326 4772   1.824   0.090   1.564 -0.1141 -0.4773 -0.9179
   14MOL   C327 4773   1.875   8.054   1.482 -0.1809  0.1715 -0.1849
   14MOL   C328 4774   1.885   8.071   1.343  0.5082  0.1576 -0.1862
   14MOL   C329 4775   1.926   7.964   1.263  0.1672  0.6753 -0.3092
   14MOL   C330 4776   1.961   7.837   1.313 -0.5386  0.0585  0.0173
   14MOL   C331 4777   1.942   7.819   1.454  0.1289  0.6254  0.4799
   14MOL   C332 4778   1.893   7.922   1.533  0.0349  0.1638  0.6749
   14MOL   O333 4779   1.844   0.214   1.495 -0.2624  0.4567  0.2717
   14MOL   H334 4780   1.652   0.167   1.671 -2.4382  0.3673 -1.0412
   14MOL   H335 4781   1.627   0.086   1.510 -1.9702  0.4638  0.6522
   14MOL   H336 4782   1.883   0.084   1.655  0.4112 -1.8677 -1.3277
   14MOL   H337 4783   1.870   0.087   1.295  0.8706  0.7551  0.8897
   14MOL   H338 4784   1.922   7.979   1.156 -0.7722  3.0427  0.0092
   14MOL   H339 4785   1.992   7.755   1.250  1.2431  1.7026 -1.2570
   14MOL   H340 4786   1.951   7.721   1.499  1.2278  0.3168 -0.3938
   14MOL   H341 4787   1.874   7.899   1.636 -0.7526  0.2791  0.5647
   14MOL   H342 4788   1.825   0.286   1.553 -0.8942 -0.0815  0.7397
   15MOL     C1 4789   3.564   1.853   7.313  0.5453 -0.0251 -0.2549
   15MOL     C2 4790   3.611   1.725   7.383  0.2475 -0.2106 -0.4238
   15MOL     C3 4791   3.753   1.742   7.420 -0.5260  0.3943 -0.1289
   15MOL     C4 4792   3.853   1.727   7.320  0.4164 -0.1464 -0.1800
   15MOL     C5 4793   3.990   1.729   7.356 -1.0490 -0.0467  0.3103
   15MOL     C6 4794   4.020   1.760   7.489  0.7142  0.0881  0.4892
   15MOL     C7 4795   3.927   1.773   7.593 -0.1696 -0.0040  0.4555
   15MOL     C8 4796   3.790   1.762   7.555  0.2482  0.1226 -0.8536
   15MOL     O9 4797   3.587   1.638   7.273 -0.3003 -0.1312 -0.4291
   15MOL    H10 4798   3.623   1.868   7.223  0.1301  1.9018 -0.2091
   15MOL    H11 4799   3.459   1.850   7.282  0.7082  0.6591 -0.8735
   15MOL    H12 4800   3.545   1.706   7.468 -1.8033  2.6685 -1.2697
   15MOL    H13 4801   3.822   1.697   7.221  1.6381 -1.5372 -0.1586
   15MOL    H14 4802   4.071   1.735   7.285 -1.0622 -0.2056  0.2818
   15MOL    H15 4803   4.125   1.777   7.507  0.4996  0.4617  1.4216
   15MOL    H16 4804   3.959   1.793   7.694 -1.7521 -0.8363  1.1449
   15MOL    H17 4805   3.714   1.780   7.629  1.3736 -0.3578  0.4553
   15MOL    H18 4806   3.580   1.935   7.382  2.7218 -2.9535  2.8705
   15MOL    C19 4807   3.576   1.502   7.320 -0.0916  0.1085  0.8837
   15MOL    C20 4808   3.593   1.421   7.192 -0.3821  0.3598 -0.0497
   15MOL    C21 4809   3.719   1.455   7.112 -0.0811 -0.2021 -0.0929
   15MOL    C22 4810   3.832   1.376   7.121  0.1942 -0.0025 -0.1798
   15MOL    C23 4811   3.949   1.394   7.050 -0.2654 -0.5434  0.5853
   15MOL    C24 4812   3.953   1.494   6.950 -0.4624  0.4290 -0.1410
   15MOL    C25 4813   3.842   1.576   6.935 -0.2624  0.2922  0.3811
   15MOL    C26 4814   3.725   1.562   7.015 -1.0478  0.9881 -0.5592
   15MOL    O27 4815   3.475   1.447   7.121  0.3942 -0.0326 -0.2572
   15MOL    H28 4816   3.656   1.473   7.388 -0.4012 -0.6323  0.9441
   15MOL    H29 4817   3.483   1.480   7.371 -1.3490 -0.6764 -1.6182
   15MOL    H30 4818   3.587   1.315   7.217 -1.8223 -0.2360 -2.7615
   15MOL    H31 4819   3.825   1.289   7.185 -1.1141  0.5361  0.4210
   15MOL    H32 4820   4.027   1.320   7.053 -0.1851 -0.5181 -0.6097
   15MOL    H33 4821   4.040   1.495   6.886 -1.6039 -0.3263 -1.7201
   15MOL    H34 4822   3.830   1.653   6.860 -1.2725 -1.8830 -1.8075
   15MOL    H35 4823   3.643   1.631   7.002 -0.5728  1.4037 -1.3628
   15MOL    C36 4824   3.450   1.364   7.017  0.2410  0.0334  0.1214
   15MOL    C37 4825   3.388   1.230   7.061  0.0683  0.2360 -0.4008
   15MOL    C38 4826   3.295   1.235   7.185  0.0989 -0.5287  0.5823
   15MOL    C39 4827   3.341   1.203   7.317  0.6792 -0.1042 -0.5662
   15MOL    C40 4828   3.249   1.202   7.429 -0.5737 -0.1355  0.0051
   15MOL    C41 4829   3.120   1.243   7.402 -0.0559  0.0640 -0.2793
   15MOL    C42 4830   3.075   1.268   7.273 -0.2905  0.2572  0.0995
   15MOL    C43 4831   3.158   1.264   7.161 -0.0138 -0.2739  0.6952
   15MOL    O44 4832   3.495   1.136   7.074 -0.5567 -0.6015 -0.1374
   15MOL    H45 4833   3.375   1.420   6.960 -1.6081 -0.1250  2.3499
   15MOL    H46 4834   3.530   1.352   6.944 -0.2810 -0.9035 -0.3038
   15MOL    H47 4835   3.321   1.190   6.985  1.3845  0.9781 -1.9822
   15MOL    H48 4836   3.440   1.168   7.339  0.6576  1.1546  1.7354
   15MOL    H49 4837   3.282   1.178   7.529 -1.4227 -0.3608  0.2439
   15MOL    H50 4838   3.060   1.269   7.487 -0.6824 -1.1024 -0.3486
   15MOL    H51 4839   2.975   1.308   7.266 -1.1377 -1.9282 -0.7488
   15MOL    H52 4840   3.127   1.296   7.062 -1.9226  1.0350  1.6839
   15MOL    C53 4841   3.459   1.002   7.071  0.1201 -0.2853 -0.0611
   15MOL    C54 4842   3.590   0.923   7.070 -0.3677 -0.9239 -0.1221
   15MOL    C55 4843   3.667   0.946   6.943  0.2689  0.5274 -0.4282
   15MOL    C56 4844   3.632   0.872   6.825 -0.5982 -0.3665 -0.6598
   15MOL    C57 4845   3.706   0.895   6.708  0.4524  0.6443  0.4593
   15MOL    C58 4846   3.797   1.001   6.701  0.3756 -0.4087  0.5890
   15MOL    C59 4847   3.828   1.080   6.814  1.1519 -0.2502  0.0268
   15MOL    C60 4848   3.759   1.052   6.934  0.0165  0.5978 -0.1032
   15MOL    O61 4849   3.659   0.954   7.189 -0.2098 -0.0165 -0.9005
   15MOL    H62 4850   3.396   0.982   7.158  2.4821 -0.8025  1.5822
   15MOL    H63 4851   3.407   0.986   6.976  2.3638  2.3742 -1.7928
   15MOL    H64 4852   3.578   0.815   7.070 -0.2588 -0.9373 -0.8037
   15MOL    H65 4853   3.566   0.787   6.839  0.5853 -1.4067 -1.2280
   15MOL    H66 4854   3.688   0.831   6.622  0.7394  0.9326  0.1828
   15MOL    H67 4855   3.851   1.015   6.609  0.1586  2.0756  0.8303
   15MOL    H68 4856   3.909   1.149   6.799  0.6388  0.7019  1.4573
   15MOL    H69 4857   3.783   1.108   7.024 -2.8318  0.5240  0.7568
   15MOL    C70 4858   3.774   0.880   7.215 -0.1952  0.0683 -0.0726
   15MOL    C71 4859   3.735   0.759   7.307  0.3078 -0.1671  0.4245
   15MOL    C72 4860   3.847   0.681   7.373 -0.0589 -0.3592 -0.0734
   15MOL    C73 4861   3.890   0.713   7.506 -0.4751 -0.2397  0.0219
   15MOL    C74 4862   3.989   0.632   7.572 -0.1939  0.4725  0.0767
   15MOL    C75 4863   4.037   0.517   7.506  0.4425 -0.3831 -0.5645
   15MOL    C76 4864   3.999   0.488   7.378 -0.2016 -0.3376  0.4607
   15MOL    C77 4865   3.915   0.575   7.307 -0.0134 -0.6074 -0.3803
   15MOL    O78 4866   3.659   0.669   7.224  0.2387  0.2245 -0.6326
   15MOL    H79 4867   3.831   0.848   7.128  1.2568  1.3849  0.3775
   15MOL    H80 4868   3.842   0.948   7.267  0.5348 -1.8741  1.6094
   15MOL    H81 4869   3.666   0.795   7.383  1.0362 -1.8091  1.9301
   15MOL    H82 4870   3.850   0.798   7.559  4.4591  1.1781  1.7586
   15MOL    H83 4871   4.017   0.650   7.675  1.1217  0.0963 -0.2029
   15MOL    H84 4872   4.100   0.445   7.557  0.6610  0.5364  0.4850
   15MOL    H85 4873   4.012   0.398   7.321  1.0109  0.5821 -0.7332
   15MOL    H86 4874   3.883   0.538   7.211  0.4597  0.2089 -0.8587
   15MOL    C87 4875   3.576   0.569   7.291  0.0643  0.1185 -0.2954
   15MOL    C88 4876   3.527   0.468   7.177 -0.1926  0.4684  0.0508
   15MOL    C89 4877   3.646   0.412   7.091 -0.1462 -0.1034 -0.0533
   15MOL    C90 4878   3.695   0.496   6.990 -0.1632 -0.4498 -0.5216
   15MOL    C91 4879   3.804   0.460   6.908  0.0238 -1.2807  0.3867
   15MOL    C92 4880   3.866   0.336   6.931  0.2410  0.0785  0.0398
   15MOL    C93 4881   3.815   0.238   7.021 -0.1495 -0.6165 -0.2456
   15MOL    C94 4882   3.705   0.281   7.100  0.5745  0.1916  0.3780
   15MOL    O95 4883   3.426   0.526   7.099  0.0103  0.1602 -0.2041
   15MOL    H96 4884   3.491   0.618   7.339 -0.5227 -0.9373 -0.2516
   15MOL    H97 4885   3.636   0.520   7.368 -0.7977  0.4208  0.5846
   15MOL    H98 4886   3.479   0.390   7.236 -1.6630  1.1800 -0.1653
   15MOL    H99 4887   3.651   0.594   6.979 -0.6673 -0.5443  0.5628
   15MOL   H100 4888   3.844   0.527   6.834  0.1398  0.0629  1.6507
   15MOL   H101 4889   3.950   0.310   6.869 -0.0734 -1.9927  0.4535
   15MOL   H102 4890   3.858   0.140   7.032 -0.6390 -0.8293 -0.2103
   15MOL   H103 4891   3.664   0.213   7.173  1.4002  0.0478  0.7163
   15MOL   C104 4892   3.360   0.427   7.020  0.8911  0.0767  0.3473
   15MOL   C105 4893   3.260   0.489   6.913  0.0159 -0.4149 -0.3744
   15MOL   C106 4894   3.173   0.595   6.975 -0.3871 -0.4917  0.1394
   15MOL   C107 4895   3.039   0.575   7.023  0.3886  0.0999  0.2695
   15MOL   C108 4896   2.962   0.688   7.062  0.4414  0.2445  0.2587
   15MOL   C109 4897   3.014   0.821   7.049 -0.2191 -0.0905  0.1094
   15MOL   C110 4898   3.150   0.841   7.011 -0.2454 -0.5640  0.3502
   15MOL   C111 4899   3.228   0.725   6.979 -0.3743  0.0884 -0.8444
   15MOL   O112 4900   3.333   0.543   6.801  0.2407 -0.1066 -0.4619
   15MOL   H113 4901   3.425   0.357   6.967  1.9459  1.1126  0.2629
   15MOL   H114 4902   3.300   0.356   7.076 -1.4364 -0.3520 -2.5311
   15MOL   H115 4903   3.197   0.407   6.879 -0.8985  0.1926 -0.1478
   15MOL   H116 4904   3.002   0.474   7.027  2.9309 -0.9148 -0.6388
   15MOL   H117 4905   2.859   0.672   7.090 -0.3843  1.4567 -1.9295
   15MOL   H118 4906   2.957   0.904   7.089 -0.7309  0.1486 -1.1052
   15MOL   H119 4907   3.187   0.942   7.008  0.2154 -0.7233  0.5805
   15MOL   H120 4908   3.333   0.733   6.956  0.9059 -2.6873  3.5051
   15MOL   C121 4909   3.242   0.581   6.691  0.1801 -1.2262 -0.3556
   15MOL   C122 4910   3.334   0.594   6.560  0.1536  0.6349  0.4195
   15MOL   C123 4911   3.417   0.466   6.538  0.6551  0.1865 -0.2516
   15MOL   C124 4912   3.538   0.453   6.608 -0.4904  0.5233  0.0602
   15MOL   C125 4913   3.616   0.336   6.597  0.5365 -0.7361 -0.2777
   15MOL   C126 4914   3.570   0.233   6.512 -0.9076  0.5099 -0.0731
   15MOL   C127 4915   3.452   0.249   6.442 -1.0152  0.0769 -0.0824
   15MOL   C128 4916   3.372   0.360   6.453  0.4245 -0.2637 -0.1151
   15MOL   O129 4917   3.258   0.635   6.446  0.3308  0.1638 -0.0330
   15MOL   H130 4918   3.187   0.673   6.713 -1.0579 -1.5260 -2.0980
   15MOL   H131 4919   3.166   0.506   6.669  0.3511 -0.6717 -3.0541
   15MOL   H132 4920   3.403   0.675   6.586 -0.7898  0.5835  3.2780
   15MOL   H133 4921   3.573   0.528   6.677  1.6732 -0.5892  0.2195
   15MOL   H134 4922   3.713   0.332   6.646  0.6438  1.8440 -0.2139
   15MOL   H135 4923   3.634   0.147   6.498  0.5018  1.3096  1.3476
   15MOL   H136 4924   3.421   0.163   6.384 -0.9786  0.1197 -0.1661
   15MOL   H137 4925   3.277   0.377   6.405  0.3571 -1.0429 -0.2749
   15MOL   C138 4926   3.311   0.735   6.365 -0.5057 -0.6962  0.1429
   15MOL   C139 4927   3.322   0.696   6.215 -0.6246 -0.3027 -0.2204
   15MOL   C140 4928   3.184   0.682   6.145 -0.7873  0.4780  0.0124
   15MOL   C141 4929   3.145   0.785   6.055  0.2522  0.0560 -0.2612
   15MOL   C142 4930   3.010   0.787   6.011 -0.3844  0.1511  0.0317
   15MOL   C143 4931   2.921   0.686   6.047  0.3389 -0.7234 -0.2157
   15MOL   C144 4932   2.965   0.587   6.131  0.6706  0.2156  0.2445
   15MOL   C145 4933   3.095   0.589   6.187  0.0543 -0.4196 -0.5517
   15MOL   O146 4934   3.412   0.793   6.149  0.9381  0.4896  0.2875
   15MOL   H147 4935   3.416   0.740   6.393 -0.3361  1.0216 -0.7578
   15MOL   H148 4936   3.261   0.830   6.384 -0.0852 -0.9812  2.8975
   15MOL   H149 4937   3.364   0.595   6.217  1.4410  0.4292 -3.0938
   15MOL   H150 4938   3.217   0.859   6.021  1.6093 -1.3487 -0.5135
   15MOL   H151 4939   2.987   0.872   5.949 -1.4661  0.0598  0.2877
   15MOL   H152 4940   2.819   0.681   6.013  0.3800 -2.1586 -0.1346
   15MOL   H153 4941   2.896   0.507   6.154 -1.4284  2.0654  0.5091
   15MOL   H154 4942   3.116   0.513   6.261  0.4695  0.9028  0.7021
   15MOL   C155 4943   3.484   0.733   6.043 -0.7428  0.0627 -0.2847
   15MOL   C156 4944   3.562   0.847   5.975  0.1486  0.2083  0.2708
   15MOL   C157 4945   3.675   0.785   5.896  0.6547  0.2649  0.1731
   15MOL   C158 4946   3.791   0.739   5.958 -0.6908 -0.1911  0.0450
   15MOL   C159 4947   3.902   0.698   5.875  0.3513  0.2720  0.2368
   15MOL   C160 4948   3.889   0.695   5.733  0.3191 -0.8456  1.5139
   15MOL   C161 4949   3.767   0.734   5.669 -0.6850 -1.0899  0.1982
   15MOL   C162 4950   3.664   0.784   5.753 -0.6569 -0.2088  0.0348
   15MOL   O163 4951   3.464   0.910   5.898  0.1735 -0.1736  0.6114
   15MOL   H164 4952   3.421   0.680   5.971 -1.0764 -0.1995  0.1945
   15MOL   H165 4953   3.548   0.655   6.084  1.2569  2.3919  1.1916
   15MOL   H166 4954   3.601   0.924   6.042 -1.8043  1.0722  0.4503
   15MOL   H167 4955   3.800   0.744   6.065  1.1292  1.3351 -0.1640
   15MOL   H168 4956   3.988   0.650   5.918  1.3778  0.5784 -1.4350
   15MOL   H169 4957   3.971   0.658   5.674 -0.7242  0.6738 -0.9990
   15MOL   H170 4958   3.752   0.723   5.562 -0.5328  2.3146 -0.2275
   15MOL   H171 4959   3.568   0.793   5.704 -0.5040 -0.3761 -0.3008
   15MOL   C172 4960   3.482   1.038   5.845 -0.0073  0.1253 -0.0988
   15MOL   C173 4961   3.365   1.074   5.750 -0.1519 -0.7371  0.4525
   15MOL   C174 4962   3.339   0.959   5.654  0.2770 -0.3818 -0.0079
   15MOL   C175 4963   3.262   0.848   5.694 -0.4714  0.2816  0.3219
   15MOL   C176 4964   3.248   0.737   5.603  0.6193 -0.1463  0.4438
   15MOL   C177 4965   3.323   0.742   5.485  0.6624 -0.3128  0.7942
   15MOL   C178 4966   3.394   0.855   5.443  0.1679 -0.9763 -0.5309
   15MOL   C179 4967   3.407   0.960   5.529  0.1868  1.1288  0.6567
   15MOL   O180 4968   3.378   1.199   5.682  0.2456 -0.1784 -0.1019
   15MOL   H181 4969   3.475   1.100   5.934  0.0749 -1.1262  0.7843
   15MOL   H182 4970   3.572   1.048   5.784 -1.5802  0.4210 -2.4452
   15MOL   H183 4971   3.272   1.073   5.805 -0.3720  1.4576  0.1525
   15MOL   H184 4972   3.222   0.859   5.794 -0.0938 -0.5653  0.5705
   15MOL   H185 4973   3.175   0.660   5.621  1.2212 -1.0652 -1.0319
   15MOL   H186 4974   3.328   0.657   5.419  0.6660 -0.0812  0.4956
   15MOL   H187 4975   3.457   0.862   5.356  1.6217 -1.6107  0.4554
   15MOL   H188 4976   3.472   1.040   5.496 -0.7095  1.9123  0.7761
   15MOL   C189 4977   3.425   1.314   5.754 -0.4096 -0.5505  0.4543
   15MOL   C190 4978   3.468   1.420   5.644 -1.2141 -0.2985  0.1751
   15MOL   C191 4979   3.373   1.419   5.516  0.7140 -0.8595  0.8209
   15MOL   C192 4980   3.278   1.516   5.491 -0.2152 -0.5069 -0.7558
   15MOL   C193 4981   3.201   1.520   5.375  0.3958  0.1985  0.0307
   15MOL   C194 4982   3.239   1.432   5.273  0.1153 -0.0657 -0.0369
   15MOL   C195 4983   3.347   1.341   5.290  0.5010  0.5189 -0.0038
   15MOL   C196 4984   3.402   1.328   5.421 -0.1925  0.2725 -0.8617
   15MOL   O197 4985   3.609   1.400   5.599  0.3869  0.6580  0.3947
   15MOL   H198 4986   3.343   1.360   5.809  0.4641  0.3394  1.0391
   15MOL   H199 4987   3.513   1.293   5.814  0.0825  0.2322  0.0250
   15MOL   H200 4988   3.456   1.514   5.697 -2.7869 -0.7548  0.6782
   15MOL   H201 4989   3.258   1.600   5.556  2.2911  1.6540 -2.6609
   15MOL   H202 4990   3.126   1.597   5.367 -0.3397 -0.2821  1.9937
   15MOL   H203 4991   3.195   1.439   5.175  2.3208 -1.0530 -1.1440
   15MOL   H204 4992   3.383   1.271   5.216 -0.5735  1.0276 -1.0264
   15MOL   H205 4993   3.474   1.249   5.433 -0.9845 -0.3935 -0.4229
   15MOL   C206 4994   3.674   1.488   5.515  0.2069 -0.5738  0.0921
   15MOL   C207 4995   3.813   1.425   5.475 -0.4113 -0.2708 -0.3770
   15MOL   C208 4996   3.786   1.281   5.420 -0.9043 -0.0008 -0.0589
   15MOL   C209 4997   3.710   1.253   5.305 -0.6905  0.5171 -0.2226
   15MOL   C210 4998   3.703   1.118   5.260  0.6650 -0.4262 -0.1380
   15MOL   C211 4999   3.754   1.014   5.339  0.4484 -0.4721 -0.2066
   15MOL   C212 5000   3.821   1.040   5.458  0.7025 -0.6030  1.1224
   15MOL   C213 5001   3.838   1.175   5.495 -0.2451 -0.3056  0.1579
   15MOL   O214 5002   3.910   1.425   5.577 -0.5170  0.2445 -0.1490
   15MOL   H215 5003   3.613   1.509   5.427  0.5575  0.8688  0.1767
   15MOL   H216 5004   3.683   1.586   5.562  1.1264 -0.4055 -0.4309
   15MOL   H217 5005   3.857   1.472   5.388  0.7459 -0.6163  0.0075
   15MOL   H218 5006   3.684   1.331   5.235  2.3660  1.7101 -0.1210
   15MOL   H219 5007   3.659   1.094   5.164  1.1531  0.4975 -0.6002
   15MOL   H220 5008   3.731   0.910   5.318  0.0206 -0.4871  0.3388
   15MOL   H221 5009   3.845   0.964   5.531 -0.9654 -2.4910 -0.2331
   15MOL   H222 5010   3.898   1.196   5.583  0.9226 -2.6660 -0.0217
   15MOL   C223 5011   3.991   1.541   5.590 -0.0690 -0.0235 -0.0099
   15MOL   C224 5012   4.128   1.486   5.627  0.0130 -0.2773 -0.4091
   15MOL   C225 5013   4.198   1.387   5.529  0.4058 -0.3042 -0.1461
   15MOL   C226 5014   4.238   1.266   5.573  0.5502  0.3895 -0.0515
   15MOL   C227 5015   4.313   1.185   5.490 -0.6665 -0.5174  0.6220
   15MOL   C228 5016   4.348   1.225   5.362  0.8576  0.3407  0.1949
   15MOL   C229 5017   4.292   1.345   5.313  0.3024  0.5401 -0.1528
   15MOL   C230 5018   4.216   1.428   5.396  0.2473 -0.1481  1.0909
   15MOL   O231 5019   4.203   1.601   5.659  0.4480 -0.5738 -0.5013
   15MOL   H232 5020   3.996   1.592   5.493 -0.0468  1.0967  0.5712
   15MOL   H233 5021   3.954   1.611   5.665 -1.9675  0.1485 -1.0712
   15MOL   H234 5022   4.107   1.434   5.720 -0.7695 -1.4679 -1.2246
   15MOL   H235 5023   4.213   1.238   5.674 -0.8570  1.8399  0.0249
   15MOL   H236 5024   4.352   1.090   5.523  1.2121  0.4420  1.2320
   15MOL   H237 5025   4.407   1.162   5.298 -1.7672  0.1235 -2.1234
   15MOL   H238 5026   4.313   1.375   5.211  1.3289  4.2969  1.0806
   15MOL   H239 5027   4.175   1.522   5.362  1.2633 -0.5538 -1.3254
   15MOL   C240 5028   4.285   1.588   5.765  0.1218 -0.1483  0.5809
   15MOL   C241 5029   4.249   1.695   5.870 -0.1717 -0.3285 -0.6315
   15MOL   C242 5030   4.110   1.668   5.936 -0.8283  0.6610  0.0912
   15MOL   C243 5031   4.098   1.553   6.023 -0.2857  0.2807  0.9147
   15MOL   C244 5032   3.972   1.520   6.076 -0.0464 -0.3417  0.1711
   15MOL   C245 5033   3.859   1.606   6.051 -0.6091  0.3240  0.3514
   15MOL   C246 5034   3.870   1.711   5.966  0.4031  0.1478  0.0335
   15MOL   C247 5035   3.991   1.742   5.907 -0.2025 -0.1631 -0.1967
   15MOL   O248 5036   4.359   1.682   5.959 -0.2132  0.9066 -0.0342
   15MOL   H249 5037   4.297   1.493   5.818  0.5323  1.2547  3.0725
   15MOL   H250 5038   4.384   1.598   5.722 -0.4695 -0.1086 -0.8053
   15MOL   H251 5039   4.239   1.797   5.833  0.0227 -0.2463 -0.4521
   15MOL   H252 5040   4.193   1.506   6.047 -0.8419 -1.3019  0.0757
   15MOL   H253 5041   3.956   1.442   6.149  0.7398  0.7257  1.5204
   15MOL   H254 5042   3.762   1.580   6.091 -0.3979 -4.0926 -1.6944
   15MOL   H255 5043   3.781   1.771   5.952 -1.6645 -2.9281 -0.3464
   15MOL   H256 5044   3.991   1.829   5.844 -0.3977 -1.6775 -2.3317
   15MOL   C257 5045   4.461   1.771   5.930 -0.1940  0.1048  0.2312
   15MOL   C258 5046   4.595   1.727   5.990  0.1986  0.4643 -0.1860
   15MOL   C259 5047   4.703   1.833   5.976  0.0282 -0.1507  0.4581
   15MOL   C260 5048   4.712   1.942   6.069  0.1335 -0.8381 -0.7267
   15MOL   C261 5049   4.804   2.043   6.050 -0.0319 -0.3118  0.1013
   15MOL   C262 5050   4.894   2.034   5.944 -0.0084  0.4119  0.7013
   15MOL   C263 5051   4.898   1.926   5.859 -0.5502 -0.0208 -0.5658
   15MOL   C264 5052   4.801   1.827   5.869  0.0017 -0.1172  0.7256
   15MOL   O265 5053   4.628   1.611   5.920  0.1428 -0.0004 -0.1604
   15MOL   H266 5054   4.429   1.863   5.979  0.2551 -0.5341  1.7397
   15MOL   H267 5055   4.483   1.787   5.824 -1.3082 -0.0219 -0.0256
   15MOL   H268 5056   4.590   1.700   6.095  0.5856 -1.0049 -0.5346
   15MOL   H269 5057   4.644   1.940   6.153  0.7717  2.1574 -0.0907
   15MOL   H270 5058   4.810   2.127   6.117  0.1883 -0.4102  0.2058
   15MOL   H271 5059   4.965   2.113   5.922 -0.1156  0.7416  1.5391
   15MOL   H272 5060   4.974   1.908   5.785  0.4102  1.0956  0.1369
   15MOL   H273 5061   4.808   1.747   5.797  1.3672  0.6210  0.0205
   15MOL   C274 5062   4.603   1.481   5.975  0.4611  0.5414 -0.4330
   15MOL   C275 5063   4.691   1.364   5.911 -0.6067  0.3983  0.0265
   15MOL   C276 5064   4.611   1.231   5.923 -0.0592 -0.1214  0.0015
   15MOL   C277 5065   4.603   1.164   6.042 -0.1661  0.5033  0.0250
   15MOL   C278 5066   4.513   1.056   6.063 -0.9972  0.0534  0.3688
   15MOL   C279 5067   4.444   1.006   5.949  0.0810 -0.0113 -0.1968
   15MOL   C280 5068   4.456   1.076   5.830 -0.8598 -0.2256 -0.1133
   15MOL   C281 5069   4.527   1.192   5.820 -0.1020 -1.0895  0.5609
   15MOL   O282 5070   4.823   1.357   5.968 -0.0687 -1.0292  0.3777
   15MOL   H283 5071   4.630   1.486   6.081 -0.6970 -1.5548 -0.0052
   15MOL   H284 5072   4.498   1.453   5.975  0.6605 -0.2317 -0.8832
   15MOL   H285 5073   4.691   1.386   5.805  1.4674  1.0407  0.1479
   15MOL   H286 5074   4.660   1.198   6.127  1.7344  0.1221 -1.0843
   15MOL   H287 5075   4.498   0.993   6.149 -1.9906  0.0198  0.1814
   15MOL   H288 5076   4.382   0.918   5.956  0.4284 -0.1304  1.9978
   15MOL   H289 5077   4.400   1.042   5.744 -1.9621  0.0094  0.4993
   15MOL   H290 5078   4.518   1.232   5.720 -3.0203 -0.1018  1.1676
   15MOL   C291 5079   4.922   1.315   5.875 -0.3781  0.2019  0.0426
   15MOL   C292 5080   5.038   1.242   5.945  0.3342 -0.2655 -0.4928
   15MOL   C293 5081   5.012   1.095   5.968 -0.7729  0.4853  0.3848
   15MOL   C294 5082   5.076   0.998   5.883 -0.6332 -0.6590 -0.4365
   15MOL   C295 5083   5.034   0.862   5.888 -0.7378 -0.2507 -0.5942
   15MOL   C296 5084   4.940   0.813   5.979  0.1745 -0.3921 -0.4163
   15MOL   C297 5085   4.883   0.910   6.059  0.8874  0.8373  0.0021
   15MOL   C298 5086   4.918   1.049   6.058 -0.0330  0.1269 -0.5737
   15MOL   O299 5087   5.152   1.260   5.860  0.8203  0.2021 -0.0904
   15MOL   H300 5088   4.960   1.396   5.813  0.7388 -1.2358 -1.2181
   15MOL   H301 5089   4.893   1.252   5.791  0.5887  0.8240 -0.7673
   15MOL   H302 5090   5.062   1.289   6.040 -0.5382 -1.5028  0.3461
   15MOL   H303 5091   5.150   1.035   5.814 -0.0645  2.6340  1.8021
   15MOL   H304 5092   5.078   0.791   5.820  0.0432 -0.0368 -0.3175
   15MOL   H305 5093   4.913   0.709   5.984  3.4646 -1.2901 -0.2001
   15MOL   H306 5094   4.805   0.871   6.122  1.6107  1.4164  1.2714
   15MOL   H307 5095   4.854   1.113   6.117  0.6342  0.5849 -0.3480
   15MOL   C308 5096   5.217   1.386   5.869  1.2092  0.4661 -0.2508
   15MOL   C309 5097   5.260   1.447   5.742 -0.4093  0.1406 -0.0200
   15MOL   C310 5098   5.312   1.588   5.761  0.3152  0.6341 -0.2663
   15MOL   C311 5099   5.217   1.695   5.753  0.5126  0.3684 -0.0026
   15MOL   C312 5100   5.251   1.831   5.771 -0.8825  0.1166  0.0511
   15MOL   C313 5101   5.392   1.854   5.787 -0.8236 -0.1445 -0.1655
   15MOL   C314 5102   5.487   1.752   5.795  0.6126 -0.8800  0.2852
   15MOL   C315 5103   5.443   1.619   5.791 -0.5125  0.6316 -0.8988
   15MOL   O316 5104   5.359   1.370   5.681  0.0585 -0.3115 -0.4435
   15MOL   H317 5105   5.300   1.378   5.939 -0.2436 -1.8537  1.2932
   15MOL   H318 5106   5.148   1.457   5.917  1.3231  0.8982 -0.7182
   15MOL   H319 5107   5.177   1.442   5.672 -1.1240  0.5013  0.7930
   15MOL   H320 5108   5.115   1.681   5.720 -0.2449  2.0146  1.5216
   15MOL   H321 5109   5.182   1.914   5.774 -1.7388 -0.5752 -0.1409
   15MOL   H322 5110   5.429   1.955   5.784  3.2164 -1.5601 -1.0771
   15MOL   H323 5111   5.590   1.774   5.817  0.4532 -0.8696  1.0547
   15MOL   H324 5112   5.511   1.537   5.804 -1.0977  0.2154 -0.4190
   15MOL   C325 5113   5.378   1.383   5.545 -0.3852  0.3391  0.5171
   15MOL   C326 5114   5.501   1.295   5.506 -1.0956  0.1800 -0.7711
   15MOL   C327 5115   5.630   1.351   5.574 -0.6073 -0.1156 -0.8091
   15MOL   C328 5116   5.669   1.309   5.706 -0.0481 -0.2849 -0.8594
   15MOL   C329 5117   5.781   1.362   5.768  0.3926  0.0312  0.3916
   15MOL   C330 5118   5.876   1.424   5.693  0.2596  0.1140 -0.6575
   15MOL   C331 5119   5.844   1.468   5.561 -0.0953 -0.6994  0.2433
   15MOL   C332 5120   5.724   1.429   5.507  1.2748  0.4865 -0.1157
   15MOL   O333 5121   5.477   1.165   5.534 -0.0144  0.5971 -0.3042
   15MOL   H334 5122   5.392   1.483   5.504  0.7650 -0.2940 -0.7131
   15MOL   H335 5123   5.292   1.346   5.490 -0.6345  2.8747 -0.8502
   15MOL   H336 5124   5.530   1.298   5.401 -0.7980 -0.7580 -0.7249
   15MOL   H337 5125   5.597   1.250   5.759  0.7757 -1.1986 -0.7535
   15MOL   H338 5126   5.795   1.345   5.874 -0.0137 -0.2267  0.4063
   15MOL   H339 5127   5.965   1.459   5.743 -0.3799 -0.6831  1.1141
   15MOL   H340 5128   5.922   1.516   5.503 -0.8508  0.1775 -0.0483
   15MOL   H341 5129   5.709   1.452   5.402  0.6164  1.7591  0.2461
   15MOL   H342 5130   5.410   1.170   5.600 -0.7087  1.7393 -1.0702
   16MOL     C1 5131   7.409   5.562   2.678  0.2480  0.0242  0.2441
   16MOL     C2 5132   7.543   5.580   2.607  0.0773 -0.2297 -0.8447
   16MOL     C3 5133   7.631   5.668   2.683  0.0593 -0.2512  0.5265
   16MOL     C4 5134   7.607   5.809   2.691 -0.0539 -0.0482 -0.0258
   16MOL     C5 5135   7.685   5.881   2.783 -0.2259  0.1674 -0.5237
   16MOL     C6 5136   7.795   5.820   2.850 -0.4801 -0.6102  0.4099
   16MOL     C7 5137   7.820   5.683   2.841  0.3501 -0.2473 -0.4022
   16MOL     C8 5138   7.740   5.605   2.751 -0.7576  0.2357 -0.2370
   16MOL     O9 5139   7.511   5.633   2.478  0.0179  0.8524  0.5839
   16MOL    H10 5140   7.351   5.488   2.623  0.4180  0.1635 -0.1259
   16MOL    H11 5141   7.411   5.532   2.783 -0.0613 -0.6516  0.0633
   16MOL    H12 5142   7.578   5.477   2.606 -0.7367 -0.5446  0.6888
   16MOL    H13 5143   7.529   5.849   2.628 -2.2851 -0.8289  2.1213
   16MOL    H14 5144   7.665   5.987   2.791 -3.6955 -0.5149  0.6224
   16MOL    H15 5145   7.864   5.879   2.908 -1.7692  1.2049  0.1265
   16MOL    H16 5146   7.906   5.646   2.894  0.6106  0.4915 -0.2944
   16MOL    H17 5147   7.761   5.499   2.745  0.3074  0.2321  2.6896
   16MOL    H18 5148   7.351   5.654   2.675 -0.3332 -0.3625 -0.3393
   16MOL    C19 5149   7.619   5.628   2.383  0.1759 -0.6416  0.3104
   16MOL    C20 5150   7.575   5.643   2.231  0.8269 -0.6757  0.4549
   16MOL    C21 5151   7.678   5.584   2.136 -0.5341 -0.6036 -0.2535
   16MOL    C22 5152   7.782   5.663   2.087 -0.0826  0.0957  0.3554
   16MOL    C23 5153   7.877   5.616   1.996 -0.8380  0.0764  0.8990
   16MOL    C24 5154   7.863   5.488   1.946 -0.4096 -0.0608  0.1479
   16MOL    C25 5155   7.762   5.401   1.995 -0.1853  0.4675  0.5876
   16MOL    C26 5156   7.677   5.450   2.098  0.3511 -0.1605  0.1761
   16MOL    O27 5157   7.543   5.779   2.195  0.6332 -0.7901 -0.0749
   16MOL    H28 5158   7.697   5.699   2.411 -0.3761  0.7910 -1.5958
   16MOL    H29 5159   7.658   5.528   2.399 -0.8690 -0.9090  1.2679
   16MOL    H30 5160   7.483   5.585   2.220  1.5009 -1.8609  0.9350
   16MOL    H31 5161   7.784   5.763   2.127  1.3317 -0.8732  2.8153
   16MOL    H32 5162   7.947   5.689   1.957  1.3706 -1.9974  0.9182
   16MOL    H33 5163   7.928   5.458   1.866 -1.0027  1.7614 -1.0474
   16MOL    H34 5164   7.755   5.297   1.969  2.9421  0.4770 -0.5359
   16MOL    H35 5165   7.588   5.402   2.135 -0.1030  0.6246  0.1219
   16MOL    C36 5166   7.426   5.822   2.270  0.1000 -0.7170 -0.0708
   16MOL    C37 5167   7.378   5.955   2.212 -0.8517  1.0044  0.6860
   16MOL    C38 5168   7.351   5.946   2.069 -0.0568 -0.5078 -0.6138
   16MOL    C39 5169   7.446   5.992   1.975  0.3426 -0.3790  0.2950
   16MOL    C40 5170   7.424   5.977   1.835 -0.0810 -1.0624  0.7531
   16MOL    C41 5171   7.300   5.928   1.783  0.7599  0.1409 -0.2778
   16MOL    C42 5172   7.200   5.899   1.878 -0.1597 -0.6215 -0.5095
   16MOL    C43 5173   7.225   5.901   2.018  0.0676 -0.2399 -0.3750
   16MOL    O44 5174   7.481   6.045   2.243 -0.0210  0.2026  0.7663
   16MOL    H45 5175   7.347   5.748   2.260 -0.9581  0.0166  2.4886
   16MOL    H46 5176   7.463   5.832   2.372 -2.0138 -0.3105  0.6808
   16MOL    H47 5177   7.293   5.974   2.278 -2.0093  1.8492 -1.0056
   16MOL    H48 5178   7.544   6.029   2.000 -0.1767 -0.0222  1.8598
   16MOL    H49 5179   7.506   5.984   1.767 -1.0881 -0.2807 -0.4064
   16MOL    H50 5180   7.277   5.912   1.679 -3.6691 -0.7218  0.7311
   16MOL    H51 5181   7.103   5.868   1.842 -0.9088 -0.1320  1.0759
   16MOL    H52 5182   7.157   5.866   2.094  1.2033 -0.0882  0.7397
   16MOL    C53 5183   7.420   6.169   2.252  0.4483  0.1505 -0.1748
   16MOL    C54 5184   7.527   6.277   2.280 -0.2304  0.6523  1.0993
   16MOL    C55 5185   7.593   6.248   2.412  0.6580 -0.0417  0.5548
   16MOL    C56 5186   7.715   6.176   2.412 -0.0187  0.5118 -0.3911
   16MOL    C57 5187   7.770   6.151   2.533 -0.0812  0.4559 -0.0691
   16MOL    C58 5188   7.725   6.212   2.652  0.1097 -0.0842 -0.4740
   16MOL    C59 5189   7.608   6.286   2.654 -0.1081  0.5444  0.2300
   16MOL    C60 5190   7.539   6.298   2.532 -0.1517 -0.2213  0.3447
   16MOL    O61 5191   7.630   6.295   2.177  0.9424  0.7559 -0.2485
   16MOL    H62 5192   7.371   6.192   2.157 -0.5747 -0.9677  0.0753
   16MOL    H63 5193   7.345   6.181   2.330 -0.9092  1.0732 -1.5795
   16MOL    H64 5194   7.466   6.366   2.295  0.0272  0.4113  3.7042
   16MOL    H65 5195   7.743   6.123   2.322 -1.8617  0.7702 -1.1486
   16MOL    H66 5196   7.858   6.090   2.546  1.0368  1.8572 -0.8225
   16MOL    H67 5197   7.772   6.199   2.748 -3.1013  2.0752  1.4600
   16MOL    H68 5198   7.580   6.327   2.750  0.2471 -4.1952  2.4655
   16MOL    H69 5199   7.443   6.347   2.519 -0.0885 -0.3641 -0.7135
   16MOL    C70 5200   7.582   6.345   2.050  0.0467 -0.2639 -0.0288
   16MOL    C71 5201   7.708   6.378   1.966  0.0962  0.5717  1.2224
   16MOL    C72 5202   7.776   6.493   2.022 -0.0758  0.0755  0.7537
   16MOL    C73 5203   7.868   6.483   2.131 -0.4869  0.1248 -0.1860
   16MOL    C74 5204   7.925   6.603   2.185 -0.1061  0.1246  0.3688
   16MOL    C75 5205   7.903   6.724   2.121  0.6009 -0.1418  0.4351
   16MOL    C76 5206   7.802   6.737   2.023 -0.3312  0.2355  0.0593
   16MOL    C77 5207   7.736   6.621   1.974  0.3075 -0.1093  0.1200
   16MOL    O78 5208   7.675   6.397   1.834 -0.2616 -0.1512 -0.6970
   16MOL    H79 5209   7.521   6.274   1.993 -0.9220  0.0659  0.5867
   16MOL    H80 5210   7.527   6.438   2.062 -0.2281 -0.3695 -0.4676
   16MOL    H81 5211   7.781   6.298   1.974  1.8392  2.1987  1.8318
   16MOL    H82 5212   7.894   6.389   2.177  0.0994  0.3024 -0.1469
   16MOL    H83 5213   7.991   6.597   2.270  2.1755 -0.2673 -1.3966
   16MOL    H84 5214   7.951   6.816   2.150  0.7867 -0.4192  1.0233
   16MOL    H85 5215   7.766   6.832   1.987 -0.2157  0.0906 -0.4332
   16MOL    H86 5216   7.672   6.629   1.888  0.0480 -1.3215  0.1865
   16MOL    C87 5217   7.654   6.276   1.757 -0.3057  0.4034 -0.1129
   16MOL    C88 5218   7.637   6.321   1.606  0.3705  0.4449  0.3776
   16MOL    C89 5219   7.744   6.420   1.553  0.9103  0.1426 -0.2353
   16MOL    C90 5220   7.868   6.439   1.620 -0.2395  0.3996 -0.0903
   16MOL    C91 5221   7.950   6.550   1.575 -0.4208  0.3053 -0.5510
   16MOL    C92 5222   7.912   6.633   1.469 -0.5782 -0.2510  0.4640
   16MOL    C93 5223   7.797   6.602   1.398 -0.5478  0.4504  0.2493
   16MOL    C94 5224   7.713   6.496   1.439  1.0346  0.1538 -0.1334
   16MOL    O95 5225   7.500   6.362   1.593 -0.2996  0.1553 -0.1844
   16MOL    H96 5226   7.558   6.234   1.788 -0.3019 -0.8770 -1.7405
   16MOL    H97 5227   7.743   6.214   1.769 -0.8921 -0.4015  0.0974
   16MOL    H98 5228   7.661   6.233   1.546 -2.8654  0.2111 -0.6562
   16MOL    H99 5229   7.887   6.373   1.704  0.7426  0.7408 -0.0454
   16MOL   H100 5230   8.047   6.569   1.619 -1.2386  0.0903  1.4393
   16MOL   H101 5231   7.972   6.718   1.443  0.0027 -0.5576  0.7783
   16MOL   H102 5232   7.767   6.676   1.326  2.7955  0.4752 -1.1840
   16MOL   H103 5233   7.621   6.472   1.388  0.6843  1.1165  0.0508
   16MOL   C104 5234   7.419   6.258   1.541  0.1634  0.2016 -0.6443
   16MOL   C105 5235   7.286   6.326   1.502 -0.6740  0.1562  0.2929
   16MOL   C106 5236   7.299   6.434   1.390 -0.3476 -0.5512  0.0444
   16MOL   C107 5237   7.261   6.565   1.427  0.6903  0.2747  0.0978
   16MOL   C108 5238   7.272   6.670   1.327  0.1495  0.2850 -0.2622
   16MOL   C109 5239   7.346   6.643   1.207  0.0839  0.1318 -0.2940
   16MOL   C110 5240   7.403   6.512   1.190  0.1749  0.5708 -0.1895
   16MOL   C111 5241   7.374   6.407   1.274 -0.2612  0.1051 -0.1656
   16MOL   O112 5242   7.200   6.218   1.457  0.4733 -0.1216  0.4387
   16MOL   H113 5243   7.460   6.202   1.457 -0.3157 -0.9548 -0.1215
   16MOL   H114 5244   7.405   6.183   1.618 -0.8443  0.2123 -0.8084
   16MOL   H115 5245   7.249   6.357   1.600  1.2965 -2.1223  1.8197
   16MOL   H116 5246   7.219   6.592   1.523  2.0192  0.8954  0.5257
   16MOL   H117 5247   7.236   6.770   1.346  1.4775  1.2133 -2.4604
   16MOL   H118 5248   7.367   6.727   1.142 -1.3346 -0.4030 -1.4485
   16MOL   H119 5249   7.470   6.494   1.107 -0.5688  0.7106 -0.8226
   16MOL   H120 5250   7.407   6.305   1.264  2.1855  0.7535  0.9294
   16MOL   C121 5251   7.063   6.251   1.475  0.8886 -0.3787 -0.1666
   16MOL   C122 5252   6.975   6.156   1.394 -0.1332 -0.0973  0.0636
   16MOL   C123 5253   6.987   6.149   1.241 -0.0357 -0.2422  0.0300
   16MOL   C124 5254   7.059   6.248   1.175 -0.1861  0.3826 -0.2923
   16MOL   C125 5255   7.058   6.252   1.032  0.2318 -0.5966 -1.0401
   16MOL   C126 5256   6.993   6.155   0.958 -0.8746 -0.4766  0.4046
   16MOL   C127 5257   6.918   6.055   1.025  0.0647 -0.3748  0.4390
   16MOL   C128 5258   6.922   6.053   1.167  0.2029  0.4632  0.3011
   16MOL   O129 5259   6.980   6.022   1.446 -0.9021 -0.2411 -0.6272
   16MOL   H130 5260   7.037   6.351   1.441 -1.2239 -1.3060 -1.3455
   16MOL   H131 5261   7.048   6.250   1.583 -0.8067 -0.0600 -0.3899
   16MOL   H132 5262   6.873   6.193   1.406  0.1951  1.3662 -1.4577
   16MOL   H133 5263   7.105   6.331   1.226  0.1070  0.8940 -1.3882
   16MOL   H134 5264   7.114   6.330   0.982 -1.3793  0.1387 -1.7168
   16MOL   H135 5265   6.992   6.157   0.850 -0.9598 -0.3149  0.4079
   16MOL   H136 5266   6.856   5.991   0.963  1.5198 -0.9395 -0.4585
   16MOL   H137 5267   6.883   5.971   1.226 -0.2108  0.9414  0.6946
   16MOL   C138 5268   6.958   6.012   1.586 -0.0602  0.2963  0.2743
   16MOL   C139 5269   6.884   5.883   1.615  0.1937 -0.6249 -0.4715
   16MOL   C140 5270   6.959   5.752   1.595 -0.5062  0.3886  0.2024
   16MOL   C141 5271   7.011   5.716   1.471 -0.0854  0.3813  0.0551
   16MOL   C142 5272   7.100   5.610   1.454 -0.1145 -0.6244 -0.1637
   16MOL   C143 5273   7.128   5.525   1.563  0.5822 -0.5610  0.0534
   16MOL   C144 5274   7.077   5.559   1.692  0.1604  0.6973  0.7401
   16MOL   C145 5275   6.997   5.672   1.705  0.4306  0.0338 -0.0637
   16MOL   O146 5276   6.825   5.908   1.745  0.3354  0.2813  0.0150
   16MOL   H147 5277   6.896   6.090   1.630 -2.2293  0.1843 -2.4481
   16MOL   H148 5278   7.051   6.020   1.643 -0.6183  0.7645  1.1346
   16MOL   H149 5279   6.804   5.887   1.541  0.5805  1.3733 -0.7997
   16MOL   H150 5280   6.995   5.778   1.383  0.7572 -0.9228 -1.0274
   16MOL   H151 5281   7.150   5.602   1.359  0.5642 -0.9090  0.2218
   16MOL   H152 5282   7.189   5.436   1.554  0.7237 -0.3734 -0.8328
   16MOL   H153 5283   7.117   5.517   1.783  0.9183  0.7980  0.4529
   16MOL   H154 5284   6.965   5.708   1.802 -2.2836 -2.0316 -0.1559
   16MOL   C155 5285   6.704   5.827   1.772 -0.0579 -0.2962 -0.2946
   16MOL   C156 5286   6.675   5.800   1.917  0.5943  0.3234 -0.3385
   16MOL   C157 5287   6.704   5.924   2.002  0.0393  0.1950 -0.0690
   16MOL   C158 5288   6.813   5.907   2.083  0.0084  0.2143 -0.8017
   16MOL   C159 5289   6.844   6.009   2.176 -0.3324  0.2345  0.6356
   16MOL   C160 5290   6.755   6.120   2.193 -0.6873  0.6434  0.2159
   16MOL   C161 5291   6.645   6.135   2.113  0.2017 -0.2668 -0.3876
   16MOL   C162 5292   6.621   6.035   2.017  0.1854 -0.4754 -0.3358
   16MOL   O163 5293   6.535   5.762   1.930  0.2305  0.1680 -0.1060
   16MOL   H164 5294   6.699   5.732   1.720 -0.1586 -0.1925 -0.4757
   16MOL   H165 5295   6.622   5.881   1.723  1.4264 -0.5868 -3.1967
   16MOL   H166 5296   6.735   5.721   1.963 -0.8338 -1.2150 -1.0644
   16MOL   H167 5297   6.882   5.824   2.082  0.8205  0.8407  1.0638
   16MOL   H168 5298   6.932   6.001   2.239  0.7895 -0.3748 -0.9931
   16MOL   H169 5299   6.775   6.186   2.276  2.0413  0.1945 -0.0353
   16MOL   H170 5300   6.567   6.206   2.139  0.9360  0.4808 -0.2094
   16MOL   H171 5301   6.529   6.029   1.962 -0.0136  2.8293 -0.4415
   16MOL   C172 5302   6.499   5.717   2.062 -0.0276 -1.0060  0.0976
   16MOL   C173 5303   6.492   5.567   2.076 -0.4505 -0.1002 -0.0745
   16MOL   C174 5304   6.434   5.513   2.208 -0.1721 -0.3819  0.2839
   16MOL   C175 5305   6.336   5.415   2.197 -0.2386  0.2911  0.5930
   16MOL   C176 5306   6.274   5.360   2.316  0.3992 -0.4621 -0.4108
   16MOL   C177 5307   6.315   5.404   2.444 -0.0505 -0.3216 -0.3330
   16MOL   C178 5308   6.422   5.499   2.447 -0.7549 -0.1121  0.3102
   16MOL   C179 5309   6.482   5.555   2.334 -0.4083 -0.6470  0.2266
   16MOL   O180 5310   6.624   5.523   2.064  0.8710 -0.1892  0.8688
   16MOL   H181 5311   6.546   5.764   2.149 -0.2731 -1.1584  0.3119
   16MOL   H182 5312   6.397   5.750   2.082  0.3351  0.3800 -0.2779
   16MOL   H183 5313   6.426   5.520   2.003 -0.3755 -1.9300  0.9905
   16MOL   H184 5314   6.318   5.376   2.098 -0.4658  0.5705  0.5207
   16MOL   H185 5315   6.208   5.276   2.302  0.7752 -0.8630  0.1581
   16MOL   H186 5316   6.276   5.362   2.535 -0.4131 -1.2575 -0.9016
   16MOL   H187 5317   6.447   5.536   2.546  0.3313 -1.4970  0.5623
   16MOL   H188 5318   6.551   5.638   2.334 -0.9657 -0.1666 -1.1408
   16MOL   C189 5319   6.638   5.409   1.986  0.2371  0.4023 -0.3160
   16MOL   C190 5320   6.774   5.350   2.023 -0.6487  0.0606  1.1972
   16MOL   C191 5321   6.848   5.267   1.914 -0.4297  0.2670  0.1067
   16MOL   C192 5322   6.868   5.125   1.932 -0.0845  0.1002  0.2732
   16MOL   C193 5323   6.923   5.043   1.828 -0.4733  0.1556  0.0725
   16MOL   C194 5324   6.967   5.110   1.709  0.3446 -0.1079 -0.3595
   16MOL   C195 5325   6.942   5.248   1.690 -0.5672  0.8440  0.2708
   16MOL   C196 5326   6.888   5.327   1.793  0.0929  0.3843 -0.0820
   16MOL   O197 5327   6.775   5.269   2.145  0.6218  0.0520  0.5446
   16MOL   H198 5328   6.562   5.333   2.004  0.3530  0.4092  0.2015
   16MOL   H199 5329   6.632   5.440   1.882 -0.0938  3.0059  0.4567
   16MOL   H200 5330   6.840   5.436   2.023 -0.5030 -0.0216 -0.8445
   16MOL   H201 5331   6.831   5.085   2.025  2.0718 -0.3151  0.9781
   16MOL   H202 5332   6.924   4.935   1.833  0.3160  0.1888  0.6293
   16MOL   H203 5333   6.991   5.058   1.617  1.3814 -1.3864  0.6168
   16MOL   H204 5334   6.962   5.293   1.594 -0.3051 -0.4659 -0.3015
   16MOL   H205 5335   6.864   5.431   1.781 -1.6624  0.1417  1.0558
   16MOL   C206 5336   6.823   5.346   2.260 -0.1639 -0.2277  0.0735
   16MOL   C207 5337   6.844   5.239   2.374  0.8507 -0.1742  0.1773
   16MOL   C208 5338   6.850   5.302   2.510 -0.1963 -0.7295  0.3474
   16MOL   C209 5339   6.735   5.364   2.567  0.3799 -0.1916  0.3862
   16MOL   C210 5340   6.730   5.411   2.706 -0.4456 -0.0120  0.4212
   16MOL   C211 5341   6.852   5.409   2.779  0.1641 -0.4220  0.4050
   16MOL   C212 5342   6.965   5.349   2.718  0.1909 -0.2578 -0.2776
   16MOL   C213 5343   6.968   5.312   2.584  0.0327  0.0689 -0.3711
   16MOL   O214 5344   6.968   5.160   2.347 -0.2139 -0.4393 -0.2816
   16MOL   H215 5345   6.915   5.392   2.224  0.7228 -1.4192  0.7926
   16MOL   H216 5346   6.748   5.417   2.295 -0.8971 -0.3593 -1.1661
   16MOL   H217 5347   6.759   5.170   2.379 -0.1832  0.9022 -2.0153
   16MOL   H218 5348   6.642   5.377   2.514 -0.5040 -1.5240  1.5593
   16MOL   H219 5349   6.643   5.459   2.748 -0.4138  0.8587 -0.4929
   16MOL   H220 5350   6.861   5.458   2.875 -0.7533  0.9640 -0.1980
   16MOL   H221 5351   7.058   5.355   2.771  0.0048 -3.0828  0.4247
   16MOL   H222 5352   7.062   5.269   2.549 -0.8458 -1.0687 -1.4052
   16MOL   C223 5353   6.958   5.034   2.282  0.1548 -0.0966  0.3202
   16MOL   C224 5354   7.073   4.944   2.334  0.2127  0.3179 -0.0002
   16MOL   C225 5355   7.088   4.929   2.486  0.2317 -0.3755  0.0871
   16MOL   C226 5356   7.204   4.966   2.555  0.1520 -0.7759  0.3102
   16MOL   C227 5357   7.219   4.955   2.695  0.6125 -0.2637  0.7843
   16MOL   C228 5358   7.117   4.887   2.757  0.7752  0.0932  0.0428
   16MOL   C229 5359   6.998   4.846   2.696  0.4998 -0.3935  0.5536
   16MOL   C230 5360   6.983   4.873   2.563  0.2404 -0.5744  0.3812
   16MOL   O231 5361   7.052   4.815   2.272 -0.4605 -0.0233  0.7528
   16MOL   H232 5362   6.863   4.992   2.314  0.5336 -0.1823  1.3795
   16MOL   H233 5363   6.962   5.048   2.174  0.2921  3.5167  0.7456
   16MOL   H234 5364   7.168   4.986   2.300  1.2890 -0.7692  1.5876
   16MOL   H235 5365   7.293   4.994   2.501  0.7817  1.1569  2.2849
   16MOL   H236 5366   7.313   4.975   2.746  1.5902 -0.6872 -0.8028
   16MOL   H237 5367   7.138   4.872   2.862  1.7007  2.5033  0.2433
   16MOL   H238 5368   6.923   4.790   2.749 -0.3395 -1.2054 -1.4256
   16MOL   H239 5369   6.896   4.836   2.511 -0.0193  1.8226 -1.0241
   16MOL   C240 5370   7.157   4.717   2.289  0.5473  0.2588 -0.5767
   16MOL   C241 5371   7.206   4.684   2.146 -0.3076 -0.3103  0.1417
   16MOL   C242 5372   7.101   4.613   2.064  0.5025  0.3834 -0.2041
   16MOL   C243 5373   7.012   4.680   1.978  0.1956 -0.0694  0.1832
   16MOL   C244 5374   6.895   4.619   1.924 -0.1162 -0.1450  0.2126
   16MOL   C245 5375   6.887   4.481   1.924 -0.5671  0.7967 -0.1140
   16MOL   C246 5376   6.984   4.408   1.999 -0.2422  0.5940  0.0222
   16MOL   C247 5377   7.084   4.473   2.068 -0.0415 -0.2385 -0.3466
   16MOL   O248 5378   7.248   4.807   2.078  0.1546  0.7028  0.9899
   16MOL   H249 5379   7.242   4.751   2.348  0.4354  2.0060 -1.3901
   16MOL   H250 5380   7.116   4.627   2.334  0.3788 -0.7481 -2.6803
   16MOL   H251 5381   7.291   4.615   2.148 -0.9251 -1.1085 -0.8220
   16MOL   H252 5382   7.030   4.783   1.954 -0.9671 -0.3214 -1.8879
   16MOL   H253 5383   6.828   4.682   1.868  1.1130  0.7286 -0.3084
   16MOL   H254 5384   6.807   4.430   1.872 -1.2339  0.1314  1.5305
   16MOL   H255 5385   6.992   4.300   1.999  0.8273  0.6712  0.2500
   16MOL   H256 5386   7.158   4.417   2.122  0.7333  1.0489 -0.0336
   16MOL   C257 5387   7.389   4.841   2.095  0.5696 -0.3292  0.1267
   16MOL   C258 5388   7.434   4.974   2.034 -0.4840  0.5660 -0.3289
   16MOL   C259 5389   7.360   5.095   2.093  0.0790  0.1388  0.8950
   16MOL   C260 5390   7.235   5.140   2.050  0.0750  0.4008  0.6341
   16MOL   C261 5391   7.161   5.248   2.111  0.9084  0.5111 -0.0367
   16MOL   C262 5392   7.228   5.318   2.217  0.3159 -0.3680  0.3574
   16MOL   C263 5393   7.354   5.273   2.260  0.3094  0.0917  0.2306
   16MOL   C264 5394   7.421   5.164   2.197  0.5954 -0.3153  0.3779
   16MOL   O265 5395   7.429   4.968   1.892  0.0405 -0.4350  0.6924
   16MOL   H266 5396   7.452   4.762   2.054  0.8355 -1.4480  2.6144
   16MOL   H267 5397   7.425   4.839   2.198 -0.8225  0.9177  0.6461
   16MOL   H268 5398   7.537   4.976   2.071  0.2591 -0.2496 -2.3096
   16MOL   H269 5399   7.189   5.083   1.970  0.0324  0.3859  0.6691
   16MOL   H270 5400   7.061   5.273   2.079  0.9388  1.0990  0.3209
   16MOL   H271 5401   7.172   5.391   2.274  1.5366  1.9163 -1.2933
   16MOL   H272 5402   7.395   5.326   2.344  0.6848  3.1727 -1.7851
   16MOL   H273 5403   7.517   5.128   2.232  0.3586 -0.5242  0.8124
   16MOL   C274 5404   7.528   5.044   1.830 -0.2330 -0.0363  0.3933
   16MOL   C275 5405   7.642   4.957   1.772 -0.1121  0.2682  0.9889
   16MOL   C276 5406   7.604   4.862   1.665 -0.4728 -0.2229  0.2384
   16MOL   C277 5407   7.584   4.726   1.689 -0.1209 -0.4513  0.0211
   16MOL   C278 5408   7.538   4.640   1.590 -0.0383 -0.4030  0.3028
   16MOL   C279 5409   7.533   4.677   1.458 -0.2662  0.3480 -0.6113
   16MOL   C280 5410   7.583   4.806   1.430 -0.3484 -0.1968  0.7140
   16MOL   C281 5411   7.614   4.900   1.528 -0.4426 -0.1832 -0.2391
   16MOL   O282 5412   7.706   4.895   1.880 -0.2411  0.0641 -0.0280
   16MOL   H283 5413   7.485   5.102   1.747  0.1695 -0.9608 -0.4698
   16MOL   H284 5414   7.579   5.113   1.897  3.2448 -2.9156  0.8475
   16MOL   H285 5415   7.714   5.032   1.738  0.5231  0.1892  2.1041
   16MOL   H286 5416   7.588   4.698   1.793 -0.6688 -0.8648 -0.0655
   16MOL   H287 5417   7.517   4.539   1.621  0.0120 -0.3517  0.5002
   16MOL   H288 5418   7.491   4.615   1.380  0.5634  0.9406 -1.5415
   16MOL   H289 5419   7.581   4.849   1.331 -0.6534 -0.2897  0.6787
   16MOL   H290 5420   7.640   5.001   1.501  0.9102 -0.6545 -0.6932
   16MOL   C291 5421   7.844   4.848   1.852  0.2689  0.3876  0.5141
   16MOL   C292 5422   7.891   4.774   1.977 -0.2620  0.4101 -0.1019
   16MOL   C293 5423   7.821   4.804   2.111  0.6037 -0.2653  0.7695
   16MOL   C294 5424   7.715   4.725   2.151 -0.0589  0.6011 -0.5300
   16MOL   C295 5425   7.645   4.758   2.270  0.3634  0.4184  0.0156
   16MOL   C296 5426   7.678   4.872   2.345  0.2123 -0.3342  0.6209
   16MOL   C297 5427   7.787   4.950   2.311  0.7370  0.0543 -1.0001
   16MOL   C298 5428   7.859   4.914   2.189  0.1811 -0.6091  0.0231
   16MOL   O299 5429   7.885   4.633   1.946 -0.8447 -0.3340  0.1224
   16MOL   H300 5430   7.910   4.935   1.853  1.6329 -0.6338  0.8628
   16MOL   H301 5431   7.860   4.797   1.758  0.5273  2.0793 -0.3843
   16MOL   H302 5432   7.998   4.795   1.986 -0.2402 -0.1800  1.1480
   16MOL   H303 5433   7.688   4.639   2.093  1.3749 -0.0450 -0.2565
   16MOL   H304 5434   7.560   4.699   2.300  1.2014  0.0389  1.7052
   16MOL   H305 5435   7.616   4.898   2.430  0.5826  2.3553  0.1126
   16MOL   H306 5436   7.834   5.031   2.364 -3.1291  3.1147 -1.9619
   16MOL   H307 5437   7.944   4.971   2.156  0.0069 -2.0285 -3.0457
   16MOL   C308 5438   7.974   4.547   2.021 -0.0619  0.2010  1.1549
   16MOL   C309 5439   8.027   4.437   1.931 -0.1827 -0.1193 -0.3254
   16MOL   C310 5440   7.915   4.355   1.882 -0.6040  0.4450  0.4527
   16MOL   C311 5441   7.841   4.411   1.784  0.1543  1.1228  0.1074
   16MOL   C312 5442   7.724   4.344   1.740 -0.1547 -0.5431  0.5007
   16MOL   C313 5443   7.680   4.230   1.804  0.0016  0.3853  0.3765
   16MOL   C314 5444   7.755   4.176   1.914 -0.1729 -0.2534  0.1769
   16MOL   C315 5445   7.881   4.240   1.951  0.9224 -0.2303 -0.7698
   16MOL   O316 5446   0.019   4.506   1.828 -0.8322 -0.7736 -0.0816
   16MOL   H317 5447   7.904   4.512   2.097 -0.7051  0.7536  0.8290
   16MOL   H318 5448   8.049   4.600   2.080  0.6706  0.2857  0.1526
   16MOL   H319 5449   0.016   4.375   1.989 -0.6229 -1.4947 -1.2428
   16MOL   H320 5450   7.871   4.502   1.733  0.1424  0.5220 -0.9927
   16MOL   H321 5451   7.667   4.376   1.654  0.3261  0.8673  0.6922
   16MOL   H322 5452   7.595   4.173   1.769  0.0841  0.5275 -0.0548
   16MOL   H323 5453   7.715   4.086   1.958 -0.9179 -0.8138 -1.6177
   16MOL   H324 5454   7.937   4.194   2.032  0.4837 -1.1717 -0.9941
   16MOL   C325 5455   0.112   4.436   1.749 -0.2574 -1.1315 -0.6024
   16MOL   C326 5456   0.193   4.539   1.669 -0.2135  0.6204 -0.0349
   16MOL   C327 5457   0.111   4.629   1.582  0.1725 -0.6654  0.6459
   16MOL   C328 5458   0.100   4.599   1.443 -0.6144 -0.4997  0.1359
   16MOL   C329 5459   0.034   4.690   1.362 -0.4558  0.1910  0.2160
   16MOL   C330 5460   8.044   4.798   1.414 -0.2885  0.0925  0.8217
   16MOL   C331 5461   8.053   4.830   1.548 -0.1009 -0.0701  0.3152
   16MOL   C332 5462   0.054   4.746   1.630 -0.3663 -0.4400 -0.2567
   16MOL   O333 5463   0.261   4.610   1.771 -0.1719 -0.2885  0.2862
   16MOL   H334 5464   0.066   4.363   1.682  0.6390 -1.3571 -0.9786
   16MOL   H335 5465   0.187   4.385   1.810 -1.1359 -1.4194  0.2492
   16MOL   H336 5466   0.269   4.493   1.606 -0.4773  0.3580 -0.1691
   16MOL   H337 5467   0.150   4.514   1.399  2.7308  0.1268  2.4714
   16MOL   H338 5468   0.026   4.668   1.257  0.3157  1.8762 -0.1998
   16MOL   H339 5469   7.978   4.861   1.356  1.7552  0.1098 -1.5736
   16MOL   H340 5470   8.013   4.925   1.580  0.1759 -0.5225  2.0778
   16MOL   H341 5471   0.069   4.772   1.734 -0.1822 -1.2684 -0.0690
   16MOL   H342 5472   0.194   4.663   1.812 -1.3908 -2.6779  1.4374
   17MOL     C1 5473   4.491   5.757   3.815  0.7173 -0.2852  0.3450
   17MOL     C2 5474   4.403   5.717   3.701  0.3322  0.5789 -0.0629
   17MOL     C3 5475   4.485   5.626   3.608  0.5344  0.2297  0.2361
   17MOL     C4 5476   4.481   5.487   3.628 -0.4480  0.3624 -0.2268
   17MOL     C5 5477   4.546   5.404   3.535  0.3432 -0.2051  0.6837
   17MOL     C6 5478   4.601   5.450   3.421  1.3374 -0.0633  0.5754
   17MOL     C7 5479   4.604   5.588   3.396 -0.1720 -0.0089 -0.7170
   17MOL     C8 5480   4.547   5.678   3.492  0.4583 -0.5837  0.6706
   17MOL     O9 5481   4.351   5.828   3.628  0.0900 -0.3075 -0.0916
   17MOL    H10 5482   4.528   5.673   3.873  0.5960 -1.2625 -0.9616
   17MOL    H11 5483   4.578   5.809   3.776  0.6155 -1.1089 -1.0178
   17MOL    H12 5484   4.317   5.654   3.722 -1.0793  2.0830 -1.1523
   17MOL    H13 5485   4.435   5.448   3.717 -1.2690 -1.2777 -1.3455
   17MOL    H14 5486   4.550   5.297   3.550  1.6199 -0.5085 -1.5426
   17MOL    H15 5487   4.654   5.386   3.351  0.5457 -0.2734  0.1659
   17MOL    H16 5488   4.644   5.632   3.306 -2.2191  1.4877 -0.9534
   17MOL    H17 5489   4.543   5.782   3.465  1.7675 -0.6801  0.0429
   17MOL    H18 5490   4.445   5.835   3.876  0.1904 -0.4537  0.1684
   17MOL    C19 5491   4.231   5.882   3.694 -0.1624 -0.2847 -0.4028
   17MOL    C20 5492   4.099   5.821   3.647  0.3136  0.4388 -0.2394
   17MOL    C21 5493   3.990   5.916   3.678  0.1740 -0.6488 -0.1992
   17MOL    C22 5494   3.985   6.025   3.590 -0.2227 -0.0695  0.3674
   17MOL    C23 5495   3.877   6.121   3.599  0.2323  0.2922 -1.0478
   17MOL    C24 5496   3.783   6.112   3.702  0.6799  0.1308 -0.5726
   17MOL    C25 5497   3.789   6.002   3.790 -0.1648 -0.0501 -0.1597
   17MOL    C26 5498   3.893   5.910   3.782  0.0171  0.4181  0.0762
   17MOL    O27 5499   4.076   5.699   3.715  0.3311  0.7255  0.3069
   17MOL    H28 5500   4.239   5.865   3.801  1.1785 -1.3929 -0.6658
   17MOL    H29 5501   4.231   5.990   3.681  0.8789 -0.2786 -0.4034
   17MOL    H30 5502   4.104   5.805   3.539 -0.7765  0.9872 -0.3765
   17MOL    H31 5503   4.050   6.028   3.504 -0.0005  1.2840  0.5651
   17MOL    H32 5504   3.882   6.205   3.532 -0.2932  0.5133 -0.8160
   17MOL    H33 5505   3.702   6.184   3.703  0.2109 -0.3087 -3.1242
   17MOL    H34 5506   3.709   5.996   3.862 -0.4193  2.5700 -0.1656
   17MOL    H35 5507   3.892   5.827   3.851  0.5813  1.3070  1.1671
   17MOL    C36 5508   3.989   5.600   3.658  0.1641  0.1584 -0.3450
   17MOL    C37 5509   4.055   5.516   3.551  0.0008  1.0404  0.0277
   17MOL    C38 5510   4.070   5.581   3.416  0.9998  0.1771  0.2944
   17MOL    C39 5511   4.198   5.591   3.360  0.1301  0.7639 -0.8350
   17MOL    C40 5512   4.223   5.649   3.238 -0.0074  0.2127  0.6061
   17MOL    C41 5513   4.115   5.705   3.170 -0.9569  0.6131 -0.4591
   17MOL    C42 5514   3.983   5.703   3.222 -0.1325  0.0868 -0.5265
   17MOL    C43 5515   3.961   5.635   3.346 -0.1454  0.3843 -0.8215
   17MOL    O44 5516   3.971   5.401   3.541  0.1223 -0.4280 -0.4213
   17MOL    H45 5517   3.984   5.526   3.738 -1.1062 -1.1822 -1.6221
   17MOL    H46 5518   3.885   5.628   3.639 -0.0814  0.0009  0.7278
   17MOL    H47 5519   4.149   5.496   3.602  0.3983  0.2441 -1.0150
   17MOL    H48 5520   4.277   5.545   3.417 -0.7922 -1.7336 -1.4878
   17MOL    H49 5521   4.320   5.653   3.191 -0.7991  0.4715 -1.0285
   17MOL    H50 5522   4.134   5.743   3.071  0.8041  4.2785  1.2022
   17MOL    H51 5523   3.912   5.756   3.160 -2.4918 -1.2675  0.9624
   17MOL    H52 5524   3.861   5.635   3.389 -0.2986 -3.8465 -1.0230
   17MOL    C53 5525   4.022   5.272   3.587 -0.2612  0.1643 -0.0538
   17MOL    C54 5526   4.118   5.204   3.491 -0.6575  0.4435  0.6698
   17MOL    C55 5527   4.162   5.066   3.543  0.5195  0.0351  0.1445
   17MOL    C56 5528   4.069   4.961   3.527  0.0376  0.1511 -0.3981
   17MOL    C57 5529   4.103   4.833   3.583  0.2608  0.6251 -0.1338
   17MOL    C58 5530   4.224   4.813   3.647  0.2452  0.2944 -0.2024
   17MOL    C59 5531   4.316   4.922   3.655  0.2673  0.0013 -0.7217
   17MOL    C60 5532   4.286   5.046   3.607  0.1326 -0.1633 -0.2676
   17MOL    O61 5533   4.047   5.186   3.372  0.4531 -0.1311 -0.4239
   17MOL    H62 5534   4.056   5.279   3.691 -3.5457  0.6010  1.0541
   17MOL    H63 5535   3.930   5.215   3.601 -0.0260  0.2544  2.1501
   17MOL    H64 5536   4.199   5.275   3.477  0.3829 -1.1296 -1.7828
   17MOL    H65 5537   3.977   4.964   3.471 -0.0784  1.7346 -0.1435
   17MOL    H66 5538   4.036   4.748   3.582  2.2438 -0.9721 -0.1145
   17MOL    H67 5539   4.250   4.715   3.684  0.4596  0.2731 -0.4064
   17MOL    H68 5540   4.411   4.902   3.704  0.3119  1.7760 -0.0447
   17MOL    H69 5541   4.356   5.127   3.619  0.1995 -0.3205  0.3976
   17MOL    C70 5542   4.116   5.137   3.255  0.0520 -0.4556 -0.7853
   17MOL    C71 5543   4.184   5.249   3.173 -0.2491 -0.5398  0.4516
   17MOL    C72 5544   4.091   5.310   3.068 -0.5655  0.2758  0.4721
   17MOL    C73 5545   4.130   5.341   2.937  0.5987 -0.2189 -0.5629
   17MOL    C74 5546   4.041   5.401   2.848  0.2860 -0.0273 -0.1436
   17MOL    C75 5547   3.921   5.450   2.900  0.0166 -0.0495 -0.1230
   17MOL    C76 5548   3.885   5.424   3.034  0.6766  0.2078  0.0459
   17MOL    C77 5549   3.972   5.358   3.114 -1.0759 -0.4565 -0.8638
   17MOL    O78 5550   4.304   5.197   3.115 -0.4447 -0.0044  0.2150
   17MOL    H79 5551   4.184   5.058   3.287  1.5432  0.5106 -1.4949
   17MOL    H80 5552   4.037   5.109   3.185 -2.2127 -1.3444  2.0750
   17MOL    H81 5553   4.210   5.327   3.244  0.8194  0.8194 -1.4188
   17MOL    H82 5554   4.230   5.318   2.904  1.6499  3.8407 -0.4837
   17MOL    H83 5555   4.074   5.420   2.747 -0.4515  0.8287 -0.2307
   17MOL    H84 5556   3.859   5.506   2.832  0.6589  0.6880 -0.1087
   17MOL    H85 5557   3.788   5.447   3.075  0.4582 -0.2287 -0.2282
   17MOL    H86 5558   3.945   5.329   3.215  2.5369 -0.7379  0.1007
   17MOL    C87 5559   4.429   5.244   3.173  0.2020 -0.3744 -0.2225
   17MOL    C88 5560   4.539   5.143   3.138  0.1039  0.2969 -0.3641
   17MOL    C89 5561   4.528   5.028   3.234  1.0942  0.4197 -0.7130
   17MOL    C90 5562   4.444   4.921   3.192  0.0953  0.0484  0.5811
   17MOL    C91 5563   4.419   4.817   3.279  0.3312  0.7627  0.3246
   17MOL    C92 5564   4.480   4.814   3.401 -0.6231 -0.2032  0.2747
   17MOL    C93 5565   4.562   4.912   3.442 -0.2135  0.1081 -0.6604
   17MOL    C94 5566   4.588   5.020   3.359  0.0843  0.2992  0.1622
   17MOL    O95 5567   4.669   5.199   3.122  0.6002 -0.2097 -0.7177
   17MOL    H96 5568   4.422   5.248   3.282  0.7580 -1.7394 -0.1211
   17MOL    H97 5569   4.451   5.339   3.125  0.8100 -0.6236 -0.4468
   17MOL    H98 5570   4.521   5.097   3.040 -0.0851  0.4115 -0.3824
   17MOL    H99 5571   4.389   4.915   3.098 -0.3520 -0.3938  0.8657
   17MOL   H100 5572   4.355   4.734   3.257  1.0325 -0.1273  1.5324
   17MOL   H101 5573   4.453   4.731   3.466 -0.6086 -2.2166 -2.2346
   17MOL   H102 5574   4.598   4.904   3.544  1.3800 -2.7446 -1.3917
   17MOL   H103 5575   4.659   5.097   3.386 -0.8942  1.0987  0.4648
   17MOL   C104 5576   4.766   5.104   3.094 -0.2649 -0.2543  0.3802
   17MOL   C105 5577   4.910   5.172   3.077 -0.1554 -0.1614  0.3952
   17MOL   C106 5578   4.910   5.275   2.962 -0.2387 -0.0452  0.4325
   17MOL   C107 5579   4.846   5.400   2.972 -0.0826 -0.4426 -0.1874
   17MOL   C108 5580   4.832   5.491   2.863  0.1058  0.2767 -1.0081
   17MOL   C109 5581   4.895   5.455   2.747 -0.6252  1.0740  0.5648
   17MOL   C110 5582   4.979   5.340   2.741 -0.2045 -0.1956  0.4349
   17MOL   C111 5583   4.988   5.250   2.847  0.1021 -0.2888 -0.5899
   17MOL   O112 5584   4.941   5.236   3.198  0.0728  0.3527  0.3680
   17MOL   H113 5585   4.785   5.028   3.171  3.0333 -2.8152 -2.7472
   17MOL   H114 5586   4.732   5.055   3.003 -1.1845  1.9904 -0.5006
   17MOL   H115 5587   4.988   5.099   3.051 -0.2082  0.7914 -2.7007
   17MOL   H116 5588   4.802   5.428   3.067 -0.3327  0.3269 -0.5222
   17MOL   H117 5589   4.795   5.591   2.878  0.8818  0.3218  0.8747
   17MOL   H118 5590   4.881   5.514   2.657  2.4639 -0.2380 -0.8583
   17MOL   H119 5591   5.035   5.322   2.651 -2.5111  1.8132 -1.4520
   17MOL   H120 5592   5.049   5.161   2.843  0.1706 -0.3365  1.0996
   17MOL   C121 5593   5.024   5.162   3.294 -0.4385  1.0328  0.9564
   17MOL   C122 5594   5.180   5.168   3.256  0.3095 -0.0104  0.5621
   17MOL   C123 5595   5.237   5.293   3.324  0.2326  0.0029 -0.3539
   17MOL   C124 5596   5.298   5.281   3.451  0.6300  0.1919 -0.1961
   17MOL   C125 5597   5.364   5.392   3.508 -0.4903  0.0510 -0.4009
   17MOL   C126 5598   5.368   5.513   3.438  0.2266 -0.5096 -0.2513
   17MOL   C127 5599   5.312   5.522   3.312  0.0372  0.3161 -0.3252
   17MOL   C128 5600   5.237   5.415   3.261 -0.6903 -0.3082  0.4308
   17MOL   O129 5601   5.237   5.047   3.298  0.1038  0.3325  0.5011
   17MOL   H130 5602   4.989   5.059   3.297  0.5742  0.6739  0.5454
   17MOL   H131 5603   5.008   5.201   3.394 -2.7584  0.3966  0.8535
   17MOL   H132 5604   5.187   5.181   3.148 -2.4430 -0.2629  0.3342
   17MOL   H133 5605   5.305   5.180   3.488 -1.4079  0.1744  0.1937
   17MOL   H134 5606   5.423   5.380   3.597 -1.1190 -0.4275 -0.0400
   17MOL   H135 5607   5.431   5.588   3.483 -0.9786 -0.7263  1.8663
   17MOL   H136 5608   5.309   5.619   3.265 -0.8524  0.5677  0.2267
   17MOL   H137 5609   5.184   5.420   3.167  0.6870 -0.6127 -0.3889
   17MOL   C138 5610   5.367   5.021   3.251 -0.1349  0.4020 -0.0735
   17MOL   C139 5611   5.419   4.909   3.340  0.2531  0.2477 -0.1108
   17MOL   C140 5612   5.561   4.874   3.284 -0.2489  0.0773  0.2399
   17MOL   C141 5613   5.573   4.781   3.184 -0.7166  1.3634  0.2396
   17MOL   C142 5614   5.702   4.750   3.130  0.1384  0.5398 -0.2993
   17MOL   C143 5615   5.823   4.808   3.189  0.0341  0.3697 -0.5650
   17MOL   C144 5616   5.808   4.894   3.293 -0.6619 -0.1597 -0.5113
   17MOL   C145 5617   5.678   4.930   3.339  0.2788  0.3349 -0.0518
   17MOL   O146 5618   5.419   4.956   3.476  0.5426 -0.4804 -1.0880
   17MOL   H147 5619   5.431   5.107   3.269 -0.8819  1.1792 -1.0310
   17MOL   H148 5620   5.367   4.981   3.150 -2.0938 -2.2704  0.9188
   17MOL   H149 5621   5.352   4.824   3.325  0.7910 -0.4103  1.1829
   17MOL   H150 5622   5.487   4.726   3.147 -1.1822  1.9006  0.5248
   17MOL   H151 5623   5.715   4.687   3.043 -0.6095  1.4818 -1.0962
   17MOL   H152 5624   5.917   4.783   3.143  0.2485  0.4602 -0.1822
   17MOL   H153 5625   5.893   4.947   3.333 -0.3266 -2.1580  1.5307
   17MOL   H154 5626   5.663   5.007   3.413 -0.2874 -1.2177  1.4721
   17MOL   C155 5627   5.447   4.852   3.577  0.0377  0.6124  1.2088
   17MOL   C156 5628   5.450   4.890   3.718  0.7302 -0.0737  0.2149
   17MOL   C157 5629   5.331   4.979   3.758  0.9728  0.5711  0.3884
   17MOL   C158 5630   5.206   4.928   3.796  0.5344  0.4261  0.0881
   17MOL   C159 5631   5.103   5.024   3.829 -1.0464 -0.8239 -0.7537
   17MOL   C160 5632   5.131   5.164   3.811  0.7314  0.3927  0.3921
   17MOL   C161 5633   5.253   5.210   3.786 -0.2690  0.1147  0.4592
   17MOL   C162 5634   5.357   5.113   3.763  0.1299 -0.6266 -0.1459
   17MOL   O163 5635   5.446   4.763   3.782 -0.5498 -0.3408 -0.1674
   17MOL   H164 5636   5.536   4.802   3.541 -0.8328 -0.3906  0.4317
   17MOL   H165 5637   5.375   4.772   3.562  2.3585 -1.3408  0.2482
   17MOL   H166 5638   5.547   4.938   3.736  0.7427  0.6198 -1.6129
   17MOL   H167 5639   5.193   4.821   3.803  2.6021  0.0912 -0.7028
   17MOL   H168 5640   5.009   4.986   3.867 -0.3991 -2.1056 -0.3784
   17MOL   H169 5641   5.055   5.238   3.835  1.8456  2.3164 -1.7486
   17MOL   H170 5642   5.286   5.312   3.780 -0.3183  0.1028 -0.0624
   17MOL   H171 5643   5.452   5.148   3.726  0.2452 -0.3928  0.3731
   17MOL   C172 5644   5.457   4.767   3.923 -0.2849  0.1793 -0.0856
   17MOL   C173 5645   5.523   4.632   3.973  0.3908 -0.4198  0.2311
   17MOL   C174 5646   5.539   4.632   4.122  0.1481  0.3860 -0.5683
   17MOL   C175 5647   5.428   4.596   4.212 -0.7904  0.5322  0.1399
   17MOL   C176 5648   5.458   4.581   4.350 -0.6663 -0.2109 -1.1113
   17MOL   C177 5649   5.587   4.603   4.405  0.1644  0.2087  1.1221
   17MOL   C178 5650   5.683   4.647   4.316 -0.3666  0.4248  0.5924
   17MOL   C179 5651   5.666   4.664   4.174 -0.1004 -0.3543 -0.2325
   17MOL   O180 5652   5.641   4.607   3.897 -0.3494  0.3881  0.4623
   17MOL   H181 5653   5.514   4.853   3.959 -2.6419  0.3124  3.5702
   17MOL   H182 5654   5.358   4.770   3.968 -0.3321 -0.4990 -0.1343
   17MOL   H183 5655   5.453   4.549   3.963 -0.6602  0.5089 -0.1551
   17MOL   H184 5656   5.335   4.566   4.167  1.4460 -1.6642 -3.3539
   17MOL   H185 5657   5.385   4.557   4.426  1.6089 -1.4279  0.7661
   17MOL   H186 5658   5.610   4.590   4.509 -0.7853  1.5965  1.5192
   17MOL   H187 5659   5.777   4.664   4.365  0.2091  2.3253 -1.0964
   17MOL   H188 5660   5.750   4.690   4.111  0.2341  0.3577  0.4868
   17MOL   C189 5661   5.690   4.473   3.896  0.2452  0.7545  0.8553
   17MOL   C190 5662   5.616   4.374   3.814  0.9568 -0.6361 -0.2867
   17MOL   C191 5663   5.586   4.419   3.672  0.1883  0.1105 -0.1579
   17MOL   C192 5664   5.455   4.450   3.629  0.3810 -0.3911  0.2897
   17MOL   C193 5665   5.443   4.502   3.495  0.2682  0.2493  0.4357
   17MOL   C194 5666   5.552   4.517   3.413  0.3779  0.0387  0.0056
   17MOL   C195 5667   5.684   4.485   3.455 -0.8125  0.0755  0.1815
   17MOL   C196 5668   5.702   4.446   3.589 -0.1985  0.6236 -0.1970
   17MOL   O197 5669   5.497   4.339   3.890 -0.4092 -0.1539 -0.5167
   17MOL   H198 5670   5.792   4.473   3.858 -0.9877  2.0411 -2.6637
   17MOL   H199 5671   5.701   4.446   4.001  0.4004  0.2035  0.6969
   17MOL   H200 5672   5.677   4.283   3.808  0.9822 -0.5806 -0.8871
   17MOL   H201 5673   5.364   4.437   3.686 -1.8190 -3.5187 -3.6241
   17MOL   H202 5674   5.345   4.541   3.472 -1.0235 -2.3770  1.2971
   17MOL   H203 5675   5.533   4.555   3.314 -2.4254 -1.2333  0.0246
   17MOL   H204 5676   5.774   4.497   3.397 -2.5948 -1.1673 -2.9851
   17MOL   H205 5677   5.798   4.426   3.634  0.1205  1.5262 -0.4569
   17MOL   C206 5678   5.444   4.214   3.862  0.4448  0.4383 -0.6103
   17MOL   C207 5679   5.297   4.204   3.911  0.4320 -0.5854  0.4146
   17MOL   C208 5680   5.272   4.078   3.987  0.3513  0.3276  0.3988
   17MOL   C209 5681   5.264   3.952   3.924 -0.2689 -0.8805 -0.3040
   17MOL   C210 5682   5.227   3.833   3.992  0.1015  0.2013 -0.0004
   17MOL   C211 5683   5.190   3.847   4.131 -0.2513  0.1015  0.6935
   17MOL   C212 5684   5.203   3.970   4.199  0.3664 -0.7336 -0.0594
   17MOL   C213 5685   5.240   4.088   4.127 -0.2513  0.4331 -0.1224
   17MOL   O214 5686   5.208   4.201   3.792  0.4754  0.2180 -0.0095
   17MOL   H215 5687   5.449   4.189   3.756 -0.0048 -2.8784  0.0797
   17MOL   H216 5688   5.500   4.135   3.912 -1.1940  0.2011  0.8784
   17MOL   H217 5689   5.276   4.294   3.968  0.5317 -0.4826  0.2918
   17MOL   H218 5690   5.281   3.950   3.817  1.7143  1.7583 -0.0937
   17MOL   H219 5691   5.214   3.738   3.943  0.5439 -0.3585  0.9479
   17MOL   H220 5692   5.169   3.754   4.181 -1.1665  0.8867  1.8131
   17MOL   H221 5693   5.180   3.969   4.304 -2.3064 -1.2708 -0.6051
   17MOL   H222 5694   5.248   4.179   4.185 -1.1970 -0.2216  1.0493
   17MOL   C223 5695   5.067   4.231   3.810  0.0136  0.0301 -0.3574
   17MOL   C224 5696   5.003   4.233   3.670 -0.0358 -1.0071  0.2241
   17MOL   C225 5697   4.993   4.095   3.616  0.0164  0.1275 -0.3346
   17MOL   C226 5698   4.877   4.020   3.641  0.3774 -0.2521  1.2510
   17MOL   C227 5699   4.872   3.886   3.598  0.7334 -0.2713 -0.0508
   17MOL   C228 5700   4.977   3.834   3.514  0.2198  0.0197 -0.6183
   17MOL   C229 5701   5.086   3.913   3.493  0.7295 -0.5158 -0.5129
   17MOL   C230 5702   5.098   4.041   3.540 -0.1023 -0.8049 -0.1404
   17MOL   O231 5703   4.884   4.305   3.673 -0.3478 -0.1107 -0.2667
   17MOL   H232 5704   5.018   4.154   3.870  0.4134 -0.0405 -0.1211
   17MOL   H233 5705   5.045   4.321   3.867 -1.7987  1.1181 -2.7345
   17MOL   H234 5706   5.078   4.282   3.608 -0.2008 -1.9328 -0.7064
   17MOL   H235 5707   4.788   4.054   3.692 -0.5224  0.2627 -0.6172
   17MOL   H236 5708   4.788   3.819   3.611 -0.7642  0.6429 -4.2950
   17MOL   H237 5709   4.977   3.736   3.469  1.6255  0.8788 -2.5761
   17MOL   H238 5710   5.175   3.882   3.440  0.9895  0.1171 -0.4507
   17MOL   H239 5711   5.185   4.102   3.525 -2.1492  2.1660 -0.4910
   17MOL   C240 5712   4.842   4.351   3.540  0.8338  0.1242 -0.1941
   17MOL   C241 5713   4.716   4.421   3.539  0.8927 -0.1681 -0.1938
   17MOL   C242 5714   4.694   4.530   3.643 -0.5466  0.3353  0.2190
   17MOL   C243 5715   4.572   4.567   3.698  0.2849 -0.0935 -0.2710
   17MOL   C244 5716   4.563   4.666   3.794  0.5798 -0.1122 -0.0638
   17MOL   C245 5717   4.676   4.730   3.848  0.1559  0.5311  0.2540
   17MOL   C246 5718   4.801   4.700   3.790 -0.7657  0.6528  0.1000
   17MOL   C247 5719   4.809   4.595   3.692 -0.6974  0.3929 -0.2218
   17MOL   O248 5720   4.672   4.463   3.413 -0.1386 -0.9484 -0.0146
   17MOL   H249 5721   4.920   4.416   3.501 -1.1498  1.5527 -1.8882
   17MOL   H250 5722   4.839   4.278   3.460 -0.1934  1.6882 -1.6140
   17MOL   H251 5723   4.644   4.342   3.558  2.1410 -1.6158 -1.3915
   17MOL   H252 5724   4.479   4.528   3.659 -0.1787 -2.0067  2.6090
   17MOL   H253 5725   4.469   4.703   3.833  0.3292  1.2372 -1.8910
   17MOL   H254 5726   4.674   4.805   3.926 -0.6860 -0.4170  1.1566
   17MOL   H255 5727   4.894   4.749   3.812 -1.0846  1.2321  0.1739
   17MOL   H256 5728   4.906   4.569   3.653  0.1467  1.6267  1.0357
   17MOL   C257 5729   4.619   4.372   3.313  0.4174  0.0032  0.1939
   17MOL   C258 5730   4.556   4.450   3.190 -0.2200 -0.3042  0.4376
   17MOL   C259 5731   4.462   4.369   3.100 -0.7003  1.3063  0.2516
   17MOL   C260 5732   4.332   4.343   3.138  0.3544 -0.0635  0.2110
   17MOL   C261 5733   4.247   4.252   3.069  0.7151 -0.0463  0.4103
   17MOL   C262 5734   4.295   4.194   2.947 -0.2178 -0.0603 -0.1292
   17MOL   C263 5735   4.423   4.225   2.901  0.0313  1.2761  0.2039
   17MOL   C264 5736   4.505   4.308   2.984 -0.3004  0.2608 -0.0473
   17MOL   O265 5737   4.665   4.506   3.124  0.4274  0.1474 -0.3480
   17MOL   H266 5738   4.537   4.314   3.355 -1.3540  3.9687  2.5961
   17MOL   H267 5739   4.698   4.310   3.272  1.9854  1.2206  1.3306
   17MOL   H268 5740   4.495   4.526   3.238 -2.1237 -1.2690 -0.3634
   17MOL   H269 5741   4.289   4.400   3.220 -1.2795 -0.3828 -0.4015
   17MOL   H270 5742   4.141   4.245   3.089  0.6158 -1.3773 -0.5380
   17MOL   H271 5743   4.224   4.127   2.901 -0.8440 -0.9249  2.0379
   17MOL   H272 5744   4.467   4.180   2.813 -0.4601 -0.4068  0.8044
   17MOL   H273 5745   4.604   4.332   2.946  0.0025  2.2548  1.9178
   17MOL   C274 5746   4.653   4.628   3.056 -0.6460 -0.4773  0.5668
   17MOL   C275 5747   4.788   4.699   3.023 -0.0540 -0.2440  0.1110
   17MOL   C276 5748   4.871   4.723   3.147  0.2102  0.0833  0.1709
   17MOL   C277 5749   5.003   4.738   3.116  0.1538  0.1069 -0.1832
   17MOL   C278 5750   5.102   4.751   3.214  0.2811  0.0045  0.1712
   17MOL   C279 5751   5.061   4.750   3.354 -0.1343  0.8232 -0.3881
   17MOL   C280 5752   4.928   4.734   3.382  0.6039  0.1392  0.1480
   17MOL   C281 5753   4.832   4.717   3.281  0.2921 -0.1679 -0.3256
   17MOL   O282 5754   4.782   4.822   2.945  0.4331  0.3294 -0.2713
   17MOL   H283 5755   4.586   4.607   2.972 -0.6704 -1.1748  0.7564
   17MOL   H284 5756   4.592   4.696   3.116 -0.1606 -0.3942  0.9645
   17MOL   H285 5757   4.844   4.626   2.964 -1.4288 -1.6622  0.5171
   17MOL   H286 5758   5.042   4.748   3.016  2.0846 -0.8394  0.4556
   17MOL   H287 5759   5.204   4.760   3.179 -0.7900  0.7694 -2.8867
   17MOL   H288 5760   5.133   4.778   3.429 -0.2516  0.9270 -0.3125
   17MOL   H289 5761   4.894   4.745   3.484 -0.8516 -0.1109 -0.2957
   17MOL   H290 5762   4.728   4.702   3.309  0.0193  1.1637 -0.6078
   17MOL   C291 5763   4.708   4.809   2.825 -0.3428 -0.0358  0.2986
   17MOL   C292 5764   4.759   4.909   2.720  0.4315 -0.7343 -0.4652
   17MOL   C293 5765   4.860   4.842   2.628 -0.4454  0.6530 -0.2588
   17MOL   C294 5766   4.832   4.820   2.488 -0.5528  0.3537 -0.0525
   17MOL   C295 5767   4.937   4.764   2.405 -0.5142  0.2339  0.8162
   17MOL   C296 5768   5.063   4.731   2.457 -0.2996 -1.1130  0.5467
   17MOL   C297 5769   5.085   4.750   2.594  0.6723  0.2633 -0.8117
   17MOL   C298 5770   4.983   4.790   2.680  0.2814  0.7458 -0.0440
   17MOL   O299 5771   4.646   4.965   2.646 -0.6628 -0.0868 -0.2069
   17MOL   H300 5772   4.600   4.814   2.837 -0.6302 -2.1514 -1.2214
   17MOL   H301 5773   4.705   4.708   2.783 -0.0682 -1.3315  3.2447
   17MOL   H302 5774   4.817   4.985   2.772  0.6821 -1.5407  0.4361
   17MOL   H303 5775   4.736   4.837   2.442 -1.3636 -1.2315  0.9987
   17MOL   H304 5776   4.899   4.734   2.309 -0.1799 -1.7675  1.2891
   17MOL   H305 5777   5.127   4.682   2.385  0.3859 -0.9097  1.0052
   17MOL   H306 5778   5.187   4.724   2.619  0.7464  0.2631 -1.1043
   17MOL   H307 5779   5.002   4.797   2.786 -0.6022 -0.7023  0.2140
   17MOL   C308 5780   4.587   5.077   2.705  0.3402  0.3152  0.3718
   17MOL   C309 5781   4.456   5.134   2.651  0.6737  0.0397 -0.4010
   17MOL   C310 5782   4.337   5.036   2.650  0.1046  0.2259 -0.3045
   17MOL   C311 5783   4.328   4.938   2.545 -0.4209 -0.9132 -0.1631
   17MOL   C312 5784   4.228   4.838   2.547  0.7983 -0.1499 -0.0956
   17MOL   C313 5785   4.129   4.843   2.644  0.1378 -0.1014  0.1142
   17MOL   C314 5786   4.139   4.932   2.756 -0.6715  0.2097 -0.5067
   17MOL   C315 5787   4.247   5.025   2.760 -0.2552 -0.2853  0.1701
   17MOL   O316 5788   4.406   5.241   2.732  0.5697 -1.1851  0.2791
   17MOL   H317 5789   4.661   5.156   2.714 -0.8293  1.6307 -1.3224
   17MOL   H318 5790   4.553   5.039   2.801  0.7127 -1.9524 -0.3554
   17MOL   H319 5791   4.459   5.166   2.546 -3.9845  1.1745 -0.3012
   17MOL   H320 5792   4.406   4.920   2.471  0.0440  3.6121 -0.9029
   17MOL   H321 5793   4.232   4.757   2.475  0.1877  0.3612 -0.7082
   17MOL   H322 5794   4.052   4.768   2.638  0.6617 -0.6102 -0.3222
   17MOL   H323 5795   4.064   4.921   2.833 -2.0915  1.3009 -1.7094
   17MOL   H324 5796   4.272   5.083   2.847 -1.0763  0.3480 -0.0119
   17MOL   C325 5797   4.492   5.355   2.732 -0.7710 -0.1022 -0.0789
   17MOL   C326 5798   4.409   5.479   2.715  0.7324 -0.1964  0.4310
   17MOL   C327 5799   4.478   5.606   2.767 -0.2222  0.7875 -0.1749
   17MOL   C328 5800   4.579   5.664   2.691 -0.4814  0.1472 -1.0644
   17MOL   C329 5801   4.660   5.769   2.749 -0.2153  0.3180  0.0309
   17MOL   C330 5802   4.633   5.813   2.879 -0.6889 -0.0416  0.3233
   17MOL   C331 5803   4.537   5.750   2.955  0.1666  0.9996 -0.5631
   17MOL   C332 5804   4.454   5.649   2.899 -0.4861 -0.6362  0.2872
   17MOL   O333 5805   4.378   5.506   2.577  0.3130  0.2823 -0.2090
   17MOL   H334 5806   4.568   5.351   2.654  0.0285  0.6339  0.6581
   17MOL   H335 5807   4.542   5.349   2.828 -2.0923 -0.2334  0.6079
   17MOL   H336 5808   4.316   5.461   2.768 -0.1316 -0.2488 -1.0814
   17MOL   H337 5809   4.592   5.630   2.590 -0.5534 -1.3798 -0.5805
   17MOL   H338 5810   4.741   5.812   2.692 -0.5310  3.8267  2.1229
   17MOL   H339 5811   4.692   5.890   2.926  1.8522 -3.1096  2.3996
   17MOL   H340 5812   4.528   5.779   3.058 -1.0484  1.0218 -0.6677
   17MOL   H341 5813   4.372   5.605   2.954 -1.3003 -0.5794 -0.8608
   17MOL   H342 5814   4.438   5.465   2.517 -0.6432  0.1177 -1.0801
   18MOL     C1 5815   7.702   0.560   0.673 -0.2880 -0.1652 -0.4225
   18MOL     C2 5816   7.741   0.462   0.785  0.2000 -0.5919 -0.9207
   18MOL     C3 5817   7.829   0.352   0.730 -0.8427  0.5578 -0.3616
   18MOL     C4 5818   7.772   0.230   0.676 -0.0769  0.2901 -0.1382
   18MOL     C5 5819   7.857   0.122   0.650 -0.6801 -0.5701  0.1018
   18MOL     C6 5820   7.994   0.148   0.648 -0.5542 -0.1578  0.4628
   18MOL     C7 5821   8.048   0.270   0.686  0.5860  0.5088  0.6556
   18MOL     C8 5822   7.962   0.370   0.731 -0.4819  0.4893 -0.3211
   18MOL     O9 5823   7.610   0.433   0.844 -0.0717  0.3755  0.2148
   18MOL    H10 5824   7.611   0.618   0.688 -0.6910 -0.3901 -1.9088
   18MOL    H11 5825   7.781   0.628   0.643  2.1045 -3.1211 -0.9768
   18MOL    H12 5826   7.796   0.530   0.850 -1.4207 -0.2925  0.1607
   18MOL    H13 5827   7.666   0.211   0.688 -0.2748  2.0231  1.0604
   18MOL    H14 5828   7.809   0.031   0.617 -0.4225 -0.9715  0.8187
   18MOL    H15 5829   8.063   0.069   0.621  0.7384  1.1452 -0.0938
   18MOL    H16 5830   0.074   0.288   0.680  0.5559  1.3335  2.2862
   18MOL    H17 5831   8.008   0.463   0.763  0.9539 -0.7297  1.2270
   18MOL    H18 5832   7.687   0.518   0.573 -2.4279  0.5659 -0.4322
   18MOL    C19 5833   7.612   0.391   0.977  0.7199 -0.1428  0.4478
   18MOL    C20 5834   7.468   0.363   1.015  0.2001  0.1379 -0.8351
   18MOL    C21 5835   7.456   0.324   1.166  0.1832 -0.6306  0.2301
   18MOL    C22 5836   7.419   0.428   1.257  0.5234 -0.3710 -0.1623
   18MOL    C23 5837   7.408   0.394   1.391  0.4032 -0.1959 -0.0635
   18MOL    C24 5838   7.432   0.263   1.446  0.0398 -0.4158  0.7680
   18MOL    C25 5839   7.474   0.163   1.353  0.0418 -0.3372 -0.1811
   18MOL    C26 5840   7.482   0.192   1.211  0.6184 -0.4728 -0.3944
   18MOL    O27 5841   7.423   0.250   0.937 -0.1026  0.3151 -1.0777
   18MOL    H28 5842   7.683   0.309   0.989  1.2386  0.5270  2.0756
   18MOL    H29 5843   7.661   0.456   1.049  0.5564 -0.4089  0.8006
   18MOL    H30 5844   7.411   0.451   0.985  1.6887  1.5206  0.3157
   18MOL    H31 5845   7.392   0.525   1.220  0.4950 -1.0272 -1.8983
   18MOL    H32 5846   7.373   0.474   1.455 -0.3632  0.1174 -0.8635
   18MOL    H33 5847   7.413   0.243   1.550  0.9630 -0.3207  0.9571
   18MOL    H34 5848   7.494   0.065   1.393 -1.2376 -2.0329 -3.5868
   18MOL    H35 5849   7.521   0.117   1.143 -1.9275 -2.1425 -0.0665
   18MOL    C36 5850   7.282   0.254   0.907  0.1728  0.7785  0.3689
   18MOL    C37 5851   7.232   0.138   0.826  0.0257 -0.7419  0.3516
   18MOL    C38 5852   7.281   0.007   0.891  0.5124 -0.1442 -0.3809
   18MOL    C39 5853   7.411   8.045   0.872  0.2844 -0.0206  0.2128
   18MOL    C40 5854   7.462   7.927   0.936  0.2478 -0.4177 -0.4944
   18MOL    C41 5855   7.386   7.862   1.028  0.6544 -0.0992 -0.3452
   18MOL    C42 5856   7.252   7.905   1.047  0.5342  0.5131 -0.0520
   18MOL    C43 5857   7.196   8.014   0.977 -0.0153 -0.5714  0.0666
   18MOL    O44 5858   7.265   0.149   0.688  0.5692 -0.0941 -0.8747
   18MOL    H45 5859   7.237   0.246   1.006 -2.1157 -0.9014 -0.7656
   18MOL    H46 5860   7.255   0.346   0.856  3.1099 -0.0791 -2.8854
   18MOL    H47 5861   7.124   0.128   0.828  0.0240 -1.1149 -0.9271
   18MOL    H48 5862   7.470   0.024   0.803  1.6829 -1.5962  0.0221
   18MOL    H49 5863   7.565   7.897   0.925  0.1089 -0.6040 -1.3117
   18MOL    H50 5864   7.414   7.769   1.075 -3.3494 -2.3496 -2.2065
   18MOL    H51 5865   7.181   7.858   1.114 -1.1472 -0.0519 -2.1995
   18MOL    H52 5866   7.094   8.048   0.987  0.0696 -0.7507  1.6544
   18MOL    C53 5867   7.209   0.063   0.592 -0.4624 -0.2537 -0.3916
   18MOL    C54 5868   7.320   0.050   0.488  0.5476  0.1407  0.1756
   18MOL    C55 5869   7.298   7.993   0.405 -0.1380  0.4038 -0.1256
   18MOL    C56 5870   7.350   7.873   0.455  0.0330 -0.8530  0.4494
   18MOL    C57 5871   7.346   7.755   0.382 -0.0082 -0.4772 -0.2074
   18MOL    C58 5872   7.284   7.759   0.256 -0.4730 -0.0197 -0.0527
   18MOL    C59 5873   7.225   7.878   0.203 -0.5426 -0.3856  0.1215
   18MOL    C60 5874   7.246   7.998   0.276  0.2329  0.1517  0.0062
   18MOL    O61 5875   7.331   0.157   0.397  0.2369  0.2944  0.5212
   18MOL    H62 5876   7.192   8.051   0.648  0.7097 -0.2250  0.0093
   18MOL    H63 5877   7.122   0.112   0.548 -0.9580  0.3746  1.2312
   18MOL    H64 5878   7.410   0.038   0.549  0.7521 -2.7675 -0.6504
   18MOL    H65 5879   7.394   7.872   0.554 -0.0822 -1.1048  0.4975
   18MOL    H66 5880   7.380   7.667   0.434 -2.4325 -0.9101  0.6848
   18MOL    H67 5881   7.286   7.672   0.192  2.0118 -0.5597  0.6942
   18MOL    H68 5882   7.176   7.885   0.106  2.0753  1.6410 -1.1032
   18MOL    H69 5883   7.216   0.016   0.241 -0.7004  0.7746  2.4362
   18MOL    C70 5884   7.384   0.275   0.443  0.3491  0.0627 -0.2266
   18MOL    C71 5885   7.413   0.357   0.318 -0.6899  0.3345  0.8372
   18MOL    C72 5886   7.546   0.313   0.247 -0.7201  0.4185 -0.2572
   18MOL    C73 5887   7.543   0.254   0.120  0.4379  0.1516 -0.1468
   18MOL    C74 5888   7.660   0.218   0.056 -0.5404  0.1072 -0.1784
   18MOL    C75 5889   7.783   0.232   0.124  0.3352  0.3204 -0.2065
   18MOL    C76 5890   7.784   0.276   0.254 -0.4716  0.1536  0.1799
   18MOL    C77 5891   7.670   0.326   0.316  0.0921 -0.8282  0.3035
   18MOL    O78 5892   7.406   0.490   0.356 -0.0685  0.2232  0.3308
   18MOL    H79 5893   7.304   0.331   0.492  1.0537  1.7229 -0.9555
   18MOL    H80 5894   7.465   0.257   0.514  0.3602  1.5396  0.1383
   18MOL    H81 5895   7.335   0.331   0.246  0.6955 -1.6410 -0.0014
   18MOL    H82 5896   7.444   0.229   0.085  0.7510  0.8781 -1.5906
   18MOL    H83 5897   7.652   0.171   8.039 -1.1867  1.9181 -1.0316
   18MOL    H84 5898   7.868   0.192   0.072  0.1993 -0.8746  0.4881
   18MOL    H85 5899   7.878   0.266   0.307  0.6049 -0.7709 -1.8577
   18MOL    H86 5900   7.669   0.362   0.418  1.1052  1.9919 -0.6369
   18MOL    C87 5901   7.432   0.590   0.261 -0.3619  0.0900 -0.2716
   18MOL    C88 5902   7.324   0.605   0.153 -0.6755  1.2047  0.2313
   18MOL    C89 5903   7.380   0.637   0.008 -0.2609 -0.8644 -0.6179
   18MOL    C90 5904   7.494   0.577   8.029 -0.1615  0.5522 -0.9610
   18MOL    C91 5905   7.548   0.629   7.904 -0.9007  0.2289 -0.5050
   18MOL    C92 5906   7.477   0.731   7.834 -0.5816  0.2812  0.2102
   18MOL    C93 5907   7.364   0.788   7.892  1.2253 -0.5810  0.1582
   18MOL    C94 5908   7.325   0.751   8.020 -0.1576  0.7725 -0.5679
   18MOL    O95 5909   7.230   0.712   0.190  0.2813  0.2597  0.0571
   18MOL    H96 5910   7.532   0.569   0.223 -0.0886 -0.8693  0.9568
   18MOL    H97 5911   7.431   0.682   0.320 -2.1531 -0.1440  0.0821
   18MOL    H98 5912   7.280   0.507   0.131 -2.4740  2.1273 -0.4060
   18MOL    H99 5913   7.561   0.507   8.076 -0.8239  0.8827  0.4992
   18MOL   H100 5914   7.639   0.589   7.862  0.2041 -0.0299  2.0315
   18MOL   H101 5915   7.491   0.753   7.729 -1.3215 -1.0879 -0.2032
   18MOL   H102 5916   7.307   0.865   7.841 -2.3603 -3.5822 -0.6467
   18MOL   H103 5917   7.249   0.812   8.068  0.0548 -0.5320  1.5105
   18MOL   C104 5918   7.089   0.677   0.182 -0.3580 -0.0116 -0.2660
   18MOL   C105 5919   7.055   0.583   0.309 -0.3619 -0.4054  0.1544
   18MOL   C106 5920   7.036   0.668   0.429 -0.0648 -0.3244  0.5665
   18MOL   C107 5921   7.131   0.668   0.530 -0.4062 -0.0350  0.0379
   18MOL   C108 5922   7.116   0.757   0.639  1.1109 -0.6604 -0.1129
   18MOL   C109 5923   7.007   0.839   0.650  0.1428  0.0358  0.3276
   18MOL   C110 5924   6.904   0.830   0.554  0.3380 -0.9001 -0.0218
   18MOL   C111 5925   6.918   0.743   0.450  0.7668  0.1661 -1.1526
   18MOL   O112 5926   6.938   0.509   0.286 -0.5733  0.1605 -0.0897
   18MOL   H113 5927   7.035   0.771   0.179  0.3697  0.3903 -1.1975
   18MOL   H114 5928   7.077   0.614   0.093  3.0341  0.4379 -1.1371
   18MOL   H115 5929   7.143   0.520   0.320 -1.1830 -1.0677  3.5963
   18MOL   H116 5930   7.218   0.606   0.512 -0.4936  0.0185 -0.5970
   18MOL   H117 5931   7.189   0.752   0.719  0.9805 -0.2140  0.0327
   18MOL   H118 5932   6.995   0.911   0.730  1.3470  1.0490 -0.3775
   18MOL   H119 5933   6.817   0.893   0.565  0.8459 -0.2446  0.3352
   18MOL   H120 5934   6.848   0.732   0.369  0.8077  1.5426 -1.3899
   18MOL   C121 5935   6.924   0.382   0.353 -0.4302  0.1324 -0.1846
   18MOL   C122 5936   6.813   0.300   0.292  0.3717 -0.1242 -0.7673
   18MOL   C123 5937   6.863   0.233   0.161  0.1868 -0.3452  0.9664
   18MOL   C124 5938   6.913   0.102   0.147  0.4923 -0.5635  0.1868
   18MOL   C125 5939   6.963   0.054   0.026  0.8763 -0.6130  0.8623
   18MOL   C126 5940   6.946   0.125   7.991  0.2266 -1.1712 -0.7678
   18MOL   C127 5941   6.884   0.250   7.997 -0.2989 -0.7433 -0.2587
   18MOL   C128 5942   6.848   0.308   0.042 -0.2115 -0.3423 -0.6219
   18MOL   O129 5943   6.790   0.206   0.390  0.0992 -0.0906 -0.1073
   18MOL   H130 5944   6.905   0.421   0.453 -0.0671  2.6863 -1.0688
   18MOL   H131 5945   7.025   0.341   0.351  1.1059  3.6948 -0.0874
   18MOL   H132 5946   6.721   0.358   0.281  0.0133 -0.4352  0.5702
   18MOL   H133 5947   6.933   0.046   0.237 -2.6409 -2.5660 -0.3039
   18MOL   H134 5948   7.008   8.036   0.023  3.1553  0.4382 -1.2449
   18MOL   H135 5949   6.991   0.097   7.897  0.7922 -1.4085 -0.4298
   18MOL   H136 5950   6.873   0.301   7.903  1.8189 -1.6886 -1.0340
   18MOL   H137 5951   6.814   0.410   0.057 -0.5724 -0.8483  2.1038
   18MOL   C138 5952   6.655   0.153   0.397 -0.3310 -0.0602  0.7723
   18MOL   C139 5953   6.653   0.043   0.505  0.0930  0.8670 -0.0199
   18MOL   C140 5954   6.734   7.997   0.481 -0.2341 -0.0156 -0.0072
   18MOL   C141 5955   6.874   7.996   0.511  0.0299 -0.3758 -0.3461
   18MOL   C142 5956   6.957   7.884   0.489  0.7110 -0.0027 -0.4065
   18MOL   C143 5957   6.899   7.769   0.434 -0.0779 -0.3042  1.2887
   18MOL   C144 5958   6.757   7.764   0.414  0.1453  0.8167 -0.0436
   18MOL   C145 5959   6.675   7.876   0.429  0.1573 -0.1969 -0.4533
   18MOL   O146 5960   6.691   0.108   0.624 -0.7346 -0.3677 -0.4948
   18MOL   H147 5961   6.623   0.106   0.304  0.6789 -1.1105  0.9526
   18MOL   H148 5962   6.592   0.239   0.421  0.0422  0.6054 -0.5755
   18MOL   H149 5963   6.545   0.030   0.512 -0.1892  3.8298  2.0471
   18MOL   H150 5964   6.929   0.003   0.545 -1.7421  0.8111 -0.4364
   18MOL   H151 5965   7.059   7.873   0.523 -0.2762 -1.1714  2.2710
   18MOL   H152 5966   6.956   7.681   0.409  0.7325  1.1909 -2.4216
   18MOL   H153 5967   6.707   7.678   0.372  1.0801 -0.8704  2.2125
   18MOL   H154 5968   6.570   7.868   0.405  0.6285 -3.1486 -1.6843
   18MOL   C155 5969   6.634   0.061   0.749 -0.4362 -0.1226 -0.5121
   18MOL   C156 5970   6.740   0.079   0.859 -0.1686 -0.5270 -0.4374
   18MOL   C157 5971   6.781   0.220   0.884 -0.1533 -0.1258 -0.0582
   18MOL   C158 5972   6.712   0.302   0.968  0.5213  0.3548  0.4646
   18MOL   C159 5973   6.751   0.436   0.979  0.3491 -0.6783 -0.1472
   18MOL   C160 5974   6.861   0.485   0.915 -0.7749  0.0315  0.1029
   18MOL   C161 5975   6.928   0.413   0.816  0.4740 -0.5656  0.0036
   18MOL   C162 5976   6.889   0.279   0.809  0.1075  0.2415  0.4339
   18MOL   O163 5977   6.687   0.017   0.979  0.3188 -0.1078  0.3790
   18MOL   H164 5978   6.605   8.036   0.755 -0.6177  0.0275  1.3096
   18MOL   H165 5979   6.552   0.127   0.776  0.9506  0.4966  2.3956
   18MOL   H166 5980   6.831   0.023   0.838  0.2847  0.0127  0.0464
   18MOL   H167 5981   6.620   0.259   1.005  1.5015  0.4510  3.1949
   18MOL   H168 5982   6.704   0.506   1.047  0.6851 -2.3930  1.9287
   18MOL   H169 5983   6.895   0.586   0.930  2.4357 -0.5518 -2.7581
   18MOL   H170 5984   7.006   0.454   0.754  0.0286 -0.0259 -0.2019
   18MOL   H171 5985   6.942   0.226   0.731 -0.4661  0.4607 -0.1114
   18MOL   C172 5986   6.770   8.071   1.093 -0.2164 -0.1634 -0.0503
   18MOL   C173 5987   6.694   8.000   1.209 -0.3712 -0.4614  0.7674
   18MOL   C174 5988   6.609   0.019   1.287 -0.0607 -0.8125 -0.7298
   18MOL   C175 5989   6.467   0.014   1.277 -0.2271 -0.3249  0.9687
   18MOL   C176 5990   6.387   0.105   1.337  0.5243  1.0624 -0.0939
   18MOL   C177 5991   6.442   0.202   1.421 -0.1055  0.5091  0.1405
   18MOL   C178 5992   6.583   0.221   1.424  0.4827 -0.0966 -0.4111
   18MOL   C179 5993   6.662   0.124   1.359 -0.4952  0.5815  0.6360
   18MOL   O180 5994   6.773   7.908   1.290 -0.0036  0.4379  0.1420
   18MOL   H181 5995   6.853   8.004   1.071  1.3738  1.3575  1.2956
   18MOL   H182 5996   6.818   0.085   1.118 -0.0606 -0.3394  0.3028
   18MOL   H183 5997   6.630   7.935   1.150  0.9625  1.0828 -2.5319
   18MOL   H184 5998   6.423   8.011   1.224  2.1751  0.1594 -1.9586
   18MOL   H185 5999   6.282   0.080   1.345  0.4612  1.0347 -1.0186
   18MOL   H186 6000   6.386   0.284   1.463 -1.3210 -0.0719 -0.3079
   18MOL   H187 6001   6.623   0.305   1.479 -2.8899  0.9074  0.6748
   18MOL   H188 6002   6.770   0.124   1.366 -0.4919  0.8506  0.5984
   18MOL   C189 6003   6.837   7.800   1.218 -0.1196 -0.8597  0.0468
   18MOL   C190 6004   6.868   7.691   1.316  0.0754  0.1339  0.6159
   18MOL   C191 6005   6.995   7.612   1.275 -0.2679 -0.3307 -0.1141
   18MOL   C192 6006   6.998   7.556   1.147  0.8899  0.4307 -0.8823
   18MOL   C193 6007   7.111   7.485   1.109 -0.2250  0.2046  0.0254
   18MOL   C194 6008   7.212   7.463   1.201 -0.5539  0.6799  0.5524
   18MOL   C195 6009   7.212   7.523   1.327 -0.4599  0.0327 -0.3656
   18MOL   C196 6010   7.102   7.599   1.371  0.1974 -0.3615  0.0304
   18MOL   O197 6011   6.751   7.601   1.304  0.0491 -0.0082  0.2115
   18MOL   H198 6012   6.778   7.758   1.136  1.0250  1.3260 -1.9554
   18MOL   H199 6013   6.933   7.833   1.177  1.0223 -2.8950  1.0236
   18MOL   H200 6014   6.875   7.730   1.417  1.3428 -0.0695  0.6137
   18MOL   H201 6015   6.926   7.579   1.069 -0.2161  1.0881  0.3074
   18MOL   H202 6016   7.118   7.446   1.008 -2.5390  1.4479 -0.6501
   18MOL   H203 6017   7.301   7.406   1.179 -1.8220 -0.8825 -0.6140
   18MOL   H204 6018   7.292   7.506   1.398  0.0325  1.8997 -0.4313
   18MOL   H205 6019   7.100   7.642   1.470 -2.8823 -1.5463  0.5468
   18MOL   C206 6020   6.758   7.491   1.388  0.0924  0.2653  0.7445
   18MOL   C207 6021   6.695   7.508   1.522  0.1221 -0.3894 -0.3189
   18MOL   C208 6022   6.555   7.560   1.517  0.3462  0.2317 -0.2579
   18MOL   C209 6023   6.525   7.685   1.454  0.1633  0.7743 -0.6205
   18MOL   C210 6024   6.389   7.727   1.447 -0.3994  0.0186 -0.1565
   18MOL   C211 6025   6.286   7.647   1.507  0.0422 -0.1038 -0.4112
   18MOL   C212 6026   6.319   7.520   1.559  0.6470  0.0778 -0.5954
   18MOL   C213 6027   6.454   7.481   1.572 -0.3171 -0.6929 -0.6032
   18MOL   O214 6028   6.785   7.595   1.596  0.3247 -0.3490 -0.3550
   18MOL   H215 6029   6.699   7.404   1.358  2.3840 -1.1593  0.2155
   18MOL   H216 6030   6.858   7.452   1.407  0.1695 -0.0774 -0.3622
   18MOL   H217 6031   6.703   7.413   1.574  1.6060 -0.5223 -0.7707
   18MOL   H218 6032   6.597   7.754   1.412 -0.2971  1.1093 -0.8858
   18MOL   H219 6033   6.363   7.820   1.400  0.4308  1.6285  2.4711
   18MOL   H220 6034   6.185   7.685   1.513  0.1799  0.0583  1.0670
   18MOL   H221 6035   6.238   7.461   1.600 -0.0314  0.9358 -0.6845
   18MOL   H222 6036   6.478   7.392   1.628 -0.9682 -0.7111 -0.3590
   18MOL   C223 6037   6.782   7.580   1.738 -0.3691 -0.4109 -0.3576
   18MOL   C224 6038   6.864   7.697   1.806  0.3037 -0.9548 -0.3262
   18MOL   C225 6039   6.828   7.698   1.953  0.7196  0.3428  0.1506
   18MOL   C226 6040   6.726   7.786   1.997  0.6013 -0.2416 -0.4551
   18MOL   C227 6041   6.686   7.791   2.134 -0.3258  0.4808  0.0154
   18MOL   C228 6042   6.746   7.711   2.230 -0.7809  0.1540 -0.1576
   18MOL   C229 6043   6.852   7.625   2.181 -0.0991  1.1004 -0.1772
   18MOL   C230 6044   6.891   7.615   2.047 -0.0709  0.5027 -0.3272
   18MOL   O231 6045   6.997   7.655   1.776 -0.0530 -0.1443  0.2243
   18MOL   H232 6046   6.684   7.561   1.781  0.6617 -1.8769  1.4424
   18MOL   H233 6047   6.827   7.485   1.769  0.0102  0.1705  0.8702
   18MOL   H234 6048   6.838   7.790   1.755  1.0518  1.1141  2.9167
   18MOL   H235 6049   6.675   7.850   1.926 -2.4953 -0.6588  1.3054
   18MOL   H236 6050   6.612   7.866   2.155 -0.5528 -0.2834  2.0169
   18MOL   H237 6051   6.731   7.714   2.336  1.2442 -0.9523  0.1868
   18MOL   H238 6052   6.894   7.558   2.254 -3.6510 -1.5152 -0.4057
   18MOL   H239 6053   6.967   7.542   2.024 -0.0082 -0.1434  1.8748
   18MOL   C240 6054   7.092   7.759   1.800 -0.0909 -0.2176  0.0961
   18MOL   C241 6055   7.236   7.703   1.787  0.4982 -0.0869 -0.5742
   18MOL   C242 6056   7.325   7.818   1.734 -0.6200  0.0551  0.2649
   18MOL   C243 6057   7.352   7.931   1.811  0.2015  0.0579  0.0040
   18MOL   C244 6058   7.438   8.027   1.773  0.5817  0.4811 -0.6527
   18MOL   C245 6059   7.504   8.016   1.651  0.8398  0.1615 -0.4061
   18MOL   C246 6060   7.470   7.897   1.566  0.6694 -0.0910 -0.6371
   18MOL   C247 6061   7.380   7.796   1.603 -0.0360 -0.1556  0.5300
   18MOL   O248 6062   7.282   7.659   1.920  0.2834  0.5190 -0.2500
   18MOL   H249 6063   7.075   7.835   1.724  2.5740 -1.8349 -2.2203
   18MOL   H250 6064   7.090   7.803   1.900 -0.7250 -0.2547  0.1002
   18MOL   H251 6065   7.231   7.613   1.726  2.2566  0.5948 -1.7859
   18MOL   H252 6066   7.303   7.944   1.907 -1.8936  0.4921 -1.0925
   18MOL   H253 6067   7.456   0.027   1.843  1.6282 -0.4149  0.0986
   18MOL   H254 6068   7.572   0.012   1.615  2.1631 -0.9343 -0.2914
   18MOL   H255 6069   7.519   7.882   1.471  2.2169 -3.2934  0.6060
   18MOL   H256 6070   7.367   7.705   1.547 -1.8321  0.0698  0.5571
   18MOL   C257 6071   7.252   7.523   1.952  0.3171  0.7633  0.4477
   18MOL   C258 6072   7.291   7.494   2.098  0.4426 -0.7397  0.2083
   18MOL   C259 6073   7.295   7.345   2.123 -0.1504 -0.5744  0.0437
   18MOL   C260 6074   7.418   7.282   2.091  0.3573  0.2759  0.1108
   18MOL   C261 6075   7.431   7.146   2.118  0.1143 -0.2173  0.0384
   18MOL   C262 6076   7.323   7.069   2.176  0.0418  0.7835 -0.1623
   18MOL   C263 6077   7.203   7.131   2.208  0.1944 -0.1559 -0.3927
   18MOL   C264 6078   7.184   7.271   2.177  0.2588 -0.1896  0.5565
   18MOL   O265 6079   7.194   7.551   2.191 -0.1494  0.0562 -0.1790
   18MOL   H266 6080   7.322   7.474   1.885  1.8012 -0.4663  2.8173
   18MOL   H267 6081   7.151   7.491   1.927  1.7393 -3.6049 -0.0374
   18MOL   H268 6082   7.387   7.537   2.125 -0.2368  0.0505  1.4102
   18MOL   H269 6083   7.504   7.335   2.054 -0.8679  1.2622 -1.4060
   18MOL   H270 6084   7.527   7.099   2.101  1.3067  2.3099 -0.4040
   18MOL   H271 6085   7.336   6.962   2.184 -1.3243  0.5806 -0.5277
   18MOL   H272 6086   7.120   7.076   2.251 -0.3722  0.5218 -0.6046
   18MOL   H273 6087   7.089   7.316   2.200  0.6585  0.1362  1.6125
   18MOL   C274 6088   7.204   7.686   2.212  0.1959 -0.2213 -0.1838
   18MOL   C275 6089   7.168   7.721   2.361 -0.2993 -0.5923 -0.0145
   18MOL   C276 6090   7.175   7.870   2.387  0.2123 -0.3373  0.4451
   18MOL   C277 6091   7.282   7.921   2.462  0.1939 -0.5808 -0.4125
   18MOL   C278 6092   7.279   8.059   2.497 -0.0438  0.4129 -0.0844
   18MOL   C279 6093   7.173   0.060   2.461 -0.5763 -0.2795 -0.0019
   18MOL   C280 6094   7.069   0.011   2.377  0.3639  0.1103  0.4449
   18MOL   C281 6095   7.072   7.960   2.335  0.2507 -0.0999  0.0003
   18MOL   O282 6096   7.257   7.651   2.451 -0.8551 -0.0313 -0.6755
   18MOL   H283 6097   7.309   7.708   2.196  0.6488 -2.5767 -0.7200
   18MOL   H284 6098   7.143   7.737   2.137 -0.3327  0.0733  0.4431
   18MOL   H285 6099   7.065   7.687   2.371 -0.4389 -0.1960 -0.1054
   18MOL   H286 6100   7.367   7.862   2.492  0.2859  0.5981  1.6869
   18MOL   H287 6101   7.358   0.008   2.565 -2.8360  4.0238  1.7865
   18MOL   H288 6102   7.175   0.165   2.489 -0.7888  0.4837 -2.7393
   18MOL   H289 6103   6.985   0.069   2.343  1.1849  0.2348 -1.4389
   18MOL   H290 6104   6.987   7.906   2.297 -0.5354  2.0139 -1.2876
   18MOL   C291 6105   7.209   7.640   2.585 -0.3762 -0.0551 -0.3180
   18MOL   C292 6106   7.232   7.500   2.641 -0.1408 -0.3338 -0.2133
   18MOL   C293 6107   7.257   7.499   2.793 -0.7069 -0.2801 -0.5135
   18MOL   C294 6108   7.157   7.464   2.887 -0.0049 -0.0821  0.7087
   18MOL   C295 6109   7.189   7.464   3.026 -0.5526 -0.3340 -0.1513
   18MOL   C296 6110   7.326   7.477   3.066  0.6169  0.8636 -0.5289
   18MOL   C297 6111   7.425   7.512   2.975  0.1054 -0.5109  0.4428
   18MOL   C298 6112   7.391   7.523   2.839  0.6253  0.6294 -0.4712
   18MOL   O299 6113   7.125   7.410   2.609  0.1510  0.2475 -0.1843
   18MOL   H300 6114   7.109   7.676   2.607 -1.0590 -0.7619 -2.1375
   18MOL   H301 6115   7.282   7.693   2.646  0.2397 -2.5088  1.1456
   18MOL   H302 6116   7.322   7.463   2.592  1.2509  3.1054 -0.4182
   18MOL   H303 6117   7.058   7.456   2.845  0.0266  0.0973  0.5977
   18MOL   H304 6118   7.103   7.438   3.085  0.3016  0.4676  1.4819
   18MOL   H305 6119   7.357   7.484   3.170  0.4328  1.4927 -0.5131
   18MOL   H306 6120   7.524   7.536   3.010 -0.1155 -0.5969  1.1493
   18MOL   H307 6121   7.466   7.554   2.768  0.9665  2.3764  0.6207
   18MOL   C308 6122   7.117   7.361   2.477 -1.1453 -0.2365  0.2279
   18MOL   C309 6123   7.022   7.239   2.488 -0.1276  0.5536 -0.2984
   18MOL   C310 6124   7.072   7.122   2.566 -0.2170  1.3755 -0.6560
   18MOL   C311 6125   6.987   7.058   2.654  0.6101 -0.2067 -0.5665
   18MOL   C312 6126   7.031   6.952   2.737  0.3520  0.3749 -0.2015
   18MOL   C313 6127   7.162   6.903   2.727 -0.4485 -0.3932  0.6392
   18MOL   C314 6128   7.248   6.969   2.632  0.7945  0.2484  0.3672
   18MOL   C315 6129   7.206   7.079   2.552  1.0424 -0.2943  0.4281
   18MOL   O316 6130   6.895   7.282   2.545 -0.6377  0.3854  0.1031
   18MOL   H317 6131   7.214   7.330   2.439 -1.0411  2.8174 -2.1424
   18MOL   H318 6132   7.084   7.439   2.409 -2.7801  0.3971  1.7277
   18MOL   H319 6133   7.003   7.195   2.391  0.1883 -0.5483  0.1377
   18MOL   H320 6134   6.884   7.089   2.665  0.1382 -1.0509 -2.3708
   18MOL   H321 6135   6.964   6.893   2.798 -1.2240  1.7631 -0.5425
   18MOL   H322 6136   7.204   6.811   2.764  0.0363 -0.4993 -0.1625
   18MOL   H323 6137   7.352   6.942   2.626  0.9652  1.1662 -0.8497
   18MOL   H324 6138   7.266   7.135   2.482 -1.2450 -0.3417 -1.6449
   18MOL   C325 6139   6.803   7.335   2.448  0.2571 -0.2902 -0.3937
   18MOL   C326 6140   6.729   7.450   2.511  0.0471  0.3064  0.3684
   18MOL   C327 6141   6.649   7.411   2.639  0.2478 -0.3650 -0.5407
   18MOL   C328 6142   6.701   7.407   2.768  0.2897 -0.8448  0.1728
   18MOL   C329 6143   6.630   7.341   2.869 -0.9043  0.0288 -0.2238
   18MOL   C330 6144   6.506   7.279   2.847  0.4204  0.1939  1.0244
   18MOL   C331 6145   6.447   7.299   2.725 -0.6379 -0.2287  0.6757
   18MOL   C332 6146   6.516   7.375   2.630 -0.1835 -0.0623  0.3487
   18MOL   O333 6147   6.826   7.549   2.534 -0.1102 -0.0743  0.2908
   18MOL   H334 6148   6.740   7.254   2.410  2.4935 -2.1737 -0.1898
   18MOL   H335 6149   6.854   7.366   2.357  0.4847 -0.7542 -0.4237
   18MOL   H336 6150   6.667   7.503   2.440  1.1291 -1.1098 -1.6811
   18MOL   H337 6151   6.798   7.454   2.774  0.1107 -0.3335 -0.7849
   18MOL   H338 6152   6.674   7.357   2.966 -1.8051  0.2331  0.1585
   18MOL   H339 6153   6.453   7.228   2.926 -0.6854 -2.3637 -1.2838
   18MOL   H340 6154   6.351   7.258   2.697 -1.1382  1.6593 -0.4854
   18MOL   H341 6155   6.478   7.400   2.532 -0.0194  0.1730  0.3431
   18MOL   H342 6156   6.897   7.497   2.570 -0.4597 -0.2947  0.6594
   19MOL     C1 6157   7.490   4.998   4.860  0.4864 -0.5062  0.4346
   19MOL     C2 6158   7.600   5.088   4.915  0.1425  0.4204 -0.6461
   19MOL     C3 6159   7.614   5.217   4.835 -0.0611 -0.4062  0.2213
   19MOL     C4 6160   7.541   5.333   4.864 -0.4085  0.5345 -0.1293
   19MOL     C5 6161   7.541   5.451   4.783  0.1687 -0.2574 -0.0895
   19MOL     C6 6162   7.633   5.458   4.680  0.0825 -0.5645  0.5180
   19MOL     C7 6163   7.706   5.344   4.649  0.0858  0.2115  0.1754
   19MOL     C8 6164   7.705   5.229   4.727 -0.0883  0.3899  0.1873
   19MOL     O9 6165   7.716   5.005   4.914 -0.1705 -0.4959  0.3381
   19MOL    H10 6166   7.513   4.897   4.895  0.4217 -1.1694 -1.3733
   19MOL    H11 6167   7.397   5.030   4.906 -0.8029 -0.5630 -2.0308
   19MOL    H12 6168   7.575   5.123   5.015 -0.0589  1.5734 -1.0938
   19MOL    H13 6169   7.480   5.329   4.953 -0.3040  3.8852  0.1718
   19MOL    H14 6170   7.481   5.535   4.814 -1.6854 -1.9358  1.0453
   19MOL    H15 6171   7.644   5.546   4.620 -0.5476 -0.6309  0.2988
   19MOL    H16 6172   7.775   5.349   4.567 -0.8060 -1.4546 -0.7108
   19MOL    H17 6173   7.768   5.144   4.707  1.6118  1.4511  0.8755
   19MOL    H18 6174   7.487   4.998   4.751 -0.9220  2.2057  0.4423
   19MOL    C19 6175   7.822   5.064   4.992  0.4167  0.1200 -0.0148
   19MOL    C20 6176   7.961   4.995   4.983  0.6547 -0.1427 -0.6132
   19MOL    C21 6177   7.943   4.839   5.002  0.3298  0.5306 -0.5713
   19MOL    C22 6178   7.967   4.773   5.122  0.1272 -0.2259 -0.3647
   19MOL    C23 6179   7.941   4.637   5.135  0.3366  0.4230 -0.2340
   19MOL    C24 6180   7.899   4.561   5.023 -0.0262 -0.3307 -0.0361
   19MOL    C25 6181   7.882   4.624   4.902  0.1454  0.9471 -0.2737
   19MOL    C26 6182   7.901   4.763   4.893 -0.3931  0.2660 -0.1456
   19MOL    O27 6183   8.049   5.041   5.082 -0.0512  0.3748  0.1494
   19MOL    H28 6184   7.828   5.169   4.964 -0.3203  1.1534  3.4938
   19MOL    H29 6185   7.778   5.055   5.091 -0.7372  0.4486 -0.4863
   19MOL    H30 6186   8.003   5.024   4.886 -0.5840 -2.0355 -1.7439
   19MOL    H31 6187   8.002   4.827   5.209 -1.6409 -0.8779  0.7978
   19MOL    H32 6188   7.946   4.587   5.230  0.8429 -1.0220 -1.0053
   19MOL    H33 6189   7.883   4.455   5.037 -1.1589 -0.2064 -0.3862
   19MOL    H34 6190   7.840   4.576   4.815  2.1198  1.3189 -1.4611
   19MOL    H35 6191   7.860   4.810   4.805  1.9790  0.3971 -1.2024
   19MOL    C36 6192   0.101   5.019   5.057  0.5434 -0.2833 -0.0196
   19MOL    C37 6193   0.196   5.068   5.168 -0.8279  0.4748  0.3948
   19MOL    C38 6194   0.169   4.984   5.299  0.1457 -0.5941 -0.1589
   19MOL    C39 6195   0.239   4.864   5.317 -0.8594  0.0417  0.3567
   19MOL    C40 6196   0.209   4.783   5.421  0.1218 -0.3425 -0.6571
   19MOL    C41 6197   0.122   4.824   5.520  0.4565  0.1113  0.7278
   19MOL    C42 6198   0.059   4.950   5.515 -0.3552  0.3929  0.2358
   19MOL    C43 6199   0.078   5.025   5.392 -0.2677 -0.0326 -1.0670
   19MOL    O44 6200   0.183   5.203   5.190 -0.1622 -0.9977 -0.2760
   19MOL    H45 6201   0.121   4.912   5.050 -1.1578 -0.6899  1.2814
   19MOL    H46 6202   0.128   5.068   4.963 -2.9565  3.4876  0.7903
   19MOL    H47 6203   0.300   5.042   5.148 -0.7052  0.7800  0.6309
   19MOL    H48 6204   0.314   4.833   5.246 -1.2844  0.4748 -0.2818
   19MOL    H49 6205   0.255   4.685   5.427 -0.9834 -0.7588  1.4745
   19MOL    H50 6206   0.110   4.762   5.608  1.3655 -1.4284 -0.2184
   19MOL    H51 6207   0.006   4.992   5.600 -1.0950 -2.1606  1.0715
   19MOL    H52 6208   0.032   5.121   5.378 -1.6454 -0.3716  0.8507
   19MOL    C53 6209   0.240   5.298   5.106  0.2476 -0.0048  0.7691
   19MOL    C54 6210   0.391   5.283   5.104 -0.3682  0.1574  0.8792
   19MOL    C55 6211   0.440   5.273   5.249 -0.7881  0.2327 -0.0292
   19MOL    C56 6212   0.524   5.161   5.283 -0.2138  0.0692 -0.0515
   19MOL    C57 6213   0.582   5.145   5.411  0.2256 -0.2579  0.7538
   19MOL    C58 6214   0.571   5.248   5.505 -0.3817  0.1328 -0.3612
   19MOL    C59 6215   0.488   5.358   5.474 -0.4341  0.1693 -0.6293
   19MOL    C60 6216   0.420   5.370   5.353  0.0959  0.0828  0.2618
   19MOL    O61 6217   0.437   5.176   5.019 -0.4240  0.5644  0.2630
   19MOL    H62 6218   0.201   5.287   5.004  0.4783  2.1502  0.4360
   19MOL    H63 6219   0.212   5.398   5.138 -0.0729  0.3275 -0.5140
   19MOL    H64 6220   0.452   5.370   5.078  0.0739 -0.5996 -0.6785
   19MOL    H65 6221   0.548   5.087   5.208  2.0192  0.3255  0.3715
   19MOL    H66 6222   0.646   5.060   5.426  2.5999  1.4656  0.6701
   19MOL    H67 6223   0.618   5.243   5.602  1.4439 -2.2350 -1.3199
   19MOL    H68 6224   0.479   5.431   5.554  1.4787  0.2304 -0.4433
   19MOL    H69 6225   0.367   5.459   5.323 -0.9982 -0.8100 -0.5283
   19MOL    C70 6226   0.420   5.206   4.881 -0.0567  0.4208  0.1359
   19MOL    C71 6227   0.543   5.143   4.806  0.2223  0.1196 -0.1432
   19MOL    C72 6228   0.558   5.196   4.673  0.1499 -0.3687  0.0969
   19MOL    C73 6229   0.687   5.250   4.643  0.0514  0.2761 -0.8012
   19MOL    C74 6230   0.713   5.293   4.512  0.2633 -0.4544  0.7036
   19MOL    C75 6231   0.602   5.295   4.421 -0.7723 -0.6525  0.3126
   19MOL    C76 6232   0.475   5.252   4.457  0.3701 -0.1238  0.6395
   19MOL    C77 6233   0.454   5.195   4.579  0.8805  0.5422 -0.5721
   19MOL    O78 6234   0.536   4.998   4.791  0.1117  0.2113 -0.0385
   19MOL    H79 6235   0.329   5.162   4.842  0.1084  0.5265 -0.3686
   19MOL    H80 6236   0.415   5.313   4.860  1.4825  0.2091 -1.3998
   19MOL    H81 6237   0.631   5.163   4.868  0.1886 -1.6550  0.4981
   19MOL    H82 6238   0.764   5.252   4.718  1.5863 -1.8867 -2.2971
   19MOL    H83 6239   0.808   5.332   4.481 -0.1509  0.8170  1.0038
   19MOL    H84 6240   0.621   5.324   4.319 -1.6423 -1.2937 -0.0420
   19MOL    H85 6241   0.402   5.252   4.378  1.8460  1.2915 -0.7474
   19MOL    H86 6242   0.350   5.171   4.593  0.8060  1.5659  0.6751
   19MOL    C87 6243   0.597   4.913   4.886  0.1966  0.3466 -0.1589
   19MOL    C88 6244   0.562   4.765   4.847  1.1134 -0.3613 -0.4350
   19MOL    C89 6245   0.431   4.708   4.911  0.2034 -0.1840  0.4224
   19MOL    C90 6246   0.305   4.718   4.852 -0.5778  0.3779 -0.6991
   19MOL    C91 6247   0.189   4.674   4.924 -0.3215 -0.2243 -0.0017
   19MOL    C92 6248   0.210   4.615   5.050  0.0793 -0.7558  0.0216
   19MOL    C93 6249   0.335   4.607   5.113  0.0898 -0.2184 -0.2636
   19MOL    C94 6250   0.441   4.657   5.038  0.2797  0.4338  0.0176
   19MOL    O95 6251   0.674   4.684   4.875  0.1579 -0.0372 -0.1316
   19MOL    H96 6252   0.545   4.935   4.979 -0.4948 -0.0842 -0.4435
   19MOL    H97 6253   0.705   4.926   4.891  0.3083 -0.4147 -0.4956
   19MOL    H98 6254   0.539   4.755   4.741 -0.4336 -0.9057 -0.0610
   19MOL    H99 6255   0.305   4.765   4.755 -1.5021  2.6192  0.3424
   19MOL   H100 6256   0.093   4.679   4.875 -1.0552  0.0561  1.4574
   19MOL   H101 6257   0.132   4.578   5.115  0.8519 -0.2249  1.2764
   19MOL   H102 6258   0.337   4.572   5.215  2.7565 -0.5727 -0.3906
   19MOL   H103 6259   0.541   4.653   5.080 -0.1228 -0.0752  0.9332
   19MOL   C104 6260   0.745   4.665   4.753 -0.5491  0.1297  0.4661
   19MOL   C105 6261   0.878   4.613   4.794 -0.0805 -0.0458 -0.0240
   19MOL   C106 6262   0.930   4.511   4.704  0.6233  0.1171 -0.1982
   19MOL   C107 6263   0.957   4.549   4.572  0.0455 -0.0090  0.0106
   19MOL   C108 6264   1.020   4.452   4.492  0.0563  0.2655 -0.7851
   19MOL   C109 6265   1.044   4.326   4.534 -0.1531 -0.0786  0.3098
   19MOL   C110 6266   1.019   4.289   4.668 -0.3968  0.4527  0.1801
   19MOL   C111 6267   0.964   4.382   4.752  0.4204 -0.0550  0.6910
   19MOL   O112 6268   0.967   4.726   4.800  0.3146  0.4513 -0.0006
   19MOL   H113 6269   0.686   4.602   4.687 -0.0259  3.1282 -3.0541
   19MOL   H114 6270   0.750   4.756   4.692 -0.9116  0.4919  0.9729
   19MOL   H115 6271   0.866   4.565   4.891 -1.3804  2.9897  1.3619
   19MOL   H116 6272   0.944   4.651   4.539  0.9185  0.2804  0.5321
   19MOL   H117 6273   1.045   4.474   4.390 -0.6400  2.7046 -0.4598
   19MOL   H118 6274   1.089   4.249   4.473  0.3695 -0.5179  1.2295
   19MOL   H119 6275   1.049   4.193   4.709 -0.1059 -0.4746 -2.1536
   19MOL   H120 6276   0.939   4.356   4.855 -0.8144 -0.0530  0.4029
   19MOL   C121 6277   1.097   4.704   4.856  0.1354  0.3438  0.6184
   19MOL   C122 6278   1.104   4.740   5.009  0.1768 -0.3160 -0.2787
   19MOL   C123 6279   1.036   4.878   5.033  0.4665 -0.2181 -0.4875
   19MOL   C124 6280   0.954   4.895   5.145  0.1850  0.2343  0.4632
   19MOL   C125 6281   0.901   5.014   5.177 -0.3479 -0.4346  0.1923
   19MOL   C126 6282   0.928   5.124   5.092 -0.0558  0.5202  0.3618
   19MOL   C127 6283   0.995   5.114   4.970 -0.1776  0.2658  0.4670
   19MOL   C128 6284   1.054   4.987   4.940  0.3734 -1.3706  0.5404
   19MOL   O129 6285   1.043   4.633   5.076 -0.1256  0.2979 -0.0101
   19MOL   H130 6286   1.171   4.769   4.808 -1.2100  2.2460  1.0607
   19MOL   H131 6287   1.129   4.603   4.830 -1.8886  0.2763 -1.7284
   19MOL   H132 6288   1.209   4.752   5.036  0.0832 -1.1692  0.5329
   19MOL   H133 6289   0.934   4.814   5.213 -0.4688 -0.2662 -0.3278
   19MOL   H134 6290   0.840   5.024   5.266  0.8968 -1.2488  1.1511
   19MOL   H135 6291   0.871   5.214   5.112 -0.3078  0.1755  1.2343
   19MOL   H136 6292   0.990   5.194   4.898 -0.5925  2.1839  2.5833
   19MOL   H137 6293   1.110   4.974   4.849  1.3057  0.3213  0.8414
   19MOL   C138 6294   1.140   4.535   5.112  0.1985 -1.3773 -0.0103
   19MOL   C139 6295   1.081   4.463   5.242 -0.3898 -0.0049 -0.1219
   19MOL   C140 6296   1.158   4.330   5.272 -0.0617  0.1502 -0.2443
   19MOL   C141 6297   1.301   4.329   5.292 -0.3395  0.3410  0.3236
   19MOL   C142 6298   1.367   4.207   5.314  0.2414 -0.1744 -0.4188
   19MOL   C143 6299   1.291   4.087   5.319 -0.3447 -0.0272  0.3507
   19MOL   C144 6300   1.147   4.093   5.303  0.0122 -0.6777 -0.3493
   19MOL   C145 6301   1.087   4.208   5.264  0.1056 -0.2727  0.0812
   19MOL   O146 6302   1.107   4.552   5.348 -0.1562 -0.1403  0.6866
   19MOL   H147 6303   1.244   4.560   5.136 -0.2335  0.3345  0.1627
   19MOL   H148 6304   1.151   4.476   5.021 -1.6099 -1.0790 -0.4297
   19MOL   H149 6305   0.974   4.452   5.226 -0.5478 -0.4364  1.1149
   19MOL   H150 6306   1.360   4.420   5.289 -0.2971  0.3280  0.6726
   19MOL   H151 6307   1.473   4.205   5.333  0.4577  1.4177 -1.3766
   19MOL   H152 6308   1.345   3.997   5.345  0.2958  0.2179 -0.1291
   19MOL   H153 6309   1.095   3.999   5.311 -1.7072  0.4144  1.5521
   19MOL   H154 6310   0.979   4.211   5.263  0.1296  0.8824 -1.0373
   19MOL   C155 6311   1.043   4.507   5.469 -0.9083  0.3749  0.8865
   19MOL   C156 6312   1.047   4.611   5.582 -0.4599 -1.1967  0.2863
   19MOL   C157 6313   0.968   4.563   5.701 -0.6420 -0.2794 -0.1640
   19MOL   C158 6314   1.025   4.469   5.788 -0.2490  0.0134  0.3834
   19MOL   C159 6315   0.949   4.406   5.889  0.3335  0.7046  0.3037
   19MOL   C160 6316   0.816   4.446   5.919  0.4887 -0.2428  0.6584
   19MOL   C161 6317   0.765   4.546   5.833 -0.2368  0.4035  0.3367
   19MOL   C162 6318   0.838   4.601   5.724  0.8360  0.0226  0.6926
   19MOL   O163 6319   1.186   4.612   5.616 -0.5427 -0.3768 -1.0484
   19MOL   H164 6320   1.094   4.414   5.494 -0.6297  0.1953 -0.2892
   19MOL   H165 6321   0.936   4.485   5.463 -0.5060 -1.7548  1.1377
   19MOL   H166 6322   1.001   4.706   5.554  2.5783  0.4474  0.7407
   19MOL   H167 6323   1.128   4.438   5.784  0.1024  1.2008  0.0584
   19MOL   H168 6324   0.994   4.329   5.950  0.8129  0.8873  0.1744
   19MOL   H169 6325   0.753   4.409   5.998 -0.8905 -0.2831 -0.4395
   19MOL   H170 6326   0.666   4.577   5.863 -0.8564 -0.8314 -0.4201
   19MOL   H171 6327   0.783   4.681   5.676  0.3128 -0.2036  0.9081
   19MOL   C172 6328   1.226   4.730   5.683 -0.1461 -0.0706  0.0533
   19MOL   C173 6329   1.377   4.718   5.715  0.2382 -0.1217  0.0448
   19MOL   C174 6330   1.400   4.786   5.851 -0.3461 -0.0581  0.6424
   19MOL   C175 6331   1.364   4.719   5.970 -0.1759 -0.4091 -0.3071
   19MOL   C176 6332   1.375   4.788   6.095 -0.2165 -0.8646  0.0268
   19MOL   C177 6333   1.429   4.920   6.100  0.1591  0.1051  1.0674
   19MOL   C178 6334   1.478   4.975   5.978  0.4175  0.1451  0.0009
   19MOL   C179 6335   1.456   4.914   5.851 -0.1938 -0.3301 -0.1070
   19MOL   O180 6336   1.476   4.753   5.617  0.0807  0.4302  0.1139
   19MOL   H181 6337   1.208   4.816   5.619 -1.1355  0.4774  1.0438
   19MOL   H182 6338   1.175   4.745   5.778  0.7977  0.7711  0.4392
   19MOL   H183 6339   1.388   4.611   5.733 -1.1271 -0.5740 -1.6856
   19MOL   H184 6340   1.328   4.618   5.975  0.2215 -0.5593 -0.4235
   19MOL   H185 6341   1.353   4.756   6.196 -0.6902  4.4063  1.7909
   19MOL   H186 6342   1.455   4.972   6.191 -0.5949 -1.0749  1.9709
   19MOL   H187 6343   1.520   5.074   5.977  3.5754 -1.1231  0.9100
   19MOL   H188 6344   1.478   4.958   5.755  0.1357 -0.1436  0.0534
   19MOL   C189 6345   1.472   4.660   5.502 -0.6944  0.2866 -0.1698
   19MOL   C190 6346   1.572   4.723   5.401 -0.0445 -0.5333 -0.7616
   19MOL   C191 6347   1.560   4.686   5.250  0.4657  0.0584  0.4380
   19MOL   C192 6348   1.583   4.550   5.212  0.0227  0.1140 -0.2851
   19MOL   C193 6349   1.545   4.507   5.083  0.3635  0.2600 -0.0299
   19MOL   C194 6350   1.512   4.603   4.985 -0.3252  0.5082 -0.0113
   19MOL   C195 6351   1.519   4.741   5.018 -0.2243 -0.2670 -0.7436
   19MOL   C196 6352   1.522   4.781   5.153 -0.1396 -0.1346  0.9996
   19MOL   O197 6353   1.702   4.691   5.454 -0.4059  0.2945 -0.3900
   19MOL   H198 6354   1.492   4.554   5.519 -3.4482 -0.2088  0.2877
   19MOL   H199 6355   1.372   4.668   5.460 -0.5390 -1.7616 -0.9917
   19MOL   H200 6356   1.553   4.831   5.395  0.6399 -0.3852 -0.3317
   19MOL   H201 6357   1.603   4.468   5.279 -1.1408  0.6949  0.7900
   19MOL   H202 6358   1.558   4.407   5.043 -0.8587  0.3823 -0.7724
   19MOL   H203 6359   1.493   4.567   4.885 -3.6637  0.7295  0.4869
   19MOL   H204 6360   1.516   4.809   4.935 -1.5513  1.6590  0.8328
   19MOL   H205 6361   1.511   4.885   5.180 -0.9246  0.3815 -1.2068
   19MOL   C206 6362   1.816   4.766   5.388  0.5016 -0.4218  0.2726
   19MOL   C207 6363   1.939   4.755   5.486 -0.5035  0.2798 -0.0744
   19MOL   C208 6364   1.915   4.838   5.617  0.5383  0.6287 -0.2219
   19MOL   C209 6365   1.815   4.813   5.711  0.7150 -0.2362 -0.2349
   19MOL   C210 6366   1.809   4.887   5.828 -0.2483 -0.8086  0.4177
   19MOL   C211 6367   1.889   5.002   5.850 -0.5602  0.2699  0.1276
   19MOL   C212 6368   1.984   5.034   5.752  0.2665 -0.5222 -0.2273
   19MOL   C213 6369   2.000   4.949   5.641  0.2744 -0.6097 -0.5147
   19MOL   O214 6370   2.051   4.800   5.416  0.7233  0.0668  0.3347
   19MOL   H215 6371   1.834   4.717   5.292 -1.9279 -2.2892  0.7206
   19MOL   H216 6372   1.785   4.869   5.375  0.0552 -0.6768 -0.7884
   19MOL   H217 6373   1.956   4.652   5.515 -0.7457  0.1276 -0.4641
   19MOL   H218 6374   1.739   4.742   5.683  0.4669  0.4424 -1.3093
   19MOL   H219 6375   1.733   4.867   5.902 -0.4929 -2.4024 -0.2595
   19MOL   H220 6376   1.885   5.062   5.939  3.3829 -0.3512  0.7756
   19MOL   H221 6377   2.041   5.125   5.768 -2.0053  0.4307  2.8419
   19MOL   H222 6378   2.071   4.985   5.568  0.5675  0.6820  0.3953
   19MOL   C223 6379   2.101   4.707   5.322  0.1233 -0.4799 -0.4042
   19MOL   C224 6380   2.218   4.765   5.243  0.1693 -0.0935 -0.0080
   19MOL   C225 6381   2.315   4.662   5.211 -0.1980 -1.0294  0.7712
   19MOL   C226 6382   2.430   4.656   5.293 -0.1672 -0.7846  0.2687
   19MOL   C227 6383   2.534   4.567   5.258 -0.8744  0.2311  0.0368
   19MOL   C228 6384   2.531   4.490   5.138  0.2757 -0.3426 -0.1212
   19MOL   C229 6385   2.421   4.503   5.054  0.1514 -0.0495  0.0568
   19MOL   C230 6386   2.315   4.588   5.089 -0.7594 -0.6620  0.6071
   19MOL   O231 6387   2.184   4.831   5.118  0.7366  0.0419 -0.3594
   19MOL   H232 6388   2.134   4.621   5.381 -0.1455  0.3773  1.0167
   19MOL   H233 6389   2.024   4.667   5.257 -0.5555 -0.1458  0.1859
   19MOL   H234 6390   2.274   4.830   5.311 -0.1231 -0.6169  0.7462
   19MOL   H235 6391   2.444   4.719   5.380 -0.1519 -1.2871  0.6298
   19MOL   H236 6392   2.618   4.567   5.325 -0.8452 -1.6016  0.0270
   19MOL   H237 6393   2.601   4.414   5.107  1.2613  0.5537 -0.1237
   19MOL   H238 6394   2.427   4.441   4.965 -0.9734 -0.8928  0.5574
   19MOL   H239 6395   2.234   4.609   5.020 -0.8432 -0.1824  0.8456
   19MOL   C240 6396   2.127   4.961   5.134  0.7262  0.2347  0.0281
   19MOL   C241 6397   2.244   5.069   5.138 -0.1996  0.7699  0.4390
   19MOL   C242 6398   2.202   5.216   5.119 -1.1019  0.0494 -0.0052
   19MOL   C243 6399   2.256   5.295   5.019  0.0702 -0.4241 -0.3550
   19MOL   C244 6400   2.230   5.434   5.014 -0.2005  0.0457  0.3669
   19MOL   C245 6401   2.126   5.486   5.096  0.1250  0.0309  0.3633
   19MOL   C246 6402   2.079   5.406   5.195  0.4036 -0.6992  0.0753
   19MOL   C247 6403   2.109   5.272   5.207 -0.1799 -0.3792  0.9989
   19MOL   O248 6404   2.338   5.056   5.247  1.3611  0.1598  0.1648
   19MOL   H249 6405   2.060   4.980   5.050  0.2256 -2.5701 -0.2428
   19MOL   H250 6406   2.070   4.965   5.227 -0.2716 -0.3831 -0.5466
   19MOL   H251 6407   2.288   5.049   5.041 -3.1400 -2.2729 -0.3716
   19MOL   H252 6408   2.328   5.254   4.949 -1.5143 -0.7656 -1.8014
   19MOL   H253 6409   2.284   5.497   4.945  0.2668  2.0068  2.4723
   19MOL   H254 6410   2.094   5.588   5.085  0.2221 -0.1885 -2.2901
   19MOL   H255 6411   2.001   5.450   5.255 -0.0499  0.1879 -1.1288
   19MOL   H256 6412   2.055   5.215   5.281 -0.4974 -1.3450  0.0461
   19MOL   C257 6413   2.467   5.086   5.211  0.0953 -0.3276 -0.2243
   19MOL   C258 6414   2.564   5.040   5.326  0.7767  0.3037  0.8109
   19MOL   C259 6415   2.548   5.131   5.456  0.2845 -0.5250  0.3999
   19MOL   C260 6416   2.430   5.113   5.536 -0.1399 -0.2144 -0.2803
   19MOL   C261 6417   2.410   5.188   5.653  0.9108 -0.2944  0.1269
   19MOL   C262 6418   2.511   5.275   5.691 -0.2460 -0.3143  0.1339
   19MOL   C263 6419   2.630   5.294   5.616  0.5983 -0.6287 -0.3129
   19MOL   C264 6420   2.647   5.219   5.494  0.4583 -0.4429 -0.3792
   19MOL   O265 6421   2.699   5.060   5.276  0.1666 -0.7263  0.4023
   19MOL   H266 6422   2.478   5.193   5.194 -0.8689 -0.1062  0.4999
   19MOL   H267 6423   2.493   5.030   5.121 -0.8366 -1.5429  0.2341
   19MOL   H268 6424   2.540   4.939   5.361 -4.1718  0.8881 -0.5302
   19MOL   H269 6425   2.366   5.032   5.502 -0.4657 -1.2719  2.6975
   19MOL   H270 6426   2.330   5.178   5.725 -0.4514  1.3363 -1.1076
   19MOL   H271 6427   2.487   5.326   5.783 -0.6825  0.9752 -0.6851
   19MOL   H272 6428   2.702   5.369   5.646 -1.9487  1.8512 -0.2405
   19MOL   H273 6429   2.729   5.244   5.429 -0.0747 -1.3228 -1.3981
   19MOL   C274 6430   2.757   4.939   5.235  0.0914 -0.8957 -0.1874
   19MOL   C275 6431   2.907   4.950   5.211  0.2346 -0.1015  0.6459
   19MOL   C276 6432   2.965   4.837   5.129 -0.1440  1.1884  0.2985
   19MOL   C277 6433   3.002   4.857   4.994  0.0362  0.4389 -0.0796
   19MOL   C278 6434   3.075   4.757   4.920  0.2238  0.9466  0.5567
   19MOL   C279 6435   3.088   4.630   4.987  0.0556  0.0637  0.0957
   19MOL   C280 6436   3.046   4.606   5.115  0.8133  0.0549  0.3464
   19MOL   C281 6437   2.990   4.710   5.188  0.1589  0.2406  0.1220
   19MOL   O282 6438   2.968   4.941   5.339  0.2285 -0.7428 -0.2378
   19MOL   H283 6439   2.743   4.871   5.319 -1.4809  2.0312  2.0407
   19MOL   H284 6440   2.706   4.899   5.148 -2.3412  0.7043  0.4501
   19MOL   H285 6441   2.927   5.048   5.168 -1.2675 -0.4663 -0.9802
   19MOL   H286 6442   2.992   4.952   4.943 -0.3055 -0.0144 -0.8541
   19MOL   H287 6443   3.098   4.766   4.815 -1.0650  1.1463  0.2907
   19MOL   H288 6444   3.131   4.553   4.925 -2.3819  0.3726 -2.0546
   19MOL   H289 6445   3.052   4.511   5.165 -0.7654 -0.3330 -0.1566
   19MOL   H290 6446   2.961   4.693   5.291 -0.9761 -0.5972 -0.3234
   19MOL   C291 6447   3.006   5.064   5.397 -0.3057  0.0421 -0.3525
   19MOL   C292 6448   3.088   5.045   5.531  0.7602  0.3988  0.2644
   19MOL   C293 6449   2.995   4.977   5.630 -0.2832  0.3535 -0.6772
   19MOL   C294 6450   2.907   5.052   5.709  0.3525  0.5952 -0.4694
   19MOL   C295 6451   2.820   4.987   5.801 -0.6318 -0.0641 -0.3985
   19MOL   C296 6452   2.834   4.847   5.821 -0.4241 -0.0136  0.0434
   19MOL   C297 6453   2.920   4.772   5.740 -0.3089  0.0836  0.1333
   19MOL   C298 6454   3.006   4.835   5.654 -0.3314 -0.4800 -0.3167
   19MOL   O299 6455   3.225   4.993   5.524  0.1523  0.1633 -0.5640
   19MOL   H300 6456   2.920   5.128   5.415 -0.4316 -0.2842  0.2088
   19MOL   H301 6457   3.072   5.113   5.325  1.2609 -1.7826 -0.1963
   19MOL   H302 6458   3.113   5.139   5.580  0.6288  0.7076 -0.2561
   19MOL   H303 6459   2.909   5.158   5.689  1.2938  0.1283 -3.1466
   19MOL   H304 6460   2.736   5.038   5.845  0.0837  1.7970 -1.1079
   19MOL   H305 6461   2.775   4.794   5.894  0.5937 -1.7153 -0.3465
   19MOL   H306 6462   2.922   4.665   5.753  1.5122  0.0659 -0.1877
   19MOL   H307 6463   3.080   4.769   5.611 -0.3187 -2.8791  3.2268
   19MOL   C308 6464   3.251   4.903   5.415  0.1740  0.2977  0.1358
   19MOL   C309 6465   3.392   4.833   5.427  0.0169 -0.5967  0.2930
   19MOL   C310 6466   3.406   4.707   5.344 -0.1829 -0.2193 -0.1399
   19MOL   C311 6467   3.363   4.688   5.212  0.3254  0.0801 -0.3064
   19MOL   C312 6468   3.385   4.564   5.156  0.3964 -0.2613  0.1784
   19MOL   C313 6469   3.445   4.459   5.229  0.7523  0.1216  0.0500
   19MOL   C314 6470   3.495   4.469   5.358  0.0985 -0.3182 -0.1148
   19MOL   C315 6471   3.466   4.597   5.416 -0.2686 -0.7406 -0.7042
   19MOL   O316 6472   3.498   4.927   5.389 -0.1912 -0.0231 -0.5727
   19MOL   H317 6473   3.237   4.930   5.310  0.9422  1.2618  0.2862
   19MOL   H318 6474   3.177   4.822   5.421  3.2348 -2.4951  1.8114
   19MOL   H319 6475   3.402   4.809   5.533  2.0341 -1.4827 -0.0896
   19MOL   H320 6476   3.329   4.770   5.150 -1.7287  0.1851  0.9310
   19MOL   H321 6477   3.355   4.547   5.053  0.5970 -0.7283  0.1971
   19MOL   H322 6478   3.449   4.367   5.173  0.0711 -0.6128  1.1818
   19MOL   H323 6479   3.540   4.388   5.412  1.1179  0.9219  0.9500
   19MOL   H324 6480   3.485   4.614   5.521 -0.7749  0.3994 -0.7937
   19MOL   C325 6481   3.505   5.040   5.478 -0.2007  1.0873  0.0712
   19MOL   C326 6482   3.653   5.073   5.507 -0.1848 -0.1061  1.0135
   19MOL   C327 6483   3.718   4.962   5.589  0.7464  0.6032 -0.2469
   19MOL   C328 6484   3.766   4.843   5.534 -0.0664  0.0300 -0.0316
   19MOL   C329 6485   3.841   4.752   5.617 -0.5480 -0.4374 -0.1312
   19MOL   C330 6486   3.849   4.764   5.757 -0.0750 -0.7378  0.6917
   19MOL   C331 6487   3.789   4.884   5.811 -1.6543  0.1066 -0.0154
   19MOL   C332 6488   3.727   4.977   5.728  0.6264  0.5766 -0.0647
   19MOL   O333 6489   3.698   5.079   5.370  0.0484 -0.3955  0.8433
   19MOL   H334 6490   3.465   5.020   5.577  1.3100 -1.2224  0.2492
   19MOL   H335 6491   3.448   5.131   5.454 -1.0167  0.6148  0.1976
   19MOL   H336 6492   3.675   5.166   5.558  0.6155  0.8180 -0.9456
   19MOL   H337 6493   3.769   4.830   5.426  1.8408  2.7896 -0.3468
   19MOL   H338 6494   3.889   4.664   5.576 -1.0462 -1.3263  1.1581
   19MOL   H339 6495   3.897   4.692   5.822 -0.3226  0.9819  2.8150
   19MOL   H340 6496   3.786   4.903   5.917  1.3457  0.1808  0.0720
   19MOL   H341 6497   3.687   5.062   5.782 -0.0349  0.8831 -1.0276
   19MOL   H342 6498   3.630   5.027   5.328 -1.0002  0.0603  1.9381
   20MOL     C1 6499   6.336   7.472   1.909 -0.7301 -0.3013 -0.2667
   20MOL     C2 6500   6.249   7.581   1.979 -0.1441  0.8783 -0.2716
   20MOL     C3 6501   6.114   7.530   1.988  0.2726 -0.1358 -0.3887
   20MOL     C4 6502   6.024   7.541   1.876  0.4448 -0.1010  0.0962
   20MOL     C5 6503   5.892   7.489   1.887  0.6060 -0.0508  0.4284
   20MOL     C6 6504   5.850   7.433   2.009 -0.6025  0.2247  0.7100
   20MOL     C7 6505   5.942   7.425   2.114 -0.2927  0.0313 -0.7611
   20MOL     C8 6506   6.069   7.472   2.107  0.5296  0.3875  0.3075
   20MOL     O9 6507   6.258   7.700   1.894  0.1954  0.5947 -0.5851
   20MOL    H10 6508   6.430   7.521   1.884 -2.2882  1.9785 -1.8562
   20MOL    H11 6509   6.358   7.389   1.975  0.3308  0.0290 -0.1966
   20MOL    H12 6510   6.280   7.606   2.081  0.3495 -0.6403 -0.0340
   20MOL    H13 6511   6.058   7.587   1.784 -0.4931  2.4051  0.9732
   20MOL    H14 6512   5.828   7.506   1.801  1.5397  0.7551 -0.1231
   20MOL    H15 6513   5.749   7.394   2.014 -0.6807  0.4669  1.0816
   20MOL    H16 6514   5.922   7.369   2.205  1.1531  2.1722  0.9308
   20MOL    H17 6515   6.136   7.470   2.192 -0.7784 -1.9046  1.3362
   20MOL    H18 6516   6.293   7.455   1.810 -0.0719 -3.0224 -0.1234
   20MOL    C19 6517   6.376   7.778   1.914  1.0188  0.8356  0.1718
   20MOL    C20 6518   6.351   7.924   1.891 -0.3994  0.0130 -0.2172
   20MOL    C21 6519   6.480   7.995   1.838 -0.3107  0.4126 -0.1999
   20MOL    C22 6520   6.548   0.015   1.908  0.4616  0.9180 -0.3957
   20MOL    C23 6521   6.665   0.066   1.858 -0.2041  0.0573  0.2519
   20MOL    C24 6522   6.714   0.028   1.735  0.1953  0.1758  0.5945
   20MOL    C25 6523   6.640   8.014   1.653  0.3976 -0.1066 -0.0855
   20MOL    C26 6524   6.521   7.962   1.708 -0.1315  0.3721 -0.1751
   20MOL    O27 6525   6.308   7.977   2.017  0.1230 -0.9447  0.2178
   20MOL    H28 6526   6.415   7.766   2.015  0.4713 -0.2769  0.2526
   20MOL    H29 6527   6.452   7.746   1.843 -0.1576 -0.1941 -0.6502
   20MOL    H30 6528   6.270   7.930   1.818 -1.3269 -0.2125  0.7839
   20MOL    H31 6529   6.514   0.042   2.007 -0.8637 -0.6974 -0.3946
   20MOL    H32 6530   6.723   0.132   1.921 -1.4586  1.2507  0.1629
   20MOL    H33 6531   6.804   0.076   1.701 -0.2927 -0.1694 -1.2375
   20MOL    H34 6532   6.677   7.979   1.558 -0.6601  0.0523 -0.5657
   20MOL    H35 6533   6.457   7.895   1.652  0.7004 -0.7902  0.2495
   20MOL    C36 6534   6.213   0.004   2.000 -0.5131 -0.8402  0.3566
   20MOL    C37 6535   6.188   0.068   2.140  0.1874 -0.3958  0.4288
   20MOL    C38 6536   6.058   0.151   2.128 -0.0415 -0.6278  0.8532
   20MOL    C39 6537   6.057   0.270   2.056  0.2272  0.4906 -0.1039
   20MOL    C40 6538   5.932   0.344   2.051 -0.0425 -0.6138  0.3167
   20MOL    C41 6539   5.810   0.292   2.105  0.0384 -1.0122  1.3466
   20MOL    C42 6540   5.817   0.169   2.181 -0.2639  0.1748 -0.4343
   20MOL    C43 6541   5.943   0.097   2.188  0.0180  0.2086 -0.1971
   20MOL    O44 6542   6.297   0.139   2.181 -0.2209 -0.0332 -0.1159
   20MOL    H45 6543   6.253   0.078   1.930  0.6189  2.4002  4.2378
   20MOL    H46 6544   6.123   8.043   1.955 -0.0903  0.2470 -1.5478
   20MOL    H47 6545   6.165   8.068   2.210 -2.0915  0.0592  0.2532
   20MOL    H48 6546   6.149   0.307   2.015  1.3371 -0.2957  1.6402
   20MOL    H49 6547   5.932   0.436   1.995 -2.5353 -0.4356  0.5631
   20MOL    H50 6548   5.721   0.351   2.090 -0.0601 -0.1418  4.8484
   20MOL    H51 6549   5.728   0.136   2.232  0.5820  1.4217  1.9593
   20MOL    H52 6550   5.959   0.007   2.246 -0.4450  0.4094  0.2477
   20MOL    C53 6551   6.282   0.196   2.314 -0.5997 -0.3959 -0.5281
   20MOL    C54 6552   6.413   0.261   2.370  0.7283  0.0557  0.7112
   20MOL    C55 6553   6.511   0.146   2.379 -0.4937  0.5684  1.0183
   20MOL    C56 6554   6.598   0.119   2.272 -0.7372 -0.3575 -0.1325
   20MOL    C57 6555   6.703   0.025   2.286  0.4819 -0.2982 -0.8695
   20MOL    C58 6556   6.716   8.026   2.398 -0.1265 -1.0500 -0.0494
   20MOL    C59 6557   6.631   8.056   2.511 -0.6006 -0.0134  0.3074
   20MOL    C60 6558   6.534   0.073   2.498  0.3800 -0.5434  0.6100
   20MOL    O61 6559   6.449   0.366   2.290 -0.4088  0.2894 -0.3934
   20MOL    H62 6560   6.213   0.281   2.307  0.8905  0.8774 -0.0299
   20MOL    H63 6561   6.243   0.125   2.387 -0.8856 -0.1473 -0.4370
   20MOL    H64 6562   6.395   0.290   2.474 -0.8863  0.4500  0.3312
   20MOL    H65 6563   6.594   0.170   2.177 -1.4825  0.4302  0.3167
   20MOL    H66 6564   6.779   0.021   2.209  0.4084 -1.1078 -0.9092
   20MOL    H67 6565   6.796   7.954   2.396  0.3797 -0.4702 -1.0603
   20MOL    H68 6566   6.651   8.019   2.610 -0.7421 -0.2594  0.2439
   20MOL    H69 6567   6.470   0.089   2.583  0.6831  0.5169  0.6530
   20MOL    C70 6568   6.561   0.440   2.342  0.4545 -0.7311  0.6125
   20MOL    C71 6569   6.563   0.591   2.310  0.6535 -0.2856  0.0035
   20MOL    C72 6570   6.699   0.651   2.319 -0.1438 -0.2680  0.0230
   20MOL    C73 6571   6.790   0.638   2.215  0.4239 -0.2786 -1.0656
   20MOL    C74 6572   6.920   0.690   2.225 -0.1634  0.2984 -1.1356
   20MOL    C75 6573   6.962   0.764   2.336  0.5783 -0.2072  0.0306
   20MOL    C76 6574   6.874   0.779   2.444  0.2238  0.2495 -0.3436
   20MOL    C77 6575   6.739   0.729   2.429 -0.6118 -0.4579  0.1732
   20MOL    O78 6576   6.467   0.653   2.396  0.4573  0.3577  0.0056
   20MOL    H79 6577   6.568   0.414   2.448 -0.2346 -0.4031  0.7396
   20MOL    H80 6578   6.650   0.396   2.298  0.6176  0.1360  0.0686
   20MOL    H81 6579   6.528   0.615   2.210 -2.0957 -1.0282  0.7403
   20MOL    H82 6580   6.776   0.584   2.123 -2.6973 -1.0556 -0.1991
   20MOL    H83 6581   6.992   0.692   2.145 -1.1472  2.7521 -2.0181
   20MOL    H84 6582   7.062   0.807   2.342  2.0064 -3.0346 -2.1198
   20MOL    H85 6583   6.914   0.827   2.532  2.1183 -0.3331 -0.8716
   20MOL    H86 6584   6.662   0.744   2.504 -1.3475  1.6776 -0.9800
   20MOL    C87 6585   6.409   0.776   2.352  0.0338  0.4560 -0.5672
   20MOL    C88 6586   6.275   0.744   2.296 -0.0821  0.0512 -0.2255
   20MOL    C89 6587   6.180   0.667   2.395 -0.4164  0.1809 -0.7959
   20MOL    C90 6588   6.142   0.735   2.515 -0.3810 -0.2731 -0.8308
   20MOL    C91 6589   6.067   0.666   2.620 -1.3830 -0.6184 -0.1030
   20MOL    C92 6590   6.032   0.530   2.601  0.1935  0.8648 -0.4542
   20MOL    C93 6591   6.059   0.466   2.474 -0.1019  0.0916 -0.8269
   20MOL    C94 6592   6.143   0.532   2.381 -0.4505  0.3749  0.3256
   20MOL    O95 6593   6.289   0.688   2.170 -0.4232 -0.3519  0.7055
   20MOL    H96 6594   6.460   0.834   2.275 -0.1249  1.8312  0.3521
   20MOL    H97 6595   6.390   0.837   2.440 -2.3731  0.3545 -0.9925
   20MOL    H98 6596   6.234   0.844   2.280 -1.5841 -0.2070  1.8241
   20MOL    H99 6597   6.171   0.836   2.539  2.1684 -1.2362  0.3139
   20MOL   H100 6598   6.034   0.715   2.710 -0.2683  1.0875 -0.6166
   20MOL   H101 6599   5.974   0.471   2.670  1.4565 -0.3970 -0.4354
   20MOL   H102 6600   6.021   0.365   2.462  1.2479 -0.1334 -3.6294
   20MOL   H103 6601   6.156   0.480   2.287  0.9738 -0.0694  0.7504
   20MOL   C104 6602   6.167   0.671   2.094 -0.2983 -0.3910 -0.6983
   20MOL   C105 6603   6.196   0.688   1.942  0.7348  0.4838 -0.2067
   20MOL   C106 6604   6.235   0.560   1.873 -0.0149 -0.2030  0.0798
   20MOL   C107 6605   6.352   0.494   1.913 -0.6061 -0.4585  0.4463
   20MOL   C108 6606   6.390   0.364   1.877 -0.1809 -0.4604 -0.0793
   20MOL   C109 6607   6.298   0.302   1.783  0.3524 -0.2156 -0.4668
   20MOL   C110 6608   6.182   0.367   1.725 -0.8593  1.4204  0.2240
   20MOL   C111 6609   6.148   0.494   1.772 -0.4558  0.2634 -0.0850
   20MOL   O112 6610   6.084   0.747   1.883 -0.0344  0.3587  0.4300
   20MOL   H113 6611   6.129   0.569   2.096 -0.2574 -0.4040 -0.5824
   20MOL   H114 6612   6.088   0.742   2.118 -0.2112  0.0167 -1.6032
   20MOL   H115 6613   6.279   0.757   1.931  0.4635  1.0790  1.4236
   20MOL   H116 6614   6.401   0.538   1.999  0.9370  1.2867 -1.2560
   20MOL   H117 6615   6.470   0.308   1.923 -1.5560 -1.1782  1.4693
   20MOL   H118 6616   6.310   0.198   1.755  0.5358 -0.1352 -0.6878
   20MOL   H119 6617   6.122   0.319   1.650  0.8485 -0.3893 -0.0377
   20MOL   H120 6618   6.053   0.544   1.757 -1.0160 -0.5052  0.8094
   20MOL   C121 6619   6.112   0.805   1.758 -0.1294 -0.5506  0.6809
   20MOL   C122 6620   5.985   0.841   1.682 -0.2920  0.1137  0.3991
   20MOL   C123 6621   5.889   0.918   1.774  0.2537  0.0939 -0.0772
   20MOL   C124 6622   5.879   1.060   1.762 -0.5061  0.3972  0.5632
   20MOL   C125 6623   5.773   1.121   1.835  0.0582 -0.0677 -0.1844
   20MOL   C126 6624   5.690   1.047   1.921 -0.7114 -1.0096 -0.0684
   20MOL   C127 6625   5.706   0.911   1.935 -0.1202  1.0812  0.2673
   20MOL   C128 6626   5.802   0.847   1.852  0.7148 -0.1229 -0.1652
   20MOL   O129 6627   6.020   0.914   1.563  0.1974  0.0326  0.1000
   20MOL   H130 6628   6.164   0.731   1.697  1.2685  0.2334  0.8930
   20MOL   H131 6629   6.180   0.891   1.764 -0.8036  0.0889 -0.5703
   20MOL   H132 6630   5.918   0.759   1.655 -0.0250  0.2834 -0.7793
   20MOL   H133 6631   5.935   1.122   1.693  0.0527 -0.9454 -0.2076
   20MOL   H134 6632   5.768   1.229   1.830 -0.6087 -0.0926 -0.1099
   20MOL   H135 6633   5.616   1.105   1.975  1.6912  1.2592  0.8862
   20MOL   H136 6634   5.640   0.858   2.002 -0.9356  1.5269 -0.1780
   20MOL   H137 6635   5.813   0.739   1.858 -0.4091 -0.1807  1.0529
   20MOL   C138 6636   5.931   0.921   1.458  0.2336 -0.4347  0.0555
   20MOL   C139 6637   5.959   1.035   1.355 -0.2687  0.4319  0.5198
   20MOL   C140 6638   6.067   0.994   1.250 -0.0799  0.4622  1.1648
   20MOL   C141 6639   6.036   0.925   1.132 -0.3486  0.0230  0.5134
   20MOL   C142 6640   6.141   0.878   1.048  0.4042 -0.2355  0.4309
   20MOL   C143 6641   6.276   0.908   1.077  0.4632  0.4618 -0.1744
   20MOL   C144 6642   6.310   0.980   1.194 -0.3159 -0.1826 -0.1225
   20MOL   C145 6643   6.206   1.014   1.278  0.9982  0.3096  0.7259
   20MOL   O146 6644   5.833   1.040   1.287 -0.2531  0.3360 -1.1523
   20MOL   H147 6645   5.834   0.939   1.505  0.9989  2.7038  0.5229
   20MOL   H148 6646   5.931   0.825   1.406 -1.6311  0.3275 -1.4109
   20MOL   H149 6647   5.980   1.125   1.413  3.6468 -0.3203  0.3845
   20MOL   H150 6648   5.932   0.915   1.101 -0.0685 -0.0806 -0.4185
   20MOL   H151 6649   6.126   0.825   0.955 -0.4900  1.1402 -0.2250
   20MOL   H152 6650   6.349   0.861   1.013  0.1380  0.4724 -0.5583
   20MOL   H153 6651   6.412   1.002   1.223 -0.5680  1.3342 -0.3495
   20MOL   H154 6652   6.249   1.065   1.363  1.5251 -1.7713  1.7604
   20MOL   C155 6653   5.806   1.156   1.212 -0.5136  0.0317  0.5873
   20MOL   C156 6654   5.754   1.267   1.303 -0.7906 -0.0917  0.3690
   20MOL   C157 6655   5.629   1.223   1.382 -0.0899 -0.2921  0.1031
   20MOL   C158 6656   5.504   1.224   1.319  0.5484  0.1925  0.9161
   20MOL   C159 6657   5.394   1.167   1.385 -0.2106 -0.2937  0.0854
   20MOL   C160 6658   5.404   1.144   1.523  0.1922  0.2966  0.2191
   20MOL   C161 6659   5.529   1.157   1.591  0.5974  1.2616  0.4894
   20MOL   C162 6660   5.641   1.185   1.518 -0.2975  0.2353  0.2999
   20MOL   O163 6661   5.842   1.341   1.386 -0.0189 -0.8449 -0.2859
   20MOL   H164 6662   5.741   1.126   1.130  0.7981 -3.1985  0.6534
   20MOL   H165 6663   5.899   1.192   1.168 -1.6791  1.2707 -0.9154
   20MOL   H166 6664   5.715   1.340   1.233 -0.2045 -1.1083 -1.0575
   20MOL   H167 6665   5.490   1.259   1.218 -0.0524 -1.1084  0.5362
   20MOL   H168 6666   5.296   1.172   1.338 -0.8504  1.4378  1.5079
   20MOL   H169 6667   5.314   1.119   1.578  1.5208 -1.6491  1.6269
   20MOL   H170 6668   5.542   1.146   1.698  1.4967  4.1937  0.7329
   20MOL   H171 6669   5.739   1.193   1.563 -0.5801  1.2973  0.7489
   20MOL   C172 6670   5.916   1.438   1.306 -0.3615  0.2584  0.1321
   20MOL   C173 6671   5.862   1.578   1.316  0.2971 -0.0677 -0.2789
   20MOL   C174 6672   5.887   1.640   1.457  0.0225 -0.3774 -1.3755
   20MOL   C175 6673   5.832   1.586   1.571 -0.4566 -0.2213  0.7084
   20MOL   C176 6674   5.885   1.619   1.692  0.1655  0.6128  0.4027
   20MOL   C177 6675   5.984   1.717   1.709  0.3661 -0.1307 -0.2874
   20MOL   C178 6676   6.036   1.773   1.596  0.9835 -0.2417  0.1772
   20MOL   C179 6677   5.985   1.740   1.470 -0.0483  0.1344 -0.4134
   20MOL   O180 6678   5.723   1.562   1.294  0.0330  0.1963  0.2552
   20MOL   H181 6679   6.021   1.446   1.336  0.2871  3.1003 -2.5898
   20MOL   H182 6680   5.919   1.418   1.199  1.5166  1.1415 -0.0097
   20MOL   H183 6681   5.911   1.644   1.245 -1.6414  1.0500 -0.6127
   20MOL   H184 6682   5.761   1.505   1.571  1.0703 -1.5921  1.6051
   20MOL   H185 6683   5.848   1.571   1.782  2.9018 -0.4583  1.0276
   20MOL   H186 6684   6.013   1.749   1.808  3.3471  0.8673 -1.4107
   20MOL   H187 6685   6.114   1.847   1.606 -0.8040  1.4068  2.5115
   20MOL   H188 6686   6.034   1.788   1.386 -1.0570 -1.6380 -2.0695
   20MOL   C189 6687   5.651   1.677   1.253  0.5890  0.6692  0.6344
   20MOL   C190 6688   5.620   1.669   1.100  0.7430  0.1173  0.5765
   20MOL   C191 6689   5.538   1.546   1.071 -0.2215  1.0802  0.1756
   20MOL   C192 6690   5.590   1.431   1.011 -0.0351 -0.6826 -0.2007
   20MOL   C193 6691   5.508   1.330   0.963  0.7817 -0.1794 -0.0205
   20MOL   C194 6692   5.367   1.333   0.986  0.5342  0.4015  1.0217
   20MOL   C195 6693   5.317   1.448   1.043  0.1676 -0.0125  0.6307
   20MOL   C196 6694   5.402   1.555   1.085  0.5656 -0.2541  0.1961
   20MOL   O197 6695   5.750   1.676   1.038 -0.2662 -0.1790 -0.1228
   20MOL   H198 6696   5.550   1.677   1.293 -0.7565 -1.5146 -2.6265
   20MOL   H199 6697   5.686   1.775   1.287 -0.4428  1.1993  0.1736
   20MOL   H200 6698   5.557   1.754   1.074  1.0454  0.0900 -0.2612
   20MOL   H201 6699   5.698   1.428   1.009 -0.0601 -0.7145 -2.1666
   20MOL   H202 6700   5.542   1.240   0.914 -1.2324 -0.6944 -0.4991
   20MOL   H203 6701   5.306   1.251   0.951  0.6786  0.1070  1.4573
   20MOL   H204 6702   5.211   1.455   1.058 -0.0793 -0.4034 -0.8395
   20MOL   H205 6703   5.361   1.650   1.119  1.1816  0.6094 -1.4153
   20MOL   C206 6704   5.760   1.768   0.923  0.5925  0.4820 -0.1408
   20MOL   C207 6705   5.908   1.774   0.871  0.1711  0.5508  0.1215
   20MOL   C208 6706   5.913   1.891   0.763 -0.1873 -0.1722  0.0268
   20MOL   C209 6707   5.922   2.031   0.801 -0.0717  0.4959 -0.1507
   20MOL   C210 6708   5.933   2.137   0.707 -1.0487  0.4020  0.1292
   20MOL   C211 6709   5.934   2.113   0.568 -0.4688 -0.0524 -0.4999
   20MOL   C212 6710   5.920   1.980   0.532 -0.2996 -0.1876  0.4217
   20MOL   C213 6711   5.915   1.870   0.620 -0.4569 -0.0621 -0.5634
   20MOL   O214 6712   5.940   1.647   0.817 -0.3182 -0.3856  0.8576
   20MOL   H215 6713   5.694   1.742   0.839  0.6926  1.4131 -0.5199
   20MOL   H216 6714   5.729   1.870   0.948 -0.1320  0.5661 -1.3138
   20MOL   H217 6715   5.968   1.794   0.960  0.7846  1.9793 -0.5874
   20MOL   H218 6716   5.914   2.057   0.905 -1.5899  0.3756 -0.2186
   20MOL   H219 6717   5.944   2.234   0.754  2.2342 -0.3342  1.0204
   20MOL   H220 6718   5.950   2.199   0.504 -0.0331  2.1361  2.4909
   20MOL   H221 6719   5.929   1.948   0.429 -3.0234 -0.6840  0.3101
   20MOL   H222 6720   5.911   1.766   0.592  1.2702 -0.6063  1.0442
   20MOL   C223 6721   6.079   1.607   0.801 -0.3397  0.1654 -0.3430
   20MOL   C224 6722   6.144   1.591   0.941  0.1515  0.7737  0.0025
   20MOL   C225 6723   6.268   1.505   0.937 -0.0822 -0.1133 -0.5953
   20MOL   C226 6724   6.378   1.555   0.866 -0.2964 -0.3598  0.0660
   20MOL   C227 6725   6.502   1.494   0.886  0.4729 -0.2417  0.7394
   20MOL   C228 6726   6.521   1.372   0.960  0.3579 -0.1083 -0.2714
   20MOL   C229 6727   6.409   1.325   1.033  0.0677 -1.1613  0.3965
   20MOL   C230 6728   6.287   1.394   1.025 -0.5132  0.4026  0.6164
   20MOL   O231 6729   6.181   1.728   0.965  0.6738  0.1514  0.3752
   20MOL   H232 6730   6.065   1.512   0.751 -0.6510  0.9859 -1.8567
   20MOL   H233 6731   6.142   1.663   0.731  0.0714 -0.2659 -0.3157
   20MOL   H234 6732   6.073   1.548   1.012 -0.9930  0.1219 -1.5221
   20MOL   H235 6733   6.367   1.644   0.806  2.3709 -1.1878 -1.7647
   20MOL   H236 6734   6.587   1.543   0.840 -0.3626  0.1010 -0.4746
   20MOL   H237 6735   6.619   1.332   0.978  0.8308  1.6254  1.2034
   20MOL   H238 6736   6.406   1.236   1.094 -4.1556 -2.4353 -1.4349
   20MOL   H239 6737   6.215   1.347   1.090  0.2695  0.2137  1.3533
   20MOL   C240 6738   6.213   1.765   1.099 -0.4100  0.1387 -0.1812
   20MOL   C241 6739   6.256   1.920   1.103  0.9032 -0.7966  0.1121
   20MOL   C242 6740   6.241   1.982   1.245  0.1213  0.2822  0.8588
   20MOL   C243 6741   6.117   2.024   1.292  0.2666 -0.3047 -0.1683
   20MOL   C244 6742   6.096   2.070   1.426  0.5737  0.1318  0.0155
   20MOL   C245 6743   6.208   2.085   1.509 -0.1872 -1.0809  0.5889
   20MOL   C246 6744   6.337   2.042   1.465  0.2474  0.4059  0.2003
   20MOL   C247 6745   6.348   1.985   1.332 -0.5224  0.2755  0.0428
   20MOL   O248 6746   6.389   1.947   1.060 -0.4694 -0.5103  0.1195
   20MOL   H249 6747   6.129   1.749   1.166 -0.4711 -0.3969 -0.3873
   20MOL   H250 6748   6.293   1.707   1.145 -0.5162 -0.6250 -0.9311
   20MOL   H251 6749   6.185   1.978   1.045  1.0605  2.0192  2.6297
   20MOL   H252 6750   6.032   2.020   1.225  1.4911  1.8062 -1.9367
   20MOL   H253 6751   5.997   2.099   1.455  1.2078  1.4427  0.8903
   20MOL   H254 6752   6.194   2.135   1.603 -1.3900  2.5751 -1.4254
   20MOL   H255 6753   6.425   2.047   1.526 -0.8369  1.4827  1.7213
   20MOL   H256 6754   6.442   1.947   1.297 -0.2252  0.6152  0.4597
   20MOL   C257 6755   6.400   1.935   0.928 -0.2718  0.1411 -0.3521
   20MOL   C258 6756   6.547   1.945   0.890  0.2854 -0.0085 -0.9173
   20MOL   C259 6757   6.573   1.965   0.741  0.2757  0.6364 -0.0306
   20MOL   C260 6758   6.577   2.092   0.681  0.6585 -0.3423 -0.7757
   20MOL   C261 6759   6.600   2.114   0.545  0.0536 -0.1641  0.4714
   20MOL   C262 6760   6.605   2.002   0.462  0.4469  0.5798  0.3731
   20MOL   C263 6761   6.597   1.875   0.514 -0.3501  0.1747 -0.0983
   20MOL   C264 6762   6.588   1.856   0.652  0.3644  0.6032 -0.1591
   20MOL   O265 6763   6.616   1.829   0.937  0.1285 -0.1581 -0.9806
   20MOL   H266 6764   6.341   2.006   0.869 -1.1213  0.6016  1.0376
   20MOL   H267 6765   6.364   1.839   0.892  1.5596 -1.4743  2.0398
   20MOL   H268 6766   6.587   2.029   0.948 -0.1307 -0.0600 -0.5540
   20MOL   H269 6767   6.562   2.180   0.743 -2.3420 -0.1255 -1.7198
   20MOL   H270 6768   6.597   2.214   0.504 -0.6569 -0.2926  0.2038
   20MOL   H271 6769   6.620   2.025   0.357  0.3191 -0.5213  0.1113
   20MOL   H272 6770   6.604   1.795   0.442  2.0369  1.0925 -0.9335
   20MOL   H273 6771   6.595   1.755   0.688 -0.3981 -0.2092 -2.2619
   20MOL   C274 6772   6.756   1.839   0.950 -0.3054  0.0490 -0.0658
   20MOL   C275 6773   6.794   1.744   1.062 -0.3892 -0.2288  1.1758
   20MOL   C276 6774   6.752   1.773   1.207 -0.5150  0.2007 -0.6249
   20MOL   C277 6775   6.840   1.835   1.298  0.3309  0.0716 -0.2305
   20MOL   C278 6776   6.803   1.863   1.429 -0.3992 -0.1807  0.3949
   20MOL   C279 6777   6.679   1.820   1.479 -0.1655  0.0657  0.0580
   20MOL   C280 6778   6.586   1.766   1.384 -0.1428 -0.2520 -0.2552
   20MOL   C281 6779   6.623   1.740   1.257  0.5345 -0.3156 -0.6667
   20MOL   O282 6780   6.933   1.713   1.060 -0.2782 -0.1322 -0.2293
   20MOL   H283 6781   6.800   1.809   0.855 -1.0295 -1.4618  0.0708
   20MOL   H284 6782   6.788   1.934   0.994 -0.1897  0.4364 -0.9644
   20MOL   H285 6783   6.739   1.653   1.039  2.2753 -1.7301  0.4254
   20MOL   H286 6784   6.940   1.856   1.262  0.7530 -1.5971 -0.0403
   20MOL   H287 6785   6.867   1.919   1.496  2.6958 -0.8303 -1.9385
   20MOL   H288 6786   6.641   1.838   1.578  1.1481 -0.6390  0.6877
   20MOL   H289 6787   6.488   1.730   1.411 -1.4379  3.5938  0.4327
   20MOL   H290 6788   6.552   1.690   1.193 -1.0531  0.9208  0.0890
   20MOL   C291 6789   6.982   1.622   0.960  0.0290 -0.5863 -0.8658
   20MOL   C292 6790   7.119   1.580   1.009 -0.6727  0.0678  0.0435
   20MOL   C293 6791   7.166   1.461   0.923 -1.1991 -0.1415 -0.1347
   20MOL   C294 6792   7.109   1.332   0.944  0.1158 -0.6759 -0.2411
   20MOL   C295 6793   7.147   1.222   0.869 -0.3674 -0.6566  0.5262
   20MOL   C296 6794   7.240   1.243   0.764  0.2626  0.3004  0.7804
   20MOL   C297 6795   7.284   1.376   0.731  0.2534 -0.5115 -0.3026
   20MOL   C298 6796   7.245   1.487   0.810 -0.1101  0.1204 -0.3852
   20MOL   O299 6797   7.206   1.691   1.003 -0.3831  0.1219  0.1116
   20MOL   H300 6798   6.995   1.670   0.863 -0.2351 -0.2662 -0.7404
   20MOL   H301 6799   6.912   1.539   0.950 -0.1719 -0.5378  0.1074
   20MOL   H302 6800   7.116   1.539   1.110  0.0655 -0.2689 -0.0643
   20MOL   H303 6801   7.043   1.328   1.029 -0.0770  0.1211 -0.3530
   20MOL   H304 6802   7.103   1.127   0.894  0.1392 -0.8384  0.7344
   20MOL   H305 6803   7.267   1.158   0.703 -3.9388  0.6403 -1.7814
   20MOL   H306 6804   7.339   1.399   0.641 -0.8719 -0.5715 -1.0246
   20MOL   H307 6805   7.269   1.590   0.786  1.1286 -0.1619 -0.3750
   20MOL   C308 6806   7.215   1.755   1.128 -0.2010 -0.5867  0.4572
   20MOL   C309 6807   7.243   1.909   1.098  0.2813  0.5073 -0.2054
   20MOL   C310 6808   7.201   1.993   1.217 -0.2127 -1.1734 -0.6699
   20MOL   C311 6809   7.156   2.130   1.192 -0.3258  0.3724 -0.4617
   20MOL   C312 6810   7.096   2.200   1.300  0.6524 -0.5435  0.2531
   20MOL   C313 6811   7.089   2.146   1.429  0.6711 -0.5631  0.0359
   20MOL   C314 6812   7.158   2.021   1.454  0.3004 -0.1512 -0.0280
   20MOL   C315 6813   7.209   1.941   1.352  0.0188 -0.0709  0.3731
   20MOL   O316 6814   7.383   1.925   1.073 -0.0615  0.4728  0.1202
   20MOL   H317 6815   7.295   1.713   1.188 -0.9132  0.2326  2.0357
   20MOL   H318 6816   7.117   1.751   1.176 -0.9459 -2.0344 -1.1358
   20MOL   H319 6817   7.173   1.936   1.019 -0.2777  0.4882  0.2782
   20MOL   H320 6818   7.160   2.179   1.096  2.3815  0.3100 -0.3980
   20MOL   H321 6819   7.076   2.303   1.277  1.5784 -0.6888 -1.2254
   20MOL   H322 6820   7.049   2.202   1.512  1.6034 -0.1261  0.1911
   20MOL   H323 6821   7.163   1.991   1.557 -0.0096  0.9331  0.3095
   20MOL   H324 6822   7.257   1.846   1.371 -3.1033 -1.3460  2.2492
   20MOL   C325 6823   7.416   2.001   0.961 -0.5540  0.2289  0.2378
   20MOL   C326 6824   7.447   1.915   0.834  0.3256  0.7541  0.0042
   20MOL   C327 6825   7.550   1.809   0.862 -0.0287 -1.0053  0.2988
   20MOL   C328 6826   7.686   1.840   0.843  0.2537 -0.8188 -0.4082
   20MOL   C329 6827   7.787   1.747   0.857  0.3725 -0.4541  0.5405
   20MOL   C330 6828   7.759   1.615   0.900  0.1307 -0.4684 -0.2774
   20MOL   C331 6829   7.625   1.582   0.922  0.7732 -0.1014  0.1191
   20MOL   C332 6830   7.525   1.677   0.898  0.9298 -0.2075 -0.0268
   20MOL   O333 6831   7.330   1.857   0.773 -0.6580 -0.2392 -0.2631
   20MOL   H334 6832   7.506   2.060   0.977 -0.0461 -0.2406 -0.8426
   20MOL   H335 6833   7.334   2.070   0.939 -1.2717 -0.1447  1.6714
   20MOL   H336 6834   7.471   1.976   0.747  0.4185 -0.1862 -0.6416
   20MOL   H337 6835   7.711   1.941   0.815 -0.6640 -0.2280  0.8399
   20MOL   H338 6836   7.888   1.785   0.847  0.0559  0.8627  2.0921
   20MOL   H339 6837   7.837   1.543   0.920  0.7343  0.4993  0.9317
   20MOL   H340 6838   7.611   1.477   0.946  0.3780 -0.1418 -0.3008
   20MOL   H341 6839   7.421   1.646   0.904  0.0069  2.5182 -1.1208
   20MOL   H342 6840   7.290   1.822   0.851  0.4844  0.9534  0.8803
   21MOL     C1 6841   5.922   1.917   4.251 -0.7452  0.4120 -0.5549
   21MOL     C2 6842   5.829   1.871   4.363  0.0841  0.2105  0.7384
   21MOL     C3 6843   5.802   1.721   4.381 -0.4395  0.5997 -0.7116
   21MOL     C4 6844   5.839   1.662   4.505 -0.4843 -0.0980 -0.0068
   21MOL     C5 6845   5.801   1.529   4.543  0.0395  0.2384  0.0854
   21MOL     C6 6846   5.740   1.450   4.446  0.1310  0.1029  0.6105
   21MOL     C7 6847   5.683   1.511   4.330 -0.2250 -0.8960  1.0698
   21MOL     C8 6848   5.716   1.644   4.297 -0.4120 -0.4907  0.6861
   21MOL     O9 6849   5.707   1.935   4.329 -0.4051  0.1610  0.3322
   21MOL    H10 6850   6.018   1.870   4.270 -1.0800 -0.6007 -1.2958
   21MOL    H11 6851   5.893   1.885   4.151 -3.4932 -0.4592  0.4743
   21MOL    H12 6852   5.886   1.909   4.449  2.1213 -1.5119  0.1941
   21MOL    H13 6853   5.887   1.728   4.576  2.0142 -0.0983 -1.6260
   21MOL    H14 6854   5.832   1.489   4.638 -0.7604 -0.8821 -0.1181
   21MOL    H15 6855   5.718   1.346   4.465  1.0097  0.0921  1.6109
   21MOL    H16 6856   5.621   1.461   4.256 -1.5407 -0.6169  1.9866
   21MOL    H17 6857   5.675   1.695   4.212 -0.5092 -1.5668  0.0814
   21MOL    H18 6858   5.937   2.025   4.254 -0.0983  0.3016  0.1878
   21MOL    C19 6859   5.631   1.971   4.443  0.3980 -0.3001 -0.4579
   21MOL    C20 6860   5.496   2.031   4.401 -0.6047  0.0741 -0.2282
   21MOL    C21 6861   5.525   2.171   4.348  0.2585  0.2168 -0.0222
   21MOL    C22 6862   5.527   2.196   4.211  0.5614  0.0497 -0.9740
   21MOL    C23 6863   5.549   2.325   4.161 -0.4402 -0.0510  0.0068
   21MOL    C24 6864   5.565   2.429   4.253 -0.6043 -0.6171 -0.7232
   21MOL    C25 6865   5.568   2.406   4.388 -0.2953  0.8633 -0.1954
   21MOL    C26 6866   5.546   2.278   4.440 -0.1438  0.1602 -0.4495
   21MOL    O27 6867   5.401   2.035   4.504  0.0232  0.5020 -0.2913
   21MOL    H28 6868   5.626   1.879   4.502  2.0228 -0.6933 -0.8974
   21MOL    H29 6869   5.681   2.047   4.503 -0.9958  2.1001 -2.2320
   21MOL    H30 6870   5.463   1.975   4.314 -0.5146  0.4994 -0.5362
   21MOL    H31 6871   5.508   2.111   4.147 -2.9789  1.5652 -2.0721
   21MOL    H32 6872   5.550   2.344   4.054  0.6782  0.2644  0.0661
   21MOL    H33 6873   5.585   2.529   4.218 -2.7326 -0.0663 -0.4541
   21MOL    H34 6874   5.601   2.471   4.467 -3.2491  0.1415  1.6994
   21MOL    H35 6875   5.567   2.252   4.543  0.5496 -0.8371 -0.8367
   21MOL    C36 6876   5.270   2.058   4.460 -0.0053  0.2547 -0.0202
   21MOL    C37 6877   5.146   2.030   4.554  0.9555 -0.1972 -0.1590
   21MOL    C38 6878   5.168   2.092   4.693 -0.0373 -0.3855  0.2388
   21MOL    C39 6879   5.178   2.005   4.806 -0.4766 -0.3302 -0.3661
   21MOL    C40 6880   5.193   2.061   4.936 -0.5564  0.1807 -0.3639
   21MOL    C41 6881   5.187   2.201   4.950 -0.3075 -0.0910 -0.3158
   21MOL    C42 6882   5.185   2.285   4.832 -0.6130 -0.2388  0.2199
   21MOL    C43 6883   5.179   2.232   4.704  0.7204 -0.8202 -0.1636
   21MOL    O44 6884   5.142   1.885   4.561  0.3852  0.5725 -0.3918
   21MOL    H45 6885   5.264   2.158   4.418  1.2863  0.7267  0.8883
   21MOL    H46 6886   5.256   1.996   4.371 -1.5429  0.1629  0.2752
   21MOL    H47 6887   5.052   2.069   4.515  2.5973  0.1108 -4.0768
   21MOL    H48 6888   5.170   1.898   4.793  2.2528 -0.6941  0.6693
   21MOL    H49 6889   5.200   2.009   5.031  1.3650  0.8792 -0.1092
   21MOL    H50 6890   5.183   2.242   5.049 -1.1138  1.0498 -0.8082
   21MOL    H51 6891   5.189   2.392   4.846 -0.2059 -0.2633  0.3158
   21MOL    H52 6892   5.165   2.289   4.613  1.6125 -0.4893 -0.1056
   21MOL    C53 6893   5.005   1.839   4.571 -0.0148 -0.4587  0.2353
   21MOL    C54 6894   4.997   1.689   4.594  0.3992  0.3629 -0.2444
   21MOL    C55 6895   5.089   1.651   4.712 -0.0735 -0.2306  0.5915
   21MOL    C56 6896   5.035   1.653   4.841 -0.2559  0.2770  0.2795
   21MOL    C57 6897   5.118   1.631   4.949  0.0656  0.0538 -0.1932
   21MOL    C58 6898   5.255   1.595   4.933  0.2370  0.5427 -0.4175
   21MOL    C59 6899   5.311   1.598   4.802 -0.1518  0.3090 -0.1383
   21MOL    C60 6900   5.228   1.633   4.694  0.1701 -0.0530  0.6097
   21MOL    O61 6901   4.866   1.649   4.621  0.1250  0.1980  0.3950
   21MOL    H62 6902   4.964   1.888   4.659  1.9284  0.9637  0.3771
   21MOL    H63 6903   4.950   1.852   4.479  1.2786  0.7661 -0.3870
   21MOL    H64 6904   5.036   1.650   4.500 -0.8575  1.3709 -1.2098
   21MOL    H65 6905   4.928   1.665   4.852 -0.2684 -1.1445  1.9104
   21MOL    H66 6906   5.079   1.631   5.049  3.6875 -0.6563  1.3251
   21MOL    H67 6907   5.329   1.584   5.011  1.9391 -0.0326 -2.0782
   21MOL    H68 6908   5.416   1.580   4.784 -0.4467 -0.7659 -0.7843
   21MOL    H69 6909   5.269   1.637   4.594 -0.1436  1.5865  0.5348
   21MOL    C70 6910   4.841   1.517   4.588 -0.2878  0.3296  0.3481
   21MOL    C71 6911   4.823   1.488   4.440 -0.2880 -0.2100  0.1874
   21MOL    C72 6912   4.732   1.364   4.435 -0.1268  0.1635 -0.9910
   21MOL    C73 6913   4.789   1.239   4.439 -0.2923 -0.0576  0.7577
   21MOL    C74 6914   4.706   1.128   4.423 -0.1355 -1.0149 -0.1118
   21MOL    C75 6915   4.568   1.142   4.412  0.0522  0.1438 -0.5972
   21MOL    C76 6916   4.508   1.268   4.417 -0.1725  0.1053 -0.5027
   21MOL    C77 6917   4.590   1.383   4.429  0.0809 -0.0217  0.3144
   21MOL    O78 6918   4.956   1.474   4.382  0.3641 -0.1809  0.5153
   21MOL    H79 6919   4.912   1.454   4.642  1.1138  0.9566 -0.7143
   21MOL    H80 6920   4.750   1.500   4.644 -0.4944 -1.9830 -0.6442
   21MOL    H81 6921   4.771   1.566   4.385  0.5589  0.1333 -0.1469
   21MOL    H82 6922   4.897   1.227   4.442 -0.1985  0.6238  0.0783
   21MOL    H83 6923   4.744   1.027   4.423  0.2286 -0.8862 -1.3495
   21MOL    H84 6924   4.498   1.061   4.399 -2.2372  1.7451  1.3906
   21MOL    H85 6925   4.401   1.279   4.427 -0.0656  1.2119 -0.5072
   21MOL    H86 6926   4.543   1.479   4.445 -0.1995 -0.2367  0.7727
   21MOL    C87 6927   4.954   1.446   4.240 -0.0839  0.0076  0.0442
   21MOL    C88 6928   5.100   1.408   4.195  0.3985  0.0843 -0.2480
   21MOL    C89 6929   5.193   1.527   4.190 -0.0745 -0.4881 -0.4098
   21MOL    C90 6930   5.236   1.584   4.067  0.4106 -0.7869  0.0619
   21MOL    C91 6931   5.333   1.686   4.066 -0.1707  0.0459 -0.0107
   21MOL    C92 6932   5.391   1.734   4.187  0.1119 -0.0560  0.4588
   21MOL    C93 6933   5.349   1.679   4.308 -0.1477 -0.1550 -0.1123
   21MOL    C94 6934   5.250   1.582   4.308 -0.3750 -0.8648 -0.1438
   21MOL    O95 6935   5.083   1.338   4.074 -0.1975  0.2593 -0.0411
   21MOL    H96 6936   4.907   1.524   4.180 -0.0198  1.7786  2.2582
   21MOL    H97 6937   4.888   1.361   4.220 -0.7974  0.5507  0.0453
   21MOL    H98 6938   5.136   1.342   4.274  0.8314 -0.4689 -0.9075
   21MOL    H99 6939   5.193   1.535   3.980  1.7690 -1.1417 -0.4153
   21MOL   H100 6940   5.368   1.715   3.967  1.5465  0.7148  0.7735
   21MOL   H101 6941   5.476   1.800   4.186  0.5865 -0.6638  0.8546
   21MOL   H102 6942   5.399   1.717   4.396  0.7384 -0.8904 -0.2898
   21MOL   H103 6943   5.220   1.548   4.407  0.3614  1.1545  0.7975
   21MOL   C104 6944   5.028   1.204   4.097 -0.3469 -0.3487  0.2876
   21MOL   C105 6945   4.946   1.168   3.974 -0.6559 -0.7048 -0.2982
   21MOL   C106 6946   4.803   1.223   3.991  0.1467 -0.6188  0.0371
   21MOL   C107 6947   4.774   1.354   3.960 -0.5453  0.3754  0.2884
   21MOL   C108 6948   4.652   1.417   3.983 -0.1388 -0.0508  0.2450
   21MOL   C109 6949   4.542   1.345   4.036  0.1449  0.2232 -0.3608
   21MOL   C110 6950   4.562   1.212   4.062 -0.2159 -0.0506  0.3279
   21MOL   C111 6951   4.691   1.155   4.041  0.7352 -0.4136 -0.3304
   21MOL   O112 6952   5.003   1.211   3.847  0.2605 -0.2497 -0.4451
   21MOL   H113 6953   5.112   1.138   4.117  0.2229 -0.7581 -3.1588
   21MOL   H114 6954   4.965   1.183   4.184  0.3749 -0.7397  0.7217
   21MOL   H115 6955   4.934   1.060   3.968  1.7754 -0.9038 -2.8022
   21MOL   H116 6956   4.856   1.414   3.924  1.6146 -0.4861  3.6283
   21MOL   H117 6957   4.644   1.523   3.967  2.2238  0.3825  1.6696
   21MOL   H118 6958   4.450   1.401   4.043  0.2410  0.7757 -2.8331
   21MOL   H119 6959   4.492   1.142   4.105 -1.6264 -0.0579 -1.9162
   21MOL   H120 6960   4.710   1.053   4.069 -1.3095 -1.4284 -2.4764
   21MOL   C121 6961   5.121   1.136   3.809  0.5494 -0.8491  0.4384
   21MOL   C122 6962   5.094   0.993   3.769  0.3104  0.0103  0.0755
   21MOL   C123 6963   5.002   0.981   3.651 -0.3263 -0.1842 -0.2919
   21MOL   C124 6964   5.041   0.959   3.515  0.3664 -0.0342 -0.0426
   21MOL   C125 6965   4.938   0.953   3.421  0.9514 -0.5142 -0.8053
   21MOL   C126 6966   4.805   0.956   3.452 -0.3391  0.7088 -0.2398
   21MOL   C127 6967   4.763   0.966   3.584  0.8647  0.8268  0.6176
   21MOL   C128 6968   4.862   0.979   3.680  0.1922  0.5592 -0.0920
   21MOL   O129 6969   5.212   0.927   3.750 -0.0084 -0.1507  0.3561
   21MOL   H130 6970   5.183   1.154   3.897 -0.5050  1.5256  0.7387
   21MOL   H131 6971   5.161   1.186   3.721 -1.2072  1.5174  0.9274
   21MOL   H132 6972   5.057   0.941   3.858  0.5646 -0.6690 -0.2097
   21MOL   H133 6973   5.143   0.937   3.488  1.4197  2.6254  1.5884
   21MOL   H134 6974   4.964   0.927   3.320 -1.1988 -0.0113 -1.5026
   21MOL   H135 6975   4.729   0.953   3.375 -2.0523 -0.4689  1.4617
   21MOL   H136 6976   4.657   0.976   3.605  1.2407  2.8571  1.5967
   21MOL   H137 6977   4.830   0.983   3.783 -1.6759  1.4212 -0.6974
   21MOL   C138 6978   5.210   0.788   3.723  0.2791  0.0866 -0.2252
   21MOL   C139 6979   5.349   0.733   3.682  0.3170 -0.9909 -0.4829
   21MOL   C140 6980   5.403   0.804   3.560 -0.2149  1.2000 -0.2073
   21MOL   C141 6981   5.413   0.732   3.436  0.6227  0.6451 -0.0070
   21MOL   C142 6982   5.433   0.793   3.311  0.1512  0.2970 -0.3989
   21MOL   C143 6983   5.440   0.932   3.306  0.1484 -0.0659 -0.0444
   21MOL   C144 6984   5.437   1.010   3.426  0.4411  0.1728  0.2322
   21MOL   C145 6985   5.421   0.942   3.552 -0.6020 -0.4971  0.1611
   21MOL   O146 6986   5.443   0.729   3.790 -0.0620 -0.1188 -0.5297
   21MOL   H147 6987   5.147   0.763   3.637 -0.5014 -2.4842  1.0431
   21MOL   H148 6988   5.165   0.731   3.805  0.8127 -0.2045 -0.1388
   21MOL   H149 6989   5.334   0.634   3.639 -2.3023  0.0936 -2.2330
   21MOL   H150 6990   5.396   0.625   3.447 -0.0074  0.4872 -2.3201
   21MOL   H151 6991   5.427   0.733   3.220 -1.7897 -0.6272  0.3042
   21MOL   H152 6992   5.448   0.993   3.217  1.8351 -0.5838 -0.2587
   21MOL   H153 6993   5.444   1.117   3.424 -2.3710  0.3776 -0.2796
   21MOL   H154 6994   5.408   0.993   3.646  0.1480  0.7601 -0.4138
   21MOL   C155 6995   5.566   0.650   3.758  0.3320  0.4048  0.4959
   21MOL   C156 6996   5.661   0.628   3.875  0.6463  0.6749 -0.9544
   21MOL   C157 6997   5.591   0.590   4.002 -0.3893  0.0892 -0.0315
   21MOL   C158 6998   5.552   0.691   4.086  0.4867 -0.0201 -0.1123
   21MOL   C159 6999   5.486   0.667   4.204  0.3259  0.2815  0.3319
   21MOL   C160 7000   5.464   0.531   4.247  0.3789  0.7442 -0.2021
   21MOL   C161 7001   5.499   0.430   4.161 -0.4718  0.9107  0.4536
   21MOL   C162 7002   5.561   0.452   4.035 -0.0782 -0.1328  0.0614
   21MOL   O163 7003   5.750   0.520   3.837 -0.1413 -0.0265  0.4086
   21MOL   H164 7004   5.617   0.711   3.683 -1.4353  0.4897 -0.6469
   21MOL   H165 7005   5.523   0.559   3.718  1.7391  0.1996 -0.6218
   21MOL   H166 7006   5.717   0.718   3.902  0.8077  0.1782  0.4133
   21MOL   H167 7007   5.574   0.793   4.055 -1.5547  0.1970 -0.9318
   21MOL   H168 7008   5.473   0.749   4.273 -1.0700 -0.4562  0.9692
   21MOL   H169 7009   5.434   0.500   4.346 -0.5474 -2.3802 -1.4139
   21MOL   H170 7010   5.471   0.330   4.190  0.9454 -0.4324 -2.5502
   21MOL   H171 7011   5.584   0.376   3.962 -0.7666  1.1721 -1.5363
   21MOL   C172 7012   5.890   0.567   3.826  0.0670 -0.2100  0.1925
   21MOL   C173 7013   5.958   0.558   3.967  0.0699 -0.7803  0.8261
   21MOL   C174 7014   5.983   0.414   4.012 -0.2196  0.3072  0.3102
   21MOL   C175 7015   5.899   0.355   4.113 -0.3723 -0.3096  0.7701
   21MOL   C176 7016   5.922   0.220   4.150  0.0311 -0.2046 -0.0514
   21MOL   C177 7017   6.010   0.134   4.079  0.5657  0.2390 -0.6863
   21MOL   C178 7018   6.086   0.187   3.975 -0.0546 -0.7742  0.6028
   21MOL   C179 7019   6.070   0.325   3.943 -0.3711  0.5711  0.0857
   21MOL   O180 7020   5.884   0.636   4.062 -0.7236  0.3565 -0.0035
   21MOL   H181 7021   5.952   0.504   3.762  0.7719 -0.3443  1.0019
   21MOL   H182 7022   5.899   0.670   3.793  0.4704 -0.8497 -1.7842
   21MOL   H183 7023   6.057   0.601   3.951 -1.1282  1.7741 -0.0799
   21MOL   H184 7024   5.830   0.419   4.165 -0.3164 -0.6927  1.3232
   21MOL   H185 7025   5.865   0.168   4.225  1.1777  0.6130  1.4252
   21MOL   H186 7026   6.014   0.032   4.116 -1.0892  0.8060  1.1225
   21MOL   H187 7027   6.142   0.121   3.911  1.5507  0.7521  0.4051
   21MOL   H188 7028   6.124   0.358   3.855  1.1359 -1.1752  0.3291
   21MOL   C189 7029   5.967   0.682   4.169  0.4326 -0.1093  0.0248
   21MOL   C190 7030   6.030   0.817   4.155 -0.4584  0.1162 -1.0056
   21MOL   C191 7031   5.930   0.909   4.088  0.7827  0.0156  0.2664
   21MOL   C192 7032   5.835   0.983   4.167 -0.3077 -0.0790 -0.1678
   21MOL   C193 7033   5.737   1.070   4.109 -0.3404 -0.1736 -1.0097
   21MOL   C194 7034   5.737   1.084   3.971 -0.0941 -0.7825 -0.5116
   21MOL   C195 7035   5.827   1.013   3.889 -0.3378 -0.0936 -0.3679
   21MOL   C196 7036   5.925   0.925   3.946 -0.1723 -0.3283  0.5694
   21MOL   O197 7037   6.154   0.804   4.081 -0.2435  0.6065 -0.7153
   21MOL   H198 7038   5.905   0.688   4.259  0.4290 -1.8148  0.1550
   21MOL   H199 7039   6.055   0.618   4.178  0.3272 -0.1201  1.1459
   21MOL   H200 7040   6.046   0.839   4.261 -1.4554  1.8649 -1.1915
   21MOL   H201 7041   5.851   0.980   4.274 -1.8002 -1.7627  0.0171
   21MOL   H202 7042   5.669   1.135   4.163 -0.1707  0.5542 -1.6548
   21MOL   H203 7043   5.681   1.167   3.931  0.0296 -0.6299 -0.3696
   21MOL   H204 7044   5.821   1.022   3.781  1.7902 -1.3167 -0.6226
   21MOL   H205 7045   5.996   0.873   3.883 -0.5010 -0.7283  0.5225
   21MOL   C206 7046   6.230   0.924   4.077 -0.7739  0.5130  0.4880
   21MOL   C207 7047   6.352   0.895   3.985  0.5378  0.5131  0.2183
   21MOL   C208 7048   6.305   0.846   3.847 -0.2449 -0.2453 -0.1989
   21MOL   C209 7049   6.308   0.712   3.811 -0.2806 -0.0132 -0.1978
   21MOL   C210 7050   6.263   0.673   3.686  0.0613 -0.1638 -0.4858
   21MOL   C211 7051   6.212   0.763   3.599 -0.0240  0.1169 -0.0026
   21MOL   C212 7052   6.217   0.903   3.629 -0.2052  0.7360 -0.6392
   21MOL   C213 7053   6.257   0.944   3.754 -0.9252 -0.6625 -0.0299
   21MOL   O214 7054   6.426   0.800   4.062 -0.5278  0.5265 -0.0116
   21MOL   H215 7055   6.171   1.000   4.026 -0.4419  0.0340 -0.6360
   21MOL   H216 7056   6.255   0.959   4.177 -0.3917  1.2826  0.1259
   21MOL   H217 7057   6.411   0.985   3.968 -0.2127  1.0364  0.3877
   21MOL   H218 7058   6.339   0.640   3.885 -0.8572  0.1041  0.1664
   21MOL   H219 7059   6.258   0.570   3.653 -0.1428 -0.3618  0.1531
   21MOL   H220 7060   6.161   0.735   3.508 -0.1689 -1.5045  0.5585
   21MOL   H221 7061   6.171   0.971   3.559 -0.6596  0.1450 -0.9216
   21MOL   H222 7062   6.241   1.046   3.786 -0.8578 -0.7557  0.3042
   21MOL   C223 7063   6.567   0.790   4.021 -0.3829  0.1157  0.2619
   21MOL   C224 7064   6.643   0.669   4.091  0.1662 -0.2765 -0.4280
   21MOL   C225 7065   6.578   0.535   4.050  0.1805  0.3882 -0.0951
   21MOL   C226 7066   6.450   0.495   4.097 -0.2044 -0.3296 -0.1376
   21MOL   C227 7067   6.410   0.363   4.059  0.8434  0.4191  0.0528
   21MOL   C228 7068   6.488   0.284   3.976 -0.4172 -0.4314 -0.1892
   21MOL   C229 7069   6.605   0.338   3.915  0.7705  0.2118 -0.3666
   21MOL   C230 7070   6.647   0.463   3.950 -0.1860 -0.5814  0.0933
   21MOL   O231 7071   6.781   0.683   4.058 -0.4558  0.2465 -0.4734
   21MOL   H232 7072   6.579   0.786   3.912 -2.8152  1.8010 -0.1104
   21MOL   H233 7073   6.618   0.876   4.065  1.4976 -1.6793  1.6887
   21MOL   H234 7074   6.629   0.679   4.199  0.4996 -1.9048 -0.2151
   21MOL   H235 7075   6.399   0.561   4.165  1.1997 -1.7192  2.3501
   21MOL   H236 7076   6.322   0.315   4.098 -0.4660 -0.5109 -3.8368
   21MOL   H237 7077   6.460   0.187   3.940 -0.3344 -1.0496  1.3947
   21MOL   H238 7078   6.663   0.284   3.842 -0.5115 -0.4164 -0.9185
   21MOL   H239 7079   6.738   0.504   3.908 -0.1400 -0.2324  0.5237
   21MOL   C240 7080   6.869   0.624   4.156  0.3089  0.1084 -0.4405
   21MOL   C241 7081   7.012   0.628   4.101 -0.2047 -0.0402  0.2162
   21MOL   C242 7082   7.032   0.537   3.983  0.0211  0.2745  0.7549
   21MOL   C243 7083   7.059   0.401   4.000 -0.2862  0.2506 -0.1990
   21MOL   C244 7084   7.106   0.316   3.897 -0.6123 -1.1598  0.3197
   21MOL   C245 7085   7.115   0.367   3.764  0.4107 -0.3336  0.1755
   21MOL   C246 7086   7.078   0.504   3.740  0.6466 -0.3681 -0.1498
   21MOL   C247 7087   7.045   0.587   3.851 -0.3287 -0.5447  0.4996
   21MOL   O248 7088   7.050   0.761   4.087  0.4674 -0.4722 -0.1064
   21MOL   H249 7089   6.855   0.664   4.257 -1.1579 -2.7500  0.5346
   21MOL   H250 7090   6.836   0.523   4.177 -2.0047  1.1293  1.0166
   21MOL   H251 7091   7.080   0.587   4.176  0.2915 -0.6629 -0.5621
   21MOL   H252 7092   7.063   0.352   4.096  1.2180  0.5835 -0.0732
   21MOL   H253 7093   7.142   0.217   3.921  2.3547 -0.4218 -0.8318
   21MOL   H254 7094   7.147   0.298   3.688 -0.8431 -1.6825  0.8480
   21MOL   H255 7095   7.067   0.541   3.639 -1.3020 -0.5136 -0.0075
   21MOL   H256 7096   7.012   0.689   3.841  0.3764 -0.4134 -0.6071
   21MOL   C257 7097   7.193   0.779   4.099 -0.2091  0.4975 -0.5406
   21MOL   C258 7098   7.232   0.920   4.067  0.0464 -0.5081 -0.0393
   21MOL   C259 7099   7.379   0.919   4.043  0.0605 -0.6627 -0.1854
   21MOL   C260 7100   7.422   0.904   3.911  0.2691  0.4054 -0.1644
   21MOL   C261 7101   7.561   0.923   3.879  0.3906  0.2034 -0.2362
   21MOL   C262 7102   7.650   0.950   3.981  0.0937 -0.0818  0.2712
   21MOL   C263 7103   7.606   0.968   4.114  0.0543  0.1237  0.1091
   21MOL   C264 7104   7.473   0.950   4.143  0.3951 -0.2326 -0.0605
   21MOL   O265 7105   7.201   1.018   4.168  0.3491  0.1707 -0.4404
   21MOL   H266 7106   7.247   0.711   4.033  0.6451 -0.4920  1.1594
   21MOL   H267 7107   7.220   0.756   4.202 -3.9031 -1.5154  0.0443
   21MOL   H268 7108   7.179   0.950   3.977  1.9902  2.3259 -0.3011
   21MOL   H269 7109   7.354   0.876   3.831 -0.0760  0.8624 -0.0298
   21MOL   H270 7110   7.597   0.905   3.779  1.6558 -0.8657  0.4023
   21MOL   H271 7111   7.756   0.941   3.961 -0.0905  1.3775 -1.4054
   21MOL   H272 7112   7.689   0.970   4.182  1.8841 -1.7195 -1.9728
   21MOL   H273 7113   7.432   0.944   4.242  0.4946 -1.5413 -0.0803
   21MOL   C274 7114   7.061   1.036   4.195 -1.7354 -0.1736  0.8911
   21MOL   C275 7115   7.044   1.179   4.243  0.1661  0.2522 -0.1864
   21MOL   C276 7116   7.071   1.193   4.393 -0.2120 -0.3766 -0.3646
   21MOL   C277 7117   6.981   1.264   4.479 -0.2175 -0.4781  0.7406
   21MOL   C278 7118   7.015   1.267   4.620  0.4553 -0.2139  0.2498
   21MOL   C279 7119   7.138   1.209   4.666  0.5180  0.2894 -0.1025
   21MOL   C280 7120   7.232   1.157   4.574  0.1444  0.5009 -1.3035
   21MOL   C281 7121   7.198   1.148   4.441  0.7405 -0.3099  0.1694
   21MOL   O282 7122   6.914   1.229   4.219  0.0348 -0.2020 -0.4596
   21MOL   H283 7123   7.004   1.021   4.104  0.2067 -1.5532 -0.1398
   21MOL   H284 7124   7.016   0.966   4.266 -0.6165  0.9282  2.7398
   21MOL   H285 7125   7.110   1.248   4.190 -2.0804  0.5871 -2.6628
   21MOL   H286 7126   6.881   1.295   4.450  1.3198  0.0516 -4.5146
   21MOL   H287 7127   6.950   1.311   4.694 -0.1057  0.7853 -0.8261
   21MOL   H288 7128   7.154   1.223   4.772 -0.6599  1.0880 -0.0218
   21MOL   H289 7129   7.338   1.141   4.586 -0.1565 -0.3267  0.4141
   21MOL   H290 7130   7.268   1.101   4.374 -0.7538 -2.7415  0.2186
   21MOL   C291 7131   6.877   1.253   4.081 -0.8886 -1.1083  0.1637
   21MOL   C292 7132   6.733   1.320   4.075  0.7151 -0.6604  0.2116
   21MOL   C293 7133   6.723   1.445   4.165 -0.3399  0.5732 -0.4551
   21MOL   C294 7134   6.784   1.566   4.117 -0.6059 -0.4614 -0.3607
   21MOL   C295 7135   6.773   1.675   4.205  0.7228  0.4699  0.1784
   21MOL   C296 7136   6.702   1.661   4.326 -0.0400  0.2627  0.1108
   21MOL   C297 7137   6.647   1.543   4.368  0.5958  0.0775  0.1095
   21MOL   C298 7138   6.673   1.430   4.296  0.3493  0.1732 -0.0298
   21MOL   O299 7139   6.704   1.340   3.931 -0.4825  0.2869 -0.0573
   21MOL   H300 7140   6.883   1.167   4.015  2.7512 -3.2964  3.0988
   21MOL   H301 7141   6.944   1.329   4.041 -2.6009 -1.0124 -2.6408
   21MOL   H302 7142   6.660   1.246   4.108  1.1626 -1.9418 -1.5963
   21MOL   H303 7143   6.827   1.569   4.018 -2.3488 -0.8748 -1.1576
   21MOL   H304 7144   6.805   1.772   4.171  0.2510  0.4251 -0.4087
   21MOL   H305 7145   6.675   1.756   4.370  0.9855 -0.2323  1.8356
   21MOL   H306 7146   6.604   1.547   4.467  0.9876 -2.7680  0.4499
   21MOL   H307 7147   6.627   1.339   4.332 -2.7933  1.7776  0.2322
   21MOL   C308 7148   6.575   1.386   3.910 -0.0898 -0.0108  0.2252
   21MOL   C309 7149   6.563   1.398   3.750 -0.4474  0.0363 -0.6942
   21MOL   C310 7150   6.416   1.406   3.703 -0.5320 -0.0430  0.1174
   21MOL   C311 7151   6.359   1.312   3.612 -0.4943  0.1857 -0.7616
   21MOL   C312 7152   6.228   1.321   3.565 -0.3197  0.0649 -0.2269
   21MOL   C313 7153   6.143   1.420   3.619 -0.1602  0.5573 -0.0728
   21MOL   C314 7154   6.197   1.517   3.710  0.5894  0.1209 -0.3241
   21MOL   C315 7155   6.331   1.507   3.758 -0.1815  0.7368 -0.1439
   21MOL   O316 7156   6.635   1.523   3.719 -0.0593 -0.0990 -0.1680
   21MOL   H317 7157   6.552   1.487   3.944 -1.2323 -0.4519  0.7853
   21MOL   H318 7158   6.511   1.323   3.971 -3.0999  2.2872 -0.4128
   21MOL   H319 7159   6.601   1.308   3.702 -2.6237 -1.6391  0.6430
   21MOL   H320 7160   6.423   1.229   3.585 -0.0495  0.8074 -1.6625
   21MOL   H321 7161   6.202   1.249   3.489  2.0390 -2.1253  0.9649
   21MOL   H322 7162   6.044   1.438   3.580 -1.0564 -0.9422  1.4410
   21MOL   H323 7163   6.138   1.597   3.753  3.0869  2.1714 -0.5980
   21MOL   H324 7164   6.380   1.575   3.826  1.3468 -1.7039  1.2800
   21MOL   C325 7165   6.674   1.537   3.581  0.2498 -0.3814 -0.2099
   21MOL   C326 7166   6.743   1.672   3.557  0.6369 -0.0889  0.2757
   21MOL   C327 7167   6.667   1.794   3.609 -0.2743  0.5883 -0.0641
   21MOL   C328 7168   6.575   1.866   3.524 -0.2166 -0.1120  0.5132
   21MOL   C329 7169   6.499   1.972   3.568 -0.0999  0.5918 -0.3826
   21MOL   C330 7170   6.510   2.014   3.703  0.0458  0.1857 -0.2236
   21MOL   C331 7171   6.598   1.943   3.793  0.0008 -0.7714  0.2241
   21MOL   C332 7172   6.670   1.831   3.747 -0.8785 -0.0244  0.0172
   21MOL   O333 7173   6.864   1.676   3.622  0.1243  0.0141 -0.2444
   21MOL   H334 7174   6.585   1.534   3.519  0.7570 -0.5590 -0.9313
   21MOL   H335 7175   6.738   1.452   3.558  0.8526 -0.1722  0.6728
   21MOL   H336 7176   6.770   1.682   3.451  0.2143  0.4064  0.2177
   21MOL   H337 7177   6.564   1.835   3.421  1.1562  2.0198 -0.3050
   21MOL   H338 7178   6.438   2.028   3.499 -0.6266 -0.9824 -1.2111
   21MOL   H339 7179   6.445   2.094   3.733 -1.5321 -1.3521  0.5123
   21MOL   H340 7180   6.594   1.980   3.895 -1.0480  2.4302 -0.9170
   21MOL   H341 7181   6.727   1.775   3.820 -0.7465  1.2384  0.9078
   21MOL   H342 7182   6.846   1.677   3.714 -1.1891  0.3684 -0.4942
   22MOL     C1 7183   0.592   7.709   3.184  0.1498 -0.0970  0.1156
   22MOL     C2 7184   0.683   7.763   3.288  0.1473 -0.1211 -0.1272
   22MOL     C3 7185   0.605   7.860   3.381 -0.0716  0.1856  0.0331
   22MOL     C4 7186   0.543   7.966   3.326  0.8571  0.7825 -0.4172
   22MOL     C5 7187   0.472   8.061   3.397 -0.7072 -0.1713 -0.3726
   22MOL     C6 7188   0.462   8.035   3.533 -0.5385  0.4406  0.5691
   22MOL     C7 7189   0.521   7.924   3.594  0.1138  0.7904 -0.2811
   22MOL     C8 7190   0.602   7.841   3.519 -0.1295  0.9216 -0.2659
   22MOL     O9 7191   0.791   7.833   3.224  0.2512  0.4405 -0.4281
   22MOL    H10 7192   0.515   7.653   3.238 -0.2669  1.9460  1.7379
   22MOL    H11 7193   0.543   7.780   3.117  1.0530 -0.7611 -1.2554
   22MOL    H12 7194   0.717   7.678   3.347 -1.2234 -0.9238 -0.4889
   22MOL    H13 7195   0.552   7.982   3.220 -0.9467 -0.8686 -0.8459
   22MOL    H14 7196   0.437   0.065   3.338 -0.5362 -0.7418 -1.2936
   22MOL    H15 7197   0.421   0.028   3.602  1.5141 -0.0525  2.3788
   22MOL    H16 7198   0.520   7.921   3.702 -2.7415 -2.8607 -0.3102
   22MOL    H17 7199   0.663   7.761   3.558 -0.8035  1.1729  1.3320
   22MOL    H18 7200   0.645   7.639   3.120  1.4995 -1.2900  2.4888
   22MOL    C19 7201   0.899   7.857   3.306  0.1738  0.3800 -0.5469
   22MOL    C20 7202   1.001   7.953   3.245  0.2801  0.8081  0.2814
   22MOL    C21 7203   0.931   8.076   3.197  0.4300  0.3630  0.1377
   22MOL    C22 7204   0.886   8.074   3.062 -0.3187  0.2446  0.3466
   22MOL    C23 7205   0.829   0.116   3.018  0.0911 -0.3071  0.4187
   22MOL    C24 7206   0.835   0.235   3.097  0.9154  0.8024  0.5499
   22MOL    C25 7207   0.886   0.233   3.227 -0.4571  0.5617 -0.1493
   22MOL    C26 7208   0.933   0.110   3.278  0.6154 -0.5663 -0.5282
   22MOL    O27 7209   1.072   7.887   3.143 -0.2929  0.8117  0.8229
   22MOL    H28 7210   0.869   7.907   3.398  0.0798  1.3770 -1.1020
   22MOL    H29 7211   0.940   7.761   3.334  0.5338  0.4409 -0.8670
   22MOL    H30 7212   1.076   7.976   3.321  0.4629 -0.5141  0.5198
   22MOL    H31 7213   0.877   7.985   3.003  2.2248  0.2092 -0.0420
   22MOL    H32 7214   0.794   0.124   2.916 -0.5563  0.1604  0.6751
   22MOL    H33 7215   0.796   0.319   3.043  1.3166  0.6934  0.0905
   22MOL    H34 7216   0.876   0.316   3.294 -3.3079  1.3830 -1.5432
   22MOL    H35 7217   0.959   0.105   3.382 -0.5064 -0.8485 -0.2560
   22MOL    C36 7218   1.206   7.927   3.121  0.2061 -0.2092  0.4539
   22MOL    C37 7219   1.291   7.842   3.027 -0.2745  0.2717  0.3882
   22MOL    C38 7220   1.258   7.854   2.877  0.2810  0.7259  0.4565
   22MOL    C39 7221   1.332   7.783   2.785 -0.9473  0.0921  0.0303
   22MOL    C40 7222   1.305   7.781   2.643 -0.4268  0.0991 -0.0671
   22MOL    C41 7223   1.194   7.848   2.597 -0.1775 -0.6859 -0.1696
   22MOL    C42 7224   1.119   7.924   2.687 -0.1093  0.0474  0.0802
   22MOL    C43 7225   1.154   7.933   2.826  0.6357  0.4655 -0.4030
   22MOL    O44 7226   1.323   7.712   3.074  0.3435 -0.3764  0.0166
   22MOL    H45 7227   1.204   8.030   3.086  1.7088 -0.2165  0.3087
   22MOL    H46 7228   1.257   7.926   3.217  3.3058  0.3923 -1.1064
   22MOL    H47 7229   1.382   7.901   3.018 -1.0329  1.7241  2.1040
   22MOL    H48 7230   1.410   7.720   2.826  0.8985  0.3766 -2.9634
   22MOL    H49 7231   1.380   7.727   2.587 -2.2095 -2.1500 -0.3316
   22MOL    H50 7232   1.170   7.841   2.492  2.3996  1.1541 -0.9370
   22MOL    H51 7233   1.039   7.985   2.650 -0.4976  1.3768  2.9478
   22MOL    H52 7234   1.089   7.992   2.888 -0.9655 -0.6290 -0.9933
   22MOL    C53 7235   1.223   7.615   3.058 -0.0693  0.0300  0.8475
   22MOL    C54 7236   1.267   7.478   3.127 -0.1854 -0.2833  0.3661
   22MOL    C55 7237   1.241   7.458   3.276 -1.2974  0.3830  1.2915
   22MOL    C56 7238   1.284   7.338   3.336  0.2940  0.0533 -0.3499
   22MOL    C57 7239   1.262   7.319   3.475 -0.3998 -0.3671 -0.2198
   22MOL    C58 7240   1.192   7.411   3.549  0.6630 -0.1915  0.3472
   22MOL    C59 7241   1.142   7.527   3.482 -0.2232 -0.4021 -0.2233
   22MOL    C60 7242   1.171   7.560   3.349 -0.1989  0.1408 -0.2563
   22MOL    O61 7243   1.208   7.375   3.052  0.6045  0.2185 -0.3472
   22MOL    H62 7244   1.131   7.651   3.105  0.6989  1.7552  1.0612
   22MOL    H63 7245   1.221   7.599   2.950 -1.7421  1.0044  0.7116
   22MOL    H64 7246   1.375   7.482   3.113 -0.2395  0.7114  0.1588
   22MOL    H65 7247   1.331   7.277   3.261  3.1714 -0.1944  1.5613
   22MOL    H66 7248   1.298   7.229   3.521 -2.2697  0.1153  2.3242
   22MOL    H67 7249   1.168   7.398   3.654 -0.5339  1.3509  0.2897
   22MOL    H68 7250   1.094   7.604   3.539  1.3474  1.9853 -2.0506
   22MOL    H69 7251   1.143   7.658   3.314  4.1975  2.0799  1.1665
   22MOL    C70 7252   1.278   7.329   2.933  0.0519 -0.2739 -0.1953
   22MOL    C71 7253   1.173   7.310   2.817 -0.3690 -0.4089  0.2776
   22MOL    C72 7254   1.214   7.201   2.727 -0.7203 -0.8469 -0.8439
   22MOL    C73 7255   1.162   7.071   2.749  0.5460  0.0100 -0.4117
   22MOL    C74 7256   1.200   6.973   2.656  0.4610 -0.4076  0.3005
   22MOL    C75 7257   1.289   7.001   2.550  0.5442 -0.0638 -0.2181
   22MOL    C76 7258   1.339   7.131   2.539  0.5034 -0.1227 -0.5269
   22MOL    C77 7259   1.296   7.232   2.620 -0.5791 -0.6827 -0.9011
   22MOL    O78 7260   1.152   7.437   2.746 -0.0181  0.4859  0.1809
   22MOL    H79 7261   1.362   7.390   2.899  0.4462 -1.2746 -1.0388
   22MOL    H80 7262   1.336   7.240   2.957 -1.0636 -0.8112  0.5627
   22MOL    H81 7263   1.077   7.283   2.863 -0.7098  2.3586  1.3018
   22MOL    H82 7264   1.095   7.050   2.831  1.6832  1.2015  0.8432
   22MOL    H83 7265   1.166   6.871   2.664 -0.5961 -0.1487 -0.7925
   22MOL    H84 7266   1.330   6.924   2.485 -0.9901 -1.2914  0.2420
   22MOL    H85 7267   1.411   7.154   2.463 -1.1514 -1.1846 -2.4777
   22MOL    H86 7268   1.337   7.332   2.615  0.0148 -0.6659  2.7893
   22MOL    C87 7269   1.038   7.505   2.788  0.7064 -0.2536 -0.2631
   22MOL    C88 7270   0.933   7.505   2.678  0.3966 -0.1606 -0.5268
   22MOL    C89 7271   0.811   7.581   2.731 -0.0728  0.2039 -0.0687
   22MOL    C90 7272   0.810   7.721   2.722  0.3929  0.5380  0.3710
   22MOL    C91 7273   0.704   7.788   2.783 -0.4992  1.2466 -0.0807
   22MOL    C92 7274   0.598   7.723   2.845 -0.3196  0.2912 -0.0307
   22MOL    C93 7275   0.608   7.581   2.863 -0.0542 -0.0571  0.3201
   22MOL    C94 7276   0.711   7.514   2.801 -0.0886  0.2566 -0.0861
   22MOL    O95 7277   0.898   7.373   2.643 -0.0007 -0.3378  0.2948
   22MOL    H96 7278   1.059   7.610   2.809 -3.4519  0.5611  0.1162
   22MOL    H97 7279   1.005   7.471   2.886 -0.1974  0.9823 -0.1272
   22MOL    H98 7280   0.970   7.550   2.587 -0.2742  0.5859 -0.4393
   22MOL    H99 7281   0.889   7.763   2.662 -0.2342  0.1586 -0.7276
   22MOL   H100 7282   0.698   7.896   2.780  0.9231  1.3372  0.2131
   22MOL   H101 7283   0.521   7.790   2.879  0.7051  1.7731 -0.6135
   22MOL   H102 7284   0.521   7.529   2.898 -0.9403  0.0725 -1.5936
   22MOL   H103 7285   0.723   7.407   2.812 -3.5498 -0.2384 -0.8018
   22MOL   C104 7286   0.808   7.363   2.533 -0.1446 -0.3761 -0.3366
   22MOL   C105 7287   0.781   7.219   2.502  0.6064  0.7242 -0.2653
   22MOL   C106 7288   0.680   7.153   2.593 -0.8037  0.5162  0.2228
   22MOL   C107 7289   0.715   7.101   2.720 -0.6317  0.1030 -0.4732
   22MOL   C108 7290   0.612   7.048   2.807  0.3293  0.3655  0.4705
   22MOL   C109 7291   0.476   7.045   2.767 -0.3610  0.7148 -0.0719
   22MOL   C110 7292   0.441   7.113   2.643  0.0769 -0.6221  0.3868
   22MOL   C111 7293   0.546   7.161   2.558 -0.3452  0.9548 -0.3218
   22MOL   O112 7294   0.753   7.210   2.365 -0.2365 -0.6258 -0.0136
   22MOL   H113 7295   0.710   7.406   2.552  0.4855  0.4761  1.0558
   22MOL   H114 7296   0.859   7.410   2.449  0.7967  0.1003  0.4916
   22MOL   H115 7297   0.875   7.165   2.512  0.4564  0.4412 -0.4052
   22MOL   H116 7298   0.814   7.087   2.759 -0.9583  0.9160  0.6603
   22MOL   H117 7299   0.646   7.004   2.899 -1.4423 -1.7270  0.1843
   22MOL   H118 7300   0.398   7.017   2.836  0.2688 -1.8873 -0.3554
   22MOL   H119 7301   0.337   7.132   2.621 -0.0147 -3.2212 -1.7737
   22MOL   H120 7302   0.527   7.216   2.468 -3.0380  0.2025 -0.2481
   22MOL   C121 7303   0.744   7.084   2.309  0.1752 -0.6339  0.1127
   22MOL   C122 7304   0.652   7.095   2.178  0.7504 -0.2237 -0.1999
   22MOL   C123 7305   0.504   7.120   2.228 -0.3617  0.1092  0.2481
   22MOL   C124 7306   0.445   7.021   2.311 -0.1977 -0.0704  0.7568
   22MOL   C125 7307   0.310   7.029   2.351  0.1564  0.0211  0.6291
   22MOL   C126 7308   0.237   7.143   2.313 -0.3454 -0.8028 -0.6414
   22MOL   C127 7309   0.288   7.245   2.229  0.8773  0.1566 -0.2335
   22MOL   C128 7310   0.430   7.240   2.199 -0.2715  0.0121  0.3961
   22MOL   O129 7311   0.706   7.189   2.089  0.5167 -0.1858  0.5388
   22MOL   H130 7312   0.710   7.015   2.386  2.2810 -0.7161  1.0212
   22MOL   H131 7313   0.846   7.058   2.283  0.3580 -1.4649  1.5879
   22MOL   H132 7314   0.665   6.997   2.133  1.8630  0.7231 -1.9922
   22MOL   H133 7315   0.499   6.931   2.335 -2.6441 -1.8913 -0.3715
   22MOL   H134 7316   0.273   6.954   2.419 -0.4143  0.4231  0.7645
   22MOL   H135 7317   0.132   7.144   2.339 -0.8493 -0.9063 -2.5969
   22MOL   H136 7318   0.239   7.339   2.211  1.9926  0.7308 -0.3375
   22MOL   H137 7319   0.466   7.318   2.135 -1.1180  1.0223  1.1323
   22MOL   C138 7320   0.652   7.190   1.952  0.5769  0.7711  0.0488
   22MOL   C139 7321   0.717   7.315   1.880 -0.1743  0.5207 -0.8426
   22MOL   C140 7322   0.725   7.288   1.731 -0.5786  0.0053  0.1136
   22MOL   C141 7323   0.663   7.372   1.640 -0.5431  0.0030  0.1138
   22MOL   C142 7324   0.678   7.345   1.499  0.5566  0.1794 -1.1506
   22MOL   C143 7325   0.735   7.225   1.460 -0.3712  0.5857  0.2612
   22MOL   C144 7326   0.792   7.137   1.557  0.1788  0.0366 -0.2693
   22MOL   C145 7327   0.796   7.176   1.691  0.5098 -0.1629 -0.5794
   22MOL   O146 7328   0.634   7.427   1.911  0.2402 -0.1818  0.3183
   22MOL   H147 7329   0.544   7.206   1.959  0.4208 -0.4102  0.4950
   22MOL   H148 7330   0.675   7.099   1.898  0.6996  0.4575  0.6237
   22MOL   H149 7331   0.819   7.326   1.916 -0.0142  0.2235 -1.2010
   22MOL   H150 7332   0.607   7.459   1.672 -0.8753  0.0036 -0.4621
   22MOL   H151 7333   0.633   7.410   1.424  0.9370  0.2978 -1.2791
   22MOL   H152 7334   0.732   7.189   1.358 -1.6922 -0.5063  0.6688
   22MOL   H153 7335   0.841   7.044   1.530  2.5875  1.5428 -1.2910
   22MOL   H154 7336   0.835   7.112   1.769 -1.3150  0.2010  0.6746
   22MOL   C155 7337   0.702   7.526   1.988 -0.0258 -0.4288 -0.1522
   22MOL   C156 7338   0.604   7.623   2.054  0.4874 -0.5453  0.0369
   22MOL   C157 7339   0.672   7.719   2.148  0.3986 -0.4527  0.1618
   22MOL   C158 7340   0.686   7.859   2.118  0.5713 -0.2945  0.1522
   22MOL   C159 7341   0.734   7.946   2.216 -0.4504 -0.5465  0.1476
   22MOL   C160 7342   0.803   7.885   2.328  0.4632 -0.2931 -0.1877
   22MOL   C161 7343   0.801   7.749   2.347  0.0496 -0.1482 -0.0280
   22MOL   C162 7344   0.735   7.662   2.261  0.1855  0.0457 -0.2281
   22MOL   O163 7345   0.533   7.690   1.952 -0.1882 -0.2122  0.3424
   22MOL   H164 7346   0.760   7.587   1.918 -2.2237  0.7200 -1.0331
   22MOL   H165 7347   0.757   7.479   2.070  1.7233 -0.3345 -1.2296
   22MOL   H166 7348   0.537   7.566   2.117  0.6645 -0.9368 -0.1270
   22MOL   H167 7349   0.641   7.904   2.031 -0.7619 -0.8127  0.5502
   22MOL   H168 7350   0.737   8.054   2.212  1.0075 -0.5048  1.5938
   22MOL   H169 7351   0.842   7.945   2.409 -2.0070 -0.3640  1.0863
   22MOL   H170 7352   0.845   7.714   2.440 -0.7974  1.3074  0.9395
   22MOL   H171 7353   0.730   7.556   2.282  0.4581 -0.1682 -1.2223
   22MOL   C172 7354   0.412   7.760   1.992  0.4261 -0.6440  0.2509
   22MOL   C173 7355   0.360   7.838   1.868  0.1745 -0.9786  0.6639
   22MOL   C174 7356   0.318   7.752   1.753  0.9368  0.2154 -0.4842
   22MOL   C175 7357   0.185   7.703   1.756  0.0936  0.0456  0.7150
   22MOL   C176 7358   0.138   7.642   1.636 -0.0181 -1.0187 -0.0114
   22MOL   C177 7359   0.217   7.636   1.522 -0.1348 -0.1915 -0.0735
   22MOL   C178 7360   0.348   7.673   1.527  0.0777  0.2751 -0.0814
   22MOL   C179 7361   0.405   7.731   1.640  0.1001  0.2129 -0.6789
   22MOL   O180 7362   0.462   7.939   1.846 -0.2498 -0.0841  0.4457
   22MOL   H181 7363   0.345   7.678   2.019  0.1298 -0.2269  0.8004
   22MOL   H182 7364   0.420   7.835   2.071  2.3272  1.2363 -1.6699
   22MOL   H183 7365   0.271   7.884   1.910  1.0562  1.1355  0.2606
   22MOL   H184 7366   0.129   7.727   1.845 -0.5538  0.1511  0.2841
   22MOL   H185 7367   0.040   7.598   1.625 -1.5890  1.9652  1.4164
   22MOL   H186 7368   0.178   7.593   1.432  1.8020  0.5914 -1.3173
   22MOL   H187 7369   0.408   7.655   1.439 -1.1113  0.6159 -0.9774
   22MOL   H188 7370   0.509   7.761   1.644 -0.1012  0.7977  0.5594
   22MOL   C189 7371   0.419   8.049   1.765 -0.2623  0.5338 -0.1798
   22MOL   C190 7372   0.339   0.072   1.840  0.3860 -0.0678 -0.0049
   22MOL   C191 7373   0.413   0.110   1.964  0.4785  0.4097  0.4023
   22MOL   C192 7374   0.381   0.054   2.093  0.5567 -0.3367 -0.0088
   22MOL   C193 7375   0.459   0.087   2.209  0.1698  0.0625 -0.0090
   22MOL   C194 7376   0.558   0.186   2.200  0.6952 -0.1600  0.1960
   22MOL   C195 7377   0.591   0.246   2.075  0.5381 -0.6816 -0.3495
   22MOL   C196 7378   0.525   0.200   1.959  0.4407 -0.2287 -0.0102
   22MOL   O197 7379   0.203   0.026   1.872 -0.0530  0.4004  0.2471
   22MOL   H198 7380   0.519   0.002   1.736 -0.6486  0.5530 -1.5495
   22MOL   H199 7381   0.379   8.012   1.670 -1.0526  1.7250 -0.3125
   22MOL   H200 7382   0.326   0.163   1.780 -0.6186  0.3795  0.8633
   22MOL   H201 7383   0.309   8.053   2.099 -2.3122  2.1987  0.5119
   22MOL   H202 7384   0.440   0.051   2.308  1.7429 -0.4312  0.1268
   22MOL   H203 7385   0.622   0.219   2.281 -0.7951  0.2127  1.2472
   22MOL   H204 7386   0.666   0.323   2.069  0.4171 -0.5797 -0.6146
   22MOL   H205 7387   0.557   0.242   1.865 -0.5977  1.3112  0.3111
   22MOL   C206 7388   0.116   0.046   1.758 -0.7478 -0.5313 -0.2662
   22MOL   C207 7389   8.058   8.074   1.792  0.4086 -0.2336 -0.1289
   22MOL   C208 7390   7.979   8.053   1.660 -0.4973 -0.4500 -1.1166
   22MOL   C209 7391   7.914   0.091   1.610  0.6537 -0.4546  0.3129
   22MOL   C210 7392   7.816   0.085   1.509 -0.5627  0.1415 -0.1827
   22MOL   C211 7393   7.797   8.038   1.453 -1.0858  0.3287  0.8013
   22MOL   C212 7394   7.871   7.921   1.499  0.4129  0.5411 -0.1496
   22MOL   C213 7395   7.960   7.930   1.604 -0.2185  0.1483 -1.1268
   22MOL   O214 7396   7.993   0.089   1.880 -0.6375 -0.0203 -0.6232
   22MOL   H215 7397   0.118   0.144   1.710 -0.4815 -0.9083 -1.0318
   22MOL   H216 7398   0.165   8.057   1.689 -1.0932 -2.1525  1.0585
   22MOL   H217 7399   0.008   7.987   1.850  0.1209  0.6024  1.2965
   22MOL   H218 7400   7.934   0.184   1.661 -1.1844 -0.2165  0.6646
   22MOL   H219 7401   7.764   0.172   1.471  0.3910  0.6292 -0.3643
   22MOL   H220 7402   7.734   8.044   1.365 -0.2154 -2.9665 -0.0943
   22MOL   H221 7403   7.851   7.828   1.447 -0.5490  1.7148 -1.9522
   22MOL   H222 7404   8.006   7.853   1.665 -1.2839  0.2278 -0.2002
   22MOL   C223 7405   7.883   0.034   1.949  0.4661 -0.2958 -0.0792
   22MOL   C224 7406   7.849   0.112   2.071  0.4338  0.2617  0.2690
   22MOL   C225 7407   7.698   0.099   2.100 -0.1583  0.0504  0.4392
   22MOL   C226 7408   7.627   0.223   2.121  0.1206 -0.1508  0.0637
   22MOL   C227 7409   7.487   0.215   2.141 -0.1655 -0.2983  0.1560
   22MOL   C228 7410   7.420   0.094   2.155  0.5864  0.7507 -0.4054
   22MOL   C229 7411   7.489   8.056   2.147 -0.0680  0.2812  0.0924
   22MOL   C230 7412   7.622   8.055   2.110  0.2486  0.6672 -0.4847
   22MOL   O231 7413   7.922   0.062   2.185  0.0988 -0.2704  0.6661
   22MOL   H232 7414   7.805   0.031   1.872  1.4080  1.5985 -1.1445
   22MOL   H233 7415   7.905   8.012   1.981  0.1468 -0.9940 -1.9998
   22MOL   H234 7416   7.858   0.219   2.053  0.5264  0.2891  0.4702
   22MOL   H235 7417   7.676   0.318   2.128 -3.6089  1.9973 -1.2679
   22MOL   H236 7418   7.430   0.306   2.156 -0.0451 -0.1956 -0.0128
   22MOL   H237 7419   7.314   0.095   2.175  0.3697  2.2810 -1.5241
   22MOL   H238 7420   7.444   7.961   2.173 -1.4882  0.7710 -0.5009
   22MOL   H239 7421   7.675   7.961   2.105 -2.5912 -0.9949 -0.3321
   22MOL   C240 7422   8.054   0.104   2.182 -0.8371  0.5717  0.0196
   22MOL   C241 7423   0.056   0.052   2.296 -0.9054 -0.7392 -0.3981
   22MOL   C242 7424   0.012   0.115   2.427 -0.0525 -0.2204  0.2396
   22MOL   C243 7425   7.980   0.067   2.493 -0.1434  1.0162  0.0676
   22MOL   C244 7426   7.950   0.114   2.624  0.0428 -0.8621 -0.7078
   22MOL   C245 7427   8.013   0.229   2.669 -0.2594 -0.4643 -0.4682
   22MOL   C246 7428   0.037   0.281   2.597  0.1171 -0.0710 -0.2318
   22MOL   C247 7429   0.079   0.226   2.478 -0.4236  0.3920 -0.0320
   22MOL   O248 7430   0.034   7.996   2.302 -0.1048 -0.4895 -0.0726
   22MOL   H249 7431   0.019   0.066   2.090  0.5067 -0.2790  1.0244
   22MOL   H250 7432   8.060   0.213   2.185 -0.4923  0.5663 -0.4022
   22MOL   H251 7433   0.162   0.072   2.280 -1.5540  2.8763 -0.6378
   22MOL   H252 7434   7.922   8.063   2.459  1.9971 -0.7929  0.8028
   22MOL   H253 7435   7.870   0.078   2.688 -1.4186  0.5493 -1.7001
   22MOL   H254 7436   7.982   0.261   2.767 -0.7494 -0.2555 -0.6892
   22MOL   H255 7437   0.091   0.359   2.649  1.3036 -0.3055 -1.0774
   22MOL   H256 7438   0.166   0.271   2.432  0.7539  0.2630  1.9944
   22MOL   C257 7439   0.129   7.920   2.369 -0.2862 -0.4930  0.0635
   22MOL   C258 7440   0.096   7.772   2.359 -0.0126  0.1728  0.1481
   22MOL   C259 7441   0.200   7.679   2.426 -0.6540  0.1295 -0.3525
   22MOL   C260 7442   0.321   7.641   2.367  0.0019 -0.1234  0.2244
   22MOL   C261 7443   0.422   7.576   2.435  0.0709  0.0802  0.1063
   22MOL   C262 7444   0.399   7.528   2.568 -0.4361 -0.8946  0.5473
   22MOL   C263 7445   0.279   7.561   2.631  0.0423  0.2268 -0.1459
   22MOL   C264 7446   0.184   7.643   2.567  0.3248 -0.2182 -0.2414
   22MOL   O265 7447   0.094   7.735   2.225  1.3094  0.4910 -0.5719
   22MOL   H266 7448   0.123   7.946   2.474 -4.0275  1.3177 -0.5163
   22MOL   H267 7449   0.227   7.939   2.324 -0.2724 -1.4115 -0.3029
   22MOL   H268 7450   8.077   7.754   2.401  0.0935 -0.0679  0.2936
   22MOL   H269 7451   0.338   7.682   2.268 -1.7373 -0.2307 -0.1412
   22MOL   H270 7452   0.522   7.572   2.395  0.8498  1.4995  1.8431
   22MOL   H271 7453   0.476   7.474   2.620 -2.5601 -1.3329  3.3395
   22MOL   H272 7454   0.262   7.539   2.736 -0.0598 -1.2637 -0.4656
   22MOL   H273 7455   0.094   7.666   2.621  1.0298 -1.3179  1.4654
   22MOL   C274 7456   8.058   7.765   2.148 -0.3924 -0.0088 -0.4313
   22MOL   C275 7457   7.992   7.639   2.098 -0.2426 -0.0510 -0.3659
   22MOL   C276 7458   7.875   7.669   2.005  0.1570  0.1782 -0.3628
   22MOL   C277 7459   7.888   7.625   1.874 -0.6532 -0.5860  0.8360
   22MOL   C278 7460   7.794   7.663   1.777  0.1689 -0.0824 -1.1233
   22MOL   C279 7461   7.674   7.724   1.820 -0.0461  0.0931 -0.7446
   22MOL   C280 7462   7.647   7.754   1.954 -0.0361 -0.5395 -0.0711
   22MOL   C281 7463   7.750   7.720   2.049  0.2588  0.4078 -0.1057
   22MOL   O282 7464   7.938   7.578   2.215 -0.0187  0.2402  0.1400
   22MOL   H283 7465   7.979   7.810   2.209 -0.8246 -0.8662 -0.3489
   22MOL   H284 7466   0.019   7.835   2.076  0.6288  1.3752  1.4463
   22MOL   H285 7467   8.067   7.574   2.053 -1.6054 -1.9296  0.0141
   22MOL   H286 7468   7.982   7.576   1.849 -0.0944  0.8705  0.0398
   22MOL   H287 7469   7.797   7.646   1.671 -2.7419 -2.2779 -0.9245
   22MOL   H288 7470   7.596   7.728   1.746  1.2938 -0.7589 -2.2292
   22MOL   H289 7471   7.550   7.788   1.988  0.8246  0.3246  1.6094
   22MOL   H290 7472   7.733   7.746   2.153 -0.2027  0.2457 -0.1422
   22MOL   C291 7473   7.994   7.452   2.252 -0.2601 -0.1461 -0.4167
   22MOL   C292 7474   7.958   7.414   2.399 -0.2355  0.5112 -0.7759
   22MOL   C293 7475   7.815   7.387   2.413  0.2419  0.0447 -1.0081
   22MOL   C294 7476   7.765   7.259   2.406  0.1719  0.8228 -0.8633
   22MOL   C295 7477   7.629   7.245   2.408  0.0297 -0.2066  0.5133
   22MOL   C296 7478   7.540   7.353   2.409  0.5197  0.6435 -0.2521
   22MOL   C297 7479   7.587   7.480   2.423 -0.3254 -0.2735  0.9994
   22MOL   C298 7480   7.727   7.497   2.424  0.5238 -0.3917  0.0859
   22MOL   O299 7481   8.029   7.296   2.412 -0.4170  0.1240  0.3119
   22MOL   H300 7482   0.022   7.466   2.259 -0.3665 -0.1916  1.6674
   22MOL   H301 7483   7.958   7.374   2.186 -1.7736 -1.4147  1.8319
   22MOL   H302 7484   7.981   7.503   2.457  0.7970  0.6559 -1.3960
   22MOL   H303 7485   7.831   7.176   2.386 -0.4764  0.2443 -0.6426
   22MOL   H304 7486   7.589   7.145   2.396 -2.1740  0.8557 -1.3824
   22MOL   H305 7487   7.433   7.347   2.396  0.2873  0.6640  1.4427
   22MOL   H306 7488   7.522   7.566   2.426 -1.5325 -1.1661  1.0477
   22MOL   H307 7489   7.765   7.597   2.435  0.1853 -0.2480 -0.0486
   22MOL   C308 7490   0.025   7.292   2.536 -0.2984  0.0341 -0.2864
   22MOL   C309 7491   8.029   7.276   2.670  0.0819 -0.5851  0.9094
   22MOL   C310 7492   0.028   7.220   2.788 -0.5250  0.5044  0.0766
   22MOL   C311 7493   0.119   7.301   2.862 -0.3873  0.0771  0.2869
   22MOL   C312 7494   0.191   7.241   2.966 -0.3744 -0.9079  0.3624
   22MOL   C313 7495   0.161   7.111   3.009  0.1893  0.2132 -0.9138
   22MOL   C314 7496   0.071   7.028   2.934 -0.3512 -0.0021  0.4306
   22MOL   C315 7497   0.005   7.086   2.820 -0.0334  1.1869  0.9882
   22MOL   O316 7498   7.982   7.409   2.712 -0.2784 -0.2006 -0.2932
   22MOL   H317 7499   0.099   7.372   2.532 -0.5031  0.2008 -0.7682
   22MOL   H318 7500   0.098   7.211   2.530 -0.8184 -0.4181 -0.4772
   22MOL   H319 7501   7.945   7.211   2.644 -0.1810  0.0855  0.0528
   22MOL   H320 7502   0.127   7.406   2.838 -0.8046 -0.2234 -1.1873
   22MOL   H321 7503   0.261   7.305   3.017 -1.5258  2.4588 -2.0604
   22MOL   H322 7504   0.222   7.066   3.087 -0.8311 -0.7283 -0.6435
   22MOL   H323 7505   0.057   6.925   2.961  1.0289 -0.1084  0.7977
   22MOL   H324 7506   8.018   7.030   2.757  0.8944  1.4837 -0.2715
   22MOL   C325 7507   7.897   7.389   2.826 -0.3693 -0.6718 -0.5330
   22MOL   C326 7508   7.815   7.516   2.845 -0.3340 -0.0847 -0.4715
   22MOL   C327 7509   7.899   7.644   2.838  0.0339  0.4005  0.4675
   22MOL   C328 7510   7.935   7.701   2.959 -0.9824  0.6353 -0.0219
   22MOL   C329 7511   8.007   7.821   2.960  0.1908 -0.7954  0.1145
   22MOL   C330 7512   8.034   7.881   2.839  0.1428 -0.1189  0.0291
   22MOL   C331 7513   7.985   7.830   2.716 -0.9973  0.0727  0.0676
   22MOL   C332 7514   7.921   7.705   2.712 -0.6738  0.3433  0.5834
   22MOL   O333 7515   7.718   7.503   2.740 -0.0027  0.0614  0.0112
   22MOL   H334 7516   7.958   7.396   2.916  1.9014 -0.7305 -2.0550
   22MOL   H335 7517   7.832   7.301   2.827 -0.3956 -0.6744  2.2617
   22MOL   H336 7518   7.762   7.511   2.939 -0.4729  1.8110 -0.4322
   22MOL   H337 7519   7.903   7.663   3.055 -1.1084  0.5449 -0.0999
   22MOL   H338 7520   8.037   7.866   3.053 -1.3411 -0.1749  0.3111
   22MOL   H339 7521   8.077   7.980   2.840 -2.3960  1.0053  0.3350
   22MOL   H340 7522   8.007   7.879   2.622  2.6813  2.0004  1.8457
   22MOL   H341 7523   7.893   7.659   2.619  1.8911 -2.1431  0.9700
   22MOL   H342 7524   7.769   7.469   2.669  1.4512 -1.3154  1.6515
   23MOL     C1 7525   5.582   5.122   7.412 -0.0085  0.2349 -0.4820
   23MOL     C2 7526   5.558   5.159   7.267  0.3606 -0.2645 -0.0223
   23MOL     C3 7527   5.437   5.252   7.269 -0.5137  0.3042 -0.8075
   23MOL     C4 7528   5.309   5.196   7.280  0.1733  0.6431  0.0814
   23MOL     C5 7529   5.194   5.273   7.302  0.2541 -0.6518 -0.4500
   23MOL     C6 7530   5.207   5.415   7.308 -0.5462 -0.4400 -0.1550
   23MOL     C7 7531   5.334   5.472   7.299 -0.2938  0.7641 -0.3286
   23MOL     C8 7532   5.449   5.391   7.282 -0.4677 -0.1853  0.0735
   23MOL     O9 7533   5.551   5.040   7.186 -0.6583 -0.0689  0.3473
   23MOL    H10 7534   5.616   5.213   7.463  1.9822 -0.9276  0.3000
   23MOL    H11 7535   5.491   5.075   7.447  0.0580  1.3887  1.2911
   23MOL    H12 7536   5.649   5.211   7.237 -0.2702  3.2848  3.7272
   23MOL    H13 7537   5.314   5.089   7.294  0.2780  0.2491 -2.7658
   23MOL    H14 7538   5.095   5.232   7.318  0.9419 -1.6727  1.2793
   23MOL    H15 7539   5.121   5.481   7.305 -1.5518 -1.7863 -1.6356
   23MOL    H16 7540   5.351   5.579   7.303  1.0259  0.6216 -1.7470
   23MOL    H17 7541   5.548   5.434   7.273  0.4008 -1.8218  1.4544
   23MOL    H18 7542   5.667   5.056   7.424  0.0252  0.6776  2.0173
   23MOL    C19 7543   5.534   5.054   7.045  0.3377 -0.0200  0.0755
   23MOL    C20 7544   5.600   4.938   6.959 -0.2617 -0.6385  0.0493
   23MOL    C21 7545   5.602   4.987   6.818  0.5068 -0.4026  0.4177
   23MOL    C22 7546   5.487   4.971   6.736  0.1397  0.5894  0.5645
   23MOL    C23 7547   5.493   5.002   6.601 -0.1919 -0.3691 -0.2350
   23MOL    C24 7548   5.608   5.060   6.541  1.0113 -0.8110 -0.6114
   23MOL    C25 7549   5.721   5.076   6.625  0.2566 -0.3665 -0.7175
   23MOL    C26 7550   5.720   5.039   6.759  0.0908  0.1333 -0.0667
   23MOL    O27 7551   5.526   4.816   6.962 -0.7552  0.6380  0.2439
   23MOL    H28 7552   5.430   5.064   7.016  0.4639  0.6837 -0.1402
   23MOL    H29 7553   5.582   5.141   6.999 -1.8222  1.3614  0.3898
   23MOL    H30 7554   5.702   4.934   6.996  0.0735  0.0930 -0.7856
   23MOL    H31 7555   5.397   4.926   6.775 -0.3892  0.5888 -0.6542
   23MOL    H32 7556   5.406   4.980   6.542 -2.6065  1.7447  2.4326
   23MOL    H33 7557   5.611   5.090   6.437  1.8906  0.2252 -0.2890
   23MOL    H34 7558   5.807   5.116   6.574  0.1034  0.9253  0.0063
   23MOL    H35 7559   5.809   5.043   6.820 -0.5771 -0.6349  0.9687
   23MOL    C36 7560   5.541   4.742   7.077  0.3010 -0.1343 -0.1467
   23MOL    C37 7561   5.562   4.594   7.038  0.2702  0.1335  0.0658
   23MOL    C38 7562   5.492   4.493   7.136 -0.4190  0.3526  0.2538
   23MOL    C39 7563   5.405   4.393   7.083 -0.1965  0.2130 -0.2547
   23MOL    C40 7564   5.353   4.293   7.167  0.5119  0.3830  0.4101
   23MOL    C41 7565   5.375   4.302   7.307  0.1145 -0.6809 -0.0992
   23MOL    C42 7566   5.464   4.397   7.355  0.2162  0.4413  0.1585
   23MOL    C43 7567   5.524   4.489   7.271  0.2645 -0.1243  0.0396
   23MOL    O44 7568   5.706   4.581   7.036  0.5978 -0.4742 -0.1527
   23MOL    H45 7569   5.620   4.772   7.145  0.2942  1.4167 -0.7990
   23MOL    H46 7570   5.448   4.751   7.133  1.3495 -1.0700  1.7713
   23MOL    H47 7571   5.523   4.586   6.937  2.4290  0.2054 -0.8023
   23MOL    H48 7572   5.393   4.393   6.975 -0.4160 -0.9195 -0.2339
   23MOL    H49 7573   5.295   4.212   7.123 -0.9404  1.0370  1.0892
   23MOL    H50 7574   5.342   4.228   7.378  1.7011  0.1932  1.5751
   23MOL    H51 7575   5.482   4.393   7.461  0.9964  0.8133  0.0399
   23MOL    H52 7576   5.606   4.546   7.313 -0.2491 -0.5726  1.7054
   23MOL    C53 7577   5.766   4.454   7.021 -1.3067 -0.0353 -0.3843
   23MOL    C54 7578   5.756   4.387   6.888  0.6291  0.0919  1.1230
   23MOL    C55 7579   5.835   4.261   6.888  0.2189  0.1067  0.4319
   23MOL    C56 7580   5.960   4.251   6.822 -0.0985 -0.0937  0.6519
   23MOL    C57 7581   6.033   4.131   6.822  0.2414  0.4563 -0.5898
   23MOL    C58 7582   5.992   4.016   6.894 -0.1980  0.2159  0.1192
   23MOL    C59 7583   5.875   4.030   6.968  0.5596  0.2526  0.3395
   23MOL    C60 7584   5.792   4.142   6.962  0.1104 -0.9446 -0.7611
   23MOL    O61 7585   5.615   4.371   6.863  0.3258 -0.1120  0.5694
   23MOL    H62 7586   5.874   4.456   7.035 -1.1555  1.2072 -1.5835
   23MOL    H63 7587   5.726   4.393   7.101  2.4908 -1.1622  0.7437
   23MOL    H64 7588   5.796   4.450   6.810 -0.9229  0.5910  0.6994
   23MOL    H65 7589   5.994   4.334   6.762 -0.0800 -0.3638  0.2858
   23MOL    H66 7590   6.123   4.127   6.762 -1.4442 -1.7915 -3.0239
   23MOL    H67 7591   6.048   3.924   6.882  1.3154  1.1132  0.2188
   23MOL    H68 7592   5.828   3.945   7.016  0.1487 -0.7847 -1.8346
   23MOL    H69 7593   5.692   4.146   7.001  0.8025 -1.0138  1.1203
   23MOL    C70 7594   5.562   4.300   6.749  0.0115 -0.3900  0.2491
   23MOL    C71 7595   5.459   4.384   6.667  0.0907 -0.2034 -0.2918
   23MOL    C72 7596   5.536   4.485   6.583 -1.1469 -0.5398  0.1611
   23MOL    C73 7597   5.540   4.457   6.446  0.1984  0.3791  0.7700
   23MOL    C74 7598   5.599   4.555   6.363  0.0654 -0.4179 -0.3645
   23MOL    C75 7599   5.656   4.670   6.417  0.0224 -0.0386  0.8137
   23MOL    C76 7600   5.656   4.693   6.552  0.3493 -0.9665 -0.7016
   23MOL    C77 7601   5.589   4.608   6.634 -0.3055 -0.0121  0.0234
   23MOL    O78 7602   5.353   4.436   6.743  0.1459  0.1276 -0.1542
   23MOL    H79 7603   5.644   4.267   6.686  0.1594 -1.8341  1.1912
   23MOL    H80 7604   5.507   4.213   6.785 -0.2102 -0.0049  0.8488
   23MOL    H81 7605   5.415   4.302   6.610 -0.2137 -0.7445  0.6986
   23MOL    H82 7606   5.498   4.369   6.399  1.3317 -0.0446  0.5151
   23MOL    H83 7607   5.613   4.546   6.256 -0.7633 -2.2991 -0.3464
   23MOL    H84 7608   5.709   4.742   6.356 -0.3513  0.5926  1.2273
   23MOL    H85 7609   5.703   4.778   6.599 -2.2052  1.2022 -1.8924
   23MOL    H86 7610   5.588   4.635   6.738  1.8096  0.4987 -0.0651
   23MOL    C87 7611   5.237   4.467   6.667 -0.2881 -0.4531 -0.2029
   23MOL    C88 7612   5.143   4.343   6.637  0.2418  0.0527 -0.1708
   23MOL    C89 7613   5.141   4.229   6.753  0.1192 -0.1078  0.3296
   23MOL    C90 7614   5.063   4.250   6.861 -0.5687  0.2556  0.0110
   23MOL    C91 7615   5.064   4.157   6.964 -0.3182  0.5871  0.2827
   23MOL    C92 7616   5.151   4.046   6.955 -0.0937 -0.3871  0.8848
   23MOL    C93 7617   5.240   4.027   6.847 -0.6434  0.2739 -0.7492
   23MOL    C94 7618   5.230   4.120   6.745  1.0791  0.4770  0.2596
   23MOL    O95 7619   5.185   4.291   6.514  0.0993  0.5194  0.4834
   23MOL    H96 7620   5.255   4.515   6.571 -2.1301  1.6552  0.4799
   23MOL    H97 7621   5.180   4.538   6.727 -1.7102 -2.4736  0.8900
   23MOL    H98 7622   5.044   4.386   6.625 -0.0857 -0.1436  1.7430
   23MOL    H99 7623   5.001   4.339   6.861 -0.8916  0.0327  0.1590
   23MOL   H100 7624   5.001   4.167   7.051 -2.7108 -2.0760 -1.0454
   23MOL   H101 7625   5.136   3.979   7.038 -0.6489 -1.4061 -0.0322
   23MOL   H102 7626   5.293   3.933   6.847  0.5950  0.9383  0.6611
   23MOL   H103 7627   5.284   4.108   6.652  1.5153  1.9799  0.3093
   23MOL   C104 7628   5.072   4.260   6.437 -0.2646  0.5197 -0.3907
   23MOL   C105 7629   5.039   4.384   6.336 -0.3529 -0.2700  0.1075
   23MOL   C106 7630   5.144   4.408   6.234 -0.4260 -0.3322 -1.0867
   23MOL   C107 7631   5.215   4.297   6.178  0.3767 -0.1974  0.3239
   23MOL   C108 7632   5.330   4.319   6.094 -0.0796  1.0594  0.2821
   23MOL   C109 7633   5.360   4.450   6.064  0.3781 -0.9005  0.3793
   23MOL   C110 7634   5.288   4.563   6.114 -0.5344  0.5705 -0.3716
   23MOL   C111 7635   5.188   4.537   6.209  0.1388  0.2826  0.5597
   23MOL   O112 7636   4.915   4.329   6.281 -0.3032 -0.5867 -0.7953
   23MOL   H113 7637   5.101   4.169   6.384 -0.3659  0.1075  0.2526
   23MOL   H114 7638   4.975   4.242   6.485  0.3125  0.0347  0.5991
   23MOL   H115 7639   5.018   4.476   6.389 -1.3402 -0.1643 -0.4637
   23MOL   H116 7640   5.190   4.193   6.190 -0.6227 -0.1468 -1.2380
   23MOL   H117 7641   5.386   4.237   6.054  0.1781  0.4143  1.9123
   23MOL   H118 7642   5.445   4.461   5.999 -2.0057 -2.6108 -3.1539
   23MOL   H119 7643   5.325   4.663   6.097  2.5949 -0.7410 -1.7549
   23MOL   H120 7644   5.133   4.625   6.242 -3.3054 -0.9177 -1.6700
   23MOL   C121 7645   4.852   4.408   6.183  0.3996 -0.0198 -0.2684
   23MOL   C122 7646   4.791   4.534   6.242  0.5363  0.1461  0.2831
   23MOL   C123 7647   4.712   4.507   6.364 -0.1233 -0.0954 -0.1867
   23MOL   C124 7648   4.745   4.556   6.493 -0.3396  0.1057  0.2175
   23MOL   C125 7649   4.668   4.529   6.608  0.0612 -0.2433  0.5428
   23MOL   C126 7650   4.549   4.459   6.597 -0.3431  0.0511 -0.1324
   23MOL   C127 7651   4.509   4.408   6.472 -0.1318 -0.1096  0.6312
   23MOL   C128 7652   4.593   4.433   6.355  0.2830 -0.5763 -0.3218
   23MOL   O129 7653   4.881   4.640   6.248 -0.1372 -0.4996  0.2360
   23MOL   H130 7654   4.780   4.338   6.141  0.4383  0.1180 -0.5638
   23MOL   H131 7655   4.920   4.422   6.099  0.5170  0.2618 -0.1281
   23MOL   H132 7656   4.718   4.562   6.167 -0.3719  0.2540  1.1935
   23MOL   H133 7657   4.837   4.612   6.496 -0.8493  1.2161 -2.9325
   23MOL   H134 7658   4.711   4.560   6.702  1.1921 -0.6420  0.1604
   23MOL   H135 7659   4.497   4.423   6.685 -1.3430  1.8469  0.0443
   23MOL   H136 7660   4.425   4.340   6.467  0.8066 -1.3195  0.9529
   23MOL   H137 7661   4.554   4.396   6.261 -1.3063  2.0362 -0.7436
   23MOL   C138 7662   4.826   4.771   6.237  0.5403 -0.6045  0.1510
   23MOL   C139 7663   4.928   4.874   6.288  0.2700  0.0951 -0.6018
   23MOL   C140 7664   4.957   4.850   6.436 -0.3978  0.1745 -0.2641
   23MOL   C141 7665   5.076   4.788   6.478  0.1205 -0.0518 -0.0791
   23MOL   C142 7666   5.117   4.788   6.612 -0.1847  0.3617  0.0920
   23MOL   C143 7667   5.023   4.833   6.706 -0.1311 -0.3425 -0.4257
   23MOL   C144 7668   4.900   4.893   6.672 -0.2179  0.3400  0.3161
   23MOL   C145 7669   4.868   4.895   6.534 -0.6401 -0.1042 -0.2236
   23MOL   O146 7670   5.048   4.872   6.209 -0.3826  0.2231  0.1684
   23MOL   H147 7671   4.747   4.773   6.312  0.6423  1.8639  0.2392
   23MOL   H148 7672   4.785   4.804   6.141 -0.2056 -1.8636  0.0344
   23MOL   H149 7673   4.873   4.968   6.292  1.7172  0.9110  0.3927
   23MOL   H150 7674   5.139   4.748   6.400  0.2369 -1.5265  0.7544
   23MOL   H151 7675   5.208   4.741   6.646  0.1374  0.0627 -1.1600
   23MOL   H152 7676   5.045   4.836   6.811 -1.4275 -0.2546 -0.1445
   23MOL   H153 7677   4.832   4.938   6.743 -0.3722  1.8353 -0.7463
   23MOL   H154 7678   4.775   4.938   6.499  0.9114  2.6215 -1.1788
   23MOL   C155 7679   5.038   4.919   6.074  0.1382 -0.4174 -0.3697
   23MOL   C156 7680   4.984   5.060   6.048  0.2520  0.7105  0.4183
   23MOL   C157 7681   5.017   5.103   5.900 -0.2737  0.5504  0.7415
   23MOL   C158 7682   4.912   5.117   5.808 -0.1464 -0.2032  0.0063
   23MOL   C159 7683   4.936   5.141   5.671 -0.1076  0.2724 -0.2619
   23MOL   C160 7684   5.072   5.160   5.633 -0.2576 -0.1161  0.0515
   23MOL   C161 7685   5.182   5.139   5.721 -0.1012 -0.0799  0.1288
   23MOL   C162 7686   5.150   5.108   5.854  0.4736 -0.3675  0.2535
   23MOL   O163 7687   4.841   5.073   6.061 -0.2906 -0.5417  0.1267
   23MOL   H164 7688   4.985   4.848   6.011  0.4686 -1.0668  0.0841
   23MOL   H165 7689   5.140   4.913   6.036  0.9963  0.3404  1.7458
   23MOL   H166 7690   5.044   5.117   6.120  0.0461  2.5599 -0.8287
   23MOL   H167 7691   4.810   5.099   5.837  0.4977  0.8627  3.1594
   23MOL   H168 7692   4.848   5.135   5.609  0.6139  1.2378 -1.4100
   23MOL   H169 7693   5.096   5.170   5.528 -1.8724  1.2485 -0.2130
   23MOL   H170 7694   5.283   5.159   5.691  0.0134  0.6014  0.9401
   23MOL   H171 7695   5.225   5.101   5.931  0.7136  1.4166  0.2120
   23MOL   C172 7696   4.802   5.202   6.092  0.0447 -0.0471 -0.0684
   23MOL   C173 7697   4.647   5.215   6.079 -0.0594  0.2649 -0.9140
   23MOL   C174 7698   4.576   5.126   6.173 -0.3365  0.3746 -1.0517
   23MOL   C175 7699   4.482   5.033   6.127  0.7031 -0.2246 -0.0950
   23MOL   C176 7700   4.418   4.942   6.210 -0.1881  0.1749 -0.0138
   23MOL   C177 7701   4.443   4.947   6.345  0.3472  0.6226 -0.0611
   23MOL   C178 7702   4.527   5.044   6.400 -0.3560 -0.0265 -0.9803
   23MOL   C179 7703   4.596   5.132   6.312  0.5371  0.2290  0.2585
   23MOL   O180 7704   4.627   5.191   5.940  0.4034 -0.2611 -0.2286
   23MOL   H181 7705   4.830   5.233   6.193 -1.7245 -0.8504  0.6910
   23MOL   H182 7706   4.839   5.280   6.026 -2.0101  1.4178  0.4422
   23MOL   H183 7707   4.633   5.320   6.105  1.9472  0.3379 -0.0349
   23MOL   H184 7708   4.466   5.023   6.021 -0.2201 -1.6755  0.1700
   23MOL   H185 7709   4.349   4.871   6.166  0.2528  0.8285 -1.8331
   23MOL   H186 7710   4.400   4.874   6.412  1.0126  0.4266  0.1594
   23MOL   H187 7711   4.551   5.059   6.504  1.9509  0.8603 -1.6177
   23MOL   H188 7712   4.669   5.195   6.360 -0.3619  1.3967  0.1343
   23MOL   C189 7713   4.551   5.291   5.880 -0.8785 -0.7096 -0.5132
   23MOL   C190 7714   4.490   5.257   5.742  0.2813  0.6186 -0.1003
   23MOL   C191 7715   4.406   5.134   5.729 -0.5079 -0.1979  0.0056
   23MOL   C192 7716   4.476   5.010   5.734  0.1442  0.5715 -0.2952
   23MOL   C193 7717   4.403   4.889   5.727 -0.2036  0.3434  0.3869
   23MOL   C194 7718   4.263   4.889   5.710 -0.0135  0.2392 -0.3812
   23MOL   C195 7719   4.193   5.017   5.705 -0.1215  0.3029 -0.6321
   23MOL   C196 7720   4.265   5.144   5.708 -0.4775  0.0971  0.2356
   23MOL   O197 7721   4.591   5.248   5.639 -0.0681  0.7286 -0.1851
   23MOL   H198 7722   4.458   5.300   5.936 -0.3128  1.2164  0.1484
   23MOL   H199 7723   4.604   5.386   5.887 -0.9085 -0.6319 -1.2900
   23MOL   H200 7724   4.414   5.329   5.710  0.2748  0.6298 -0.0600
   23MOL   H201 7725   4.581   4.995   5.748 -0.0316 -0.3390  0.0685
   23MOL   H202 7726   4.445   4.789   5.728 -0.7720  0.0833 -0.6790
   23MOL   H203 7727   4.207   4.796   5.709 -1.6299  1.1698 -2.7534
   23MOL   H204 7728   4.088   5.013   5.680  0.4384 -2.7819 -2.6506
   23MOL   H205 7729   4.221   5.242   5.709 -0.5402  0.0769 -0.2905
   23MOL   C206 7730   4.669   5.363   5.604 -0.1980 -0.3351  0.4049
   23MOL   C207 7731   4.576   5.478   5.544 -0.3568 -0.8072 -0.1862
   23MOL   C208 7732   4.656   5.565   5.462 -0.2189 -0.8315  0.5706
   23MOL   C209 7733   4.650   5.526   5.325 -0.5558 -0.9672 -0.3022
   23MOL   C210 7734   4.719   5.605   5.227 -0.1877  0.1263 -0.3966
   23MOL   C211 7735   4.790   5.725   5.271 -0.3975  0.2627 -0.8091
   23MOL   C212 7736   4.793   5.761   5.409 -0.2373 -0.2255 -0.2429
   23MOL   C213 7737   4.722   5.683   5.505  0.1014 -0.3762 -0.5124
   23MOL   O214 7738   4.525   5.556   5.657  1.1100  0.7693  0.0617
   23MOL   H215 7739   4.715   5.393   5.698  0.7918  2.2076 -0.8334
   23MOL   H216 7740   4.752   5.341   5.537  0.0651  0.5264  0.4418
   23MOL   H217 7741   4.498   5.423   5.491 -0.3648 -0.2413 -0.7640
   23MOL   H218 7742   4.598   5.443   5.281 -1.1555 -1.7865  1.8978
   23MOL   H219 7743   4.715   5.567   5.126  1.3467 -0.5229 -0.2273
   23MOL   H220 7744   4.849   5.773   5.194 -0.6733 -0.8631 -1.7251
   23MOL   H221 7745   4.854   5.842   5.447 -0.0386 -1.2670  1.7155
   23MOL   H222 7746   4.723   5.723   5.605 -1.3791  0.4101 -0.8038
   23MOL   C223 7747   4.409   5.630   5.621 -0.2839 -0.6070  0.1110
   23MOL   C224 7748   4.367   5.744   5.717  0.0437 -0.4653  0.4960
   23MOL   C225 7749   4.376   5.694   5.865 -0.1832 -0.0348  0.0994
   23MOL   C226 7750   4.459   5.757   5.957 -0.2931 -0.5216  0.1509
   23MOL   C227 7751   4.464   5.702   6.085  0.0490  0.3145 -0.2771
   23MOL   C228 7752   4.400   5.584   6.120  0.1025 -0.5331 -0.4329
   23MOL   C229 7753   4.312   5.523   6.028  0.0850 -0.7241 -0.6552
   23MOL   C230 7754   4.301   5.584   5.904  1.4893 -0.3501 -0.5227
   23MOL   O231 7755   4.452   5.851   5.687  0.0613 -0.2834  0.4676
   23MOL   H232 7756   4.402   5.657   5.515 -2.8950  0.3654  0.5024
   23MOL   H233 7757   4.325   5.561   5.622 -1.2310  0.5352  0.0566
   23MOL   H234 7758   4.267   5.780   5.696 -0.5061 -0.7418  2.4987
   23MOL   H235 7759   4.522   5.841   5.933 -0.0920 -0.5006  0.7562
   23MOL   H236 7760   4.521   5.749   6.164 -1.4789 -0.1356  1.1325
   23MOL   H237 7761   4.416   5.540   6.217 -0.1165 -1.1946 -0.6907
   23MOL   H238 7762   4.266   5.428   6.050  1.4553 -1.0446  0.9481
   23MOL   H239 7763   4.228   5.541   5.836  1.2172 -2.2370  0.9171
   23MOL   C240 7764   4.391   5.973   5.721 -0.3324  0.4924  0.7910
   23MOL   C241 7765   4.502   6.082   5.716  0.5073  0.5186 -0.3612
   23MOL   C242 7766   4.437   6.217   5.669  0.3831 -0.6619  0.1971
   23MOL   C243 7767   4.364   6.299   5.763 -0.2067 -0.1815  0.1756
   23MOL   C244 7768   4.295   6.416   5.721 -0.1873  0.2406 -0.0125
   23MOL   C245 7769   4.309   6.453   5.589  0.8608 -0.0339  0.1862
   23MOL   C246 7770   4.384   6.375   5.498 -0.2991 -0.2223  0.2912
   23MOL   C247 7771   4.429   6.250   5.532  0.0818 -0.8222  0.5008
   23MOL   O248 7772   4.541   6.076   5.855 -0.0960  0.1150 -0.2247
   23MOL   H249 7773   4.315   5.994   5.644  0.8414  0.7415 -0.3238
   23MOL   H250 7774   4.336   5.969   5.815 -4.3523  1.6825 -1.3570
   23MOL   H251 7775   4.580   6.060   5.643  1.2945 -0.7639  0.8613
   23MOL   H252 7776   4.371   6.278   5.869 -2.0008 -3.0026 -0.2133
   23MOL   H253 7777   4.244   6.477   5.794 -0.9789 -0.7636  0.2845
   23MOL   H254 7778   4.266   6.549   5.564 -0.5965 -1.1111 -1.5558
   23MOL   H255 7779   4.385   6.407   5.394 -0.3750  0.7479  0.5800
   23MOL   H256 7780   4.482   6.186   5.463 -3.4908 -2.3516 -0.9570
   23MOL   C257 7781   4.665   6.143   5.875 -0.8142  0.0565 -0.1235
   23MOL   C258 7782   4.688   6.160   6.026 -0.1738  0.2094  0.5357
   23MOL   C259 7783   4.579   6.255   6.079  0.3001  0.6438 -0.3321
   23MOL   C260 7784   4.589   6.391   6.071 -0.7342 -0.4382  0.0035
   23MOL   C261 7785   4.489   6.476   6.118  0.5526 -0.4243 -0.0402
   23MOL   C262 7786   4.369   6.427   6.171 -0.0998  0.5308 -0.0439
   23MOL   C263 7787   4.361   6.289   6.195 -0.4704  1.3949 -0.8630
   23MOL   C264 7788   4.464   6.203   6.151 -0.4494  0.2445  0.4810
   23MOL   O265 7789   4.819   6.210   6.042 -0.7174  0.2650 -0.8583
   23MOL   H266 7790   4.678   6.234   5.817 -1.0300 -0.9837 -1.8480
   23MOL   H267 7791   4.737   6.073   5.833 -0.5613 -0.9570  1.9653
   23MOL   H268 7792   4.681   6.063   6.076  5.3075 -1.0848 -0.8462
   23MOL   H269 7793   4.678   6.427   6.021 -0.6513  1.3584  1.3889
   23MOL   H270 7794   4.498   6.583   6.109  1.5032 -0.5797 -1.1325
   23MOL   H271 7795   4.289   6.491   6.206 -1.1671 -0.2054 -1.0927
   23MOL   H272 7796   4.277   6.235   6.236  0.9460  0.8992  1.4520
   23MOL   H273 7797   4.445   6.097   6.148  1.1002  0.0076 -1.6979
   23MOL   C274 7798   4.872   6.205   6.177 -0.2421  0.5645 -0.2105
   23MOL   C275 7799   5.026   6.222   6.190 -0.3810 -0.2372  0.4511
   23MOL   C276 7800   5.088   6.200   6.333 -0.5059 -0.5627  0.0307
   23MOL   C277 7801   5.060   6.290   6.439  0.1132 -0.9008 -0.1480
   23MOL   C278 7802   5.104   6.262   6.567  0.4019  0.0465  0.7085
   23MOL   C279 7803   5.169   6.143   6.594 -0.0380  0.3353 -0.3264
   23MOL   C280 7804   5.211   6.052   6.490  0.6730 -0.2434  0.2913
   23MOL   C281 7805   5.175   6.088   6.356  0.5429  0.0163 -0.1810
   23MOL   O282 7806   5.054   6.355   6.145 -0.4730  0.6589 -0.1302
   23MOL   H283 7807   4.818   6.280   6.235  2.7574  2.1840  0.5574
   23MOL   H284 7808   4.849   6.105   6.213  1.0069 -0.4699 -2.2032
   23MOL   H285 7809   5.073   6.151   6.122 -0.3073 -0.1330  0.3939
   23MOL   H286 7810   4.999   6.376   6.419  0.0076 -1.3200 -1.7054
   23MOL   H287 7811   5.082   6.334   6.644  2.3655  0.3537  1.0038
   23MOL   H288 7812   5.217   6.131   6.690 -0.3681 -0.6147 -0.2801
   23MOL   H289 7813   5.276   5.967   6.505  0.8232 -0.0828  0.5413
   23MOL   H290 7814   5.197   6.014   6.281  1.7361 -1.3769  1.5339
   23MOL   C291 7815   5.184   6.379   6.095  0.4066  0.0648  0.5659
   23MOL   C292 7816   5.175   6.426   5.954 -0.0958  0.1708  0.0332
   23MOL   C293 7817   5.098   6.553   5.958 -0.9473  0.5145  0.9529
   23MOL   C294 7818   4.963   6.548   5.961  0.0866  0.0581  0.0277
   23MOL   C295 7819   4.876   6.658   5.963 -0.5473 -0.0391  0.9283
   23MOL   C296 7820   4.936   6.785   5.951  0.2973  0.2064 -0.3719
   23MOL   C297 7821   5.079   6.792   5.954  0.7868  0.0780  0.9027
   23MOL   C298 7822   5.156   6.679   5.961  0.2334  0.6339 -1.1319
   23MOL   O299 7823   5.310   6.442   5.903 -0.1920 -0.4169 -0.0499
   23MOL   H300 7824   5.251   6.294   6.111  0.9138  0.2033 -0.8054
   23MOL   H301 7825   5.225   6.465   6.148  1.0005  0.1220  0.0070
   23MOL   H302 7826   5.128   6.340   5.906 -0.1958 -1.0499  2.2626
   23MOL   H303 7827   4.911   6.455   5.977  3.1057 -1.4562  1.3965
   23MOL   H304 7828   4.771   6.631   5.968 -0.7196  0.5099  0.3248
   23MOL   H305 7829   4.867   6.868   5.953  1.3859  1.1285 -0.6060
   23MOL   H306 7830   5.120   6.891   5.967  1.5365  0.1754 -1.8365
   23MOL   H307 7831   5.263   6.691   5.972  0.0484  1.4127 -0.0621
   23MOL   C308 7832   5.316   6.430   5.765 -0.1651 -0.0061 -0.1505
   23MOL   C309 7833   5.456   6.453   5.712  0.0225 -0.2286  0.8149
   23MOL   C310 7834   5.453   6.383   5.571 -0.0840  0.3893 -0.8697
   23MOL   C311 7835   5.495   6.247   5.556 -0.2003  0.1612 -0.6746
   23MOL   C312 7836   5.493   6.176   5.437 -0.1955  0.1601 -0.1502
   23MOL   C313 7837   5.452   6.242   5.324  0.2850 -0.9267 -0.1886
   23MOL   C314 7838   5.417   6.382   5.330 -0.6037 -0.5870  0.9537
   23MOL   C315 7839   5.413   6.445   5.451  0.0963  0.1473 -0.1232
   23MOL   O316 7840   5.493   6.592   5.687  0.2925  0.4742  0.4392
   23MOL   H317 7841   5.242   6.493   5.715  0.1916  0.3598 -0.2161
   23MOL   H318 7842   5.300   6.323   5.754  0.9349 -0.2947  1.0374
   23MOL   H319 7843   5.538   6.404   5.765  2.9603  1.8681 -1.6401
   23MOL   H320 7844   5.522   6.186   5.641 -1.4845 -0.7959 -0.9397
   23MOL   H321 7845   5.510   6.070   5.437  1.5083  0.4219 -0.4954
   23MOL   H322 7846   5.450   6.191   5.229 -0.1842  0.2298 -0.8076
   23MOL   H323 7847   5.392   6.437   5.241  0.8487  1.1620  1.6132
   23MOL   H324 7848   5.383   6.549   5.454 -0.1940  0.0372  1.1085
   23MOL   C325 7849   5.564   6.659   5.793  1.0692 -0.2926 -0.0501
   23MOL   C326 7850   5.639   6.781   5.738 -0.2822  0.8547  0.2733
   23MOL   C327 7851   5.548   6.891   5.697  0.3977 -0.3848  0.0332
   23MOL   C328 7852   5.523   7.006   5.777  0.4371 -0.7129 -0.0321
   23MOL   C329 7853   5.425   7.098   5.737 -0.5656 -0.2500 -0.2136
   23MOL   C330 7854   5.355   7.086   5.613 -0.3302  0.5592 -0.3110
   23MOL   C331 7855   5.367   6.972   5.535 -0.4042 -0.1543  0.2405
   23MOL   C332 7856   5.469   6.879   5.578 -0.5272  0.1016  0.8219
   23MOL   O333 7857   5.719   6.818   5.844 -0.7470  0.4997 -0.3710
   23MOL   H334 7858   5.642   6.590   5.826 -1.2040 -2.2874  1.2950
   23MOL   H335 7859   5.497   6.679   5.876  1.0563  1.3397 -0.4218
   23MOL   H336 7860   5.699   6.750   5.652 -1.8136 -0.2680 -0.4298
   23MOL   H337 7861   5.563   7.024   5.876 -1.2688  1.5047  0.2937
   23MOL   H338 7862   5.402   7.179   5.805  0.4015  1.6817 -2.1086
   23MOL   H339 7863   5.279   7.158   5.587  0.6720  1.0609 -1.8794
   23MOL   H340 7864   5.301   6.948   5.453 -1.6771  0.3923  1.0881
   23MOL   H341 7865   5.476   6.790   5.517  1.9735  1.0536 -0.3114
   23MOL   H342 7866   5.767   6.892   5.810  0.5862 -0.6124 -0.9939
   24MOL     C1 7867   4.008   1.794   4.940 -0.3948  0.1771  0.1025
   24MOL     C2 7868   3.916   1.738   5.045  0.2619  0.4145  0.5964
   24MOL     C3 7869   3.929   1.784   5.194  0.6751 -0.7397 -0.3969
   24MOL     C4 7870   3.818   1.793   5.280  0.3450  0.6663 -0.2332
   24MOL     C5 7871   3.828   1.822   5.420 -0.1110  0.7568  0.1608
   24MOL     C6 7872   3.952   1.843   5.473  0.5262 -0.6073  0.3633
   24MOL     C7 7873   4.063   1.831   5.392 -0.5241  0.0418 -0.0555
   24MOL     C8 7874   4.061   1.800   5.254  0.1368  0.0530  0.5219
   24MOL     O9 7875   3.936   1.598   5.026 -0.4999  0.0160  0.3273
   24MOL    H10 7876   3.976   1.897   4.925 -0.4406  0.0267 -0.8710
   24MOL    H11 7877   4.112   1.802   4.973 -0.1443  0.3346 -0.7166
   24MOL    H12 7878   3.814   1.761   5.014 -0.2654 -2.0529  0.3978
   24MOL    H13 7879   3.719   1.781   5.237  0.5609 -0.0708 -0.5347
   24MOL    H14 7880   3.732   1.828   5.469 -1.3632  1.8922 -2.3345
   24MOL    H15 7881   3.960   1.865   5.578  1.2272 -4.0580  1.1083
   24MOL    H16 7882   4.159   1.839   5.441  0.7091 -0.9887 -2.2174
   24MOL    H17 7883   4.150   1.788   5.194 -0.0599  1.1880 -0.0053
   24MOL    H18 7884   4.008   1.743   4.844  3.2541 -1.9439  1.1266
   24MOL    C19 7885   3.832   1.511   5.057  0.0946  0.6407 -0.0274
   24MOL    C20 7886   3.733   1.485   4.938 -0.5636  0.9927 -0.9190
   24MOL    C21 7887   3.804   1.446   4.804 -0.7637 -0.2144 -0.2119
   24MOL    C22 7888   3.843   1.544   4.713  0.2023  0.0564 -0.1301
   24MOL    C23 7889   3.905   1.509   4.596  0.0851 -0.4995 -0.1683
   24MOL    C24 7890   3.923   1.371   4.568  0.2813  1.2621 -0.6967
   24MOL    C25 7891   3.895   1.275   4.664  0.4365 -0.3085 -0.3171
   24MOL    C26 7892   3.835   1.307   4.787  0.1064 -0.3984  0.5072
   24MOL    O27 7893   3.649   1.600   4.925  0.0391 -0.2007 -0.4191
   24MOL    H28 7894   3.891   1.425   5.088  0.9637  1.2986  0.1424
   24MOL    H29 7895   3.781   1.542   5.149 -0.7786 -0.6914 -0.0428
   24MOL    H30 7896   3.673   1.396   4.960  0.3329  0.3172 -1.1871
   24MOL    H31 7897   3.821   1.646   4.738  0.3618 -0.1240  0.7366
   24MOL    H32 7898   3.932   1.593   4.534 -0.7404  1.0579  1.5117
   24MOL    H33 7899   3.974   1.345   4.476 -0.6939  0.0832 -0.9222
   24MOL    H34 7900   3.918   1.171   4.648  0.6923 -0.5685  1.6098
   24MOL    H35 7901   3.818   1.233   4.864 -1.5866  0.2955  0.8324
   24MOL    C36 7902   3.522   1.585   4.864  0.0470 -0.5541  0.0612
   24MOL    C37 7903   3.452   1.719   4.851 -0.3495  0.2751 -0.1662
   24MOL    C38 7904   3.425   1.788   4.982  0.0722 -0.3704 -0.0026
   24MOL    C39 7905   3.317   1.747   5.060  0.2831  0.7884 -0.9034
   24MOL    C40 7906   3.295   1.805   5.185  0.2384 -0.4777 -0.1675
   24MOL    C41 7907   3.384   1.897   5.241  0.2404 -0.1596  0.2286
   24MOL    C42 7908   3.487   1.939   5.162 -0.5551 -0.2145  0.4919
   24MOL    C43 7909   3.506   1.888   5.032 -0.2429  0.0261  0.1323
   24MOL    O44 7910   3.340   1.690   4.768 -0.2045 -0.0989 -0.3912
   24MOL    H45 7911   3.538   1.526   4.774  1.5329 -1.6357  1.0126
   24MOL    H46 7912   3.465   1.516   4.927 -0.7598 -0.0966 -0.1556
   24MOL    H47 7913   3.521   1.786   4.800  1.6679 -0.7554  1.1362
   24MOL    H48 7914   3.250   1.671   5.022  0.3739 -0.4709  1.3796
   24MOL    H49 7915   3.214   1.757   5.238  0.1227  0.0830  0.1691
   24MOL    H50 7916   3.372   1.936   5.341 -0.2384 -1.6954  0.7697
   24MOL    H51 7917   3.556   2.014   5.198  1.1756 -1.7733  0.5399
   24MOL    H52 7918   3.595   1.920   4.979 -0.3276 -1.6433 -1.0479
   24MOL    C53 7919   3.290   1.802   4.699 -0.0270  0.8171  0.0319
   24MOL    C54 7920   3.260   1.752   4.554  0.2159 -0.2259 -0.4068
   24MOL    C55 7921   3.123   1.694   4.532 -0.1091  0.1260  0.8306
   24MOL    C56 7922   3.110   1.551   4.541 -0.4975 -0.3907 -0.0433
   24MOL    C57 7923   2.983   1.489   4.537 -0.1215  0.2279  0.7083
   24MOL    C58 7924   2.874   1.573   4.520  0.2318 -0.3169 -0.1063
   24MOL    C59 7925   2.883   1.710   4.498 -0.3091 -0.7528  0.4443
   24MOL    C60 7926   3.009   1.776   4.500  0.9972  0.2545 -0.1703
   24MOL    O61 7927   3.277   1.873   4.486  0.1445  0.4151 -0.4772
   24MOL    H62 7928   3.201   1.844   4.746 -1.5914 -1.6308 -0.6213
   24MOL    H63 7929   3.353   1.891   4.697 -1.2984  1.7016 -3.1884
   24MOL    H64 7930   3.338   1.680   4.529  0.1300 -0.3795 -0.2328
   24MOL    H65 7931   3.197   1.493   4.569  1.0563  1.0674 -1.7382
   24MOL    H66 7932   2.967   1.386   4.567 -1.9230  0.3196  0.1238
   24MOL    H67 7933   2.774   1.534   4.511  0.5994 -1.2941  0.0065
   24MOL    H68 7934   2.793   1.767   4.482 -0.0851 -0.7772 -1.0007
   24MOL    H69 7935   3.012   1.884   4.492 -2.8900  0.6648  2.2587
   24MOL    C70 7936   3.314   1.863   4.354  0.2804 -0.5183  0.5436
   24MOL    C71 7937   3.324   2.008   4.299 -0.3242 -0.2103 -0.0200
   24MOL    C72 7938   3.187   2.074   4.273  0.6456  0.3058  0.6678
   24MOL    C73 7939   3.130   2.165   4.367  0.0818  0.0420 -0.4586
   24MOL    C74 7940   3.000   2.220   4.344  1.0559  0.6567  0.4125
   24MOL    C75 7941   2.930   2.184   4.228  0.0092 -0.5242 -0.2737
   24MOL    C76 7942   2.991   2.110   4.131 -0.4678  0.5328  0.4935
   24MOL    C77 7943   3.119   2.052   4.153 -0.1451  0.2023  0.1513
   24MOL    O78 7944   3.404   1.993   4.182  0.0739 -0.0134 -0.3615
   24MOL    H79 7945   3.413   1.818   4.353  0.4892 -0.0588 -1.2358
   24MOL    H80 7946   3.246   1.809   4.288  0.5543  0.0690 -0.2170
   24MOL    H81 7947   3.373   2.067   4.376  0.0064 -0.5303  0.0129
   24MOL    H82 7948   3.197   2.194   4.447 -1.5785 -1.4700  1.5536
   24MOL    H83 7949   2.958   2.292   4.413  0.5738  1.3285 -0.5680
   24MOL    H84 7950   2.836   2.232   4.204  0.0775 -0.6959 -0.8785
   24MOL    H85 7951   2.943   2.091   4.036 -1.2011  0.3652  0.8949
   24MOL    H86 7952   3.176   1.986   4.089 -0.9246 -1.5095  1.1790
   24MOL    C87 7953   3.453   2.116   4.140 -0.0554 -0.2623 -0.0487
   24MOL    C88 7954   3.512   2.107   3.994  0.2654 -0.3577 -0.0133
   24MOL    C89 7955   3.412   2.055   3.894 -0.4017  0.5142  0.5594
   24MOL    C90 7956   3.430   1.938   3.816  0.6198 -0.2674 -0.2980
   24MOL    C91 7957   3.332   1.905   3.712  0.1106 -0.6430  0.2464
   24MOL    C92 7958   3.220   1.988   3.696 -0.3760  0.5578 -0.2530
   24MOL    C93 7959   3.198   2.096   3.781 -0.1337  0.2084  0.1242
   24MOL    C94 7960   3.291   2.127   3.876 -0.2090  0.2049 -0.0725
   24MOL    O95 7961   3.614   2.009   3.998 -0.5772 -0.1648 -0.4291
   24MOL    H96 7962   3.531   2.157   4.205  1.1011 -0.0326 -1.5406
   24MOL    H97 7963   3.374   2.192   4.141 -1.1741 -1.3826 -1.5494
   24MOL    H98 7964   3.539   2.203   3.951  2.0327 -1.7066 -2.0603
   24MOL    H99 7965   3.525   1.887   3.815  0.3149 -0.9141  2.0381
   24MOL   H100 7966   3.352   1.832   3.635  4.3857 -0.7929  1.3362
   24MOL   H101 7967   3.144   1.948   3.631 -0.0280  2.3148 -1.7902
   24MOL   H102 7968   3.104   2.148   3.767  0.6830  0.8965 -3.2942
   24MOL   H103 7969   3.277   2.211   3.942  1.5177  0.3634  0.1125
   24MOL   C104 7970   3.720   2.027   4.090 -1.3750  0.6970 -0.4769
   24MOL   C105 7971   3.839   1.946   4.051 -0.0900  0.0212 -0.2975
   24MOL   C106 7972   3.880   1.962   3.903  0.3397 -0.3431 -0.4484
   24MOL   C107 7973   3.808   1.896   3.803 -0.0548 -0.3065 -0.3254
   24MOL   C108 7974   3.851   1.909   3.670  0.1976  0.0176  0.5086
   24MOL   C109 7975   3.959   1.992   3.629  0.1253 -0.4938  0.1452
   24MOL   C110 7976   4.033   2.057   3.728  0.5462  0.0588 -0.2453
   24MOL   C111 7977   3.991   2.040   3.865  0.7560  0.0093 -0.9846
   24MOL   O112 7978   3.933   1.974   4.145  0.2060 -0.1541  0.1326
   24MOL   H113 7979   3.757   2.129   4.078 -1.3845  1.4039  4.3964
   24MOL   H114 7980   3.693   2.007   4.193 -2.1777 -0.6389 -0.9402
   24MOL   H115 7981   3.798   1.845   4.059 -1.1591  0.3882 -1.0823
   24MOL   H116 7982   3.721   1.834   3.820  0.5193 -0.6594  1.4333
   24MOL   H117 7983   3.792   1.866   3.591  0.9068 -0.6827  0.3581
   24MOL   H118 7984   3.990   1.997   3.526 -0.1645 -2.0503 -0.0261
   24MOL   H119 7985   4.119   2.118   3.709  1.2869 -0.6105  0.9165
   24MOL   H120 7986   4.048   2.095   3.939 -0.1146 -2.6947  1.7847
   24MOL   C121 7987   4.008   1.860   4.198 -0.2355 -0.7927 -0.6508
   24MOL   C122 7988   3.936   1.767   4.297 -0.2735  0.3056 -0.2585
   24MOL   C123 7989   3.860   1.843   4.410 -0.4382  0.5820  0.0785
   24MOL   C124 7990   3.723   1.845   4.415  0.0172 -0.6922 -0.9935
   24MOL   C125 7991   3.653   1.887   4.529  0.4720  0.4430  0.2554
   24MOL   C126 7992   3.725   1.926   4.646 -0.1547 -0.4707  0.0884
   24MOL   C127 7993   3.863   1.930   4.643 -0.6262 -0.4185  0.2709
   24MOL   C128 7994   3.932   1.891   4.520  0.1411 -0.0246  0.6678
   24MOL   O129 7995   3.853   1.691   4.209 -0.5979  0.2266 -0.4657
   24MOL   H130 7996   4.093   1.909   4.243  0.1982 -1.4150 -0.7924
   24MOL   H131 7997   4.056   1.799   4.122  2.3081  0.2260  0.0905
   24MOL   H132 7998   4.002   1.695   4.346  1.2250  0.3137 -2.2007
   24MOL   H133 7999   3.670   1.813   4.326  2.9260  0.2981 -3.1824
   24MOL   H134 8000   3.545   1.891   4.536  0.3451  0.3453 -1.4687
   24MOL   H135 8001   3.676   1.964   4.735  0.5502 -0.8029  0.6245
   24MOL   H136 8002   3.925   1.960   4.727  1.3519  1.9122 -1.9560
   24MOL   H137 8003   4.037   1.868   4.527 -0.3962 -2.6322  0.9283
   24MOL   C138 8004   3.868   1.546   4.199  0.2796 -0.3101  0.2899
   24MOL   C139 8005   3.786   1.494   4.080 -0.9741 -0.2001 -0.2877
   24MOL   C140 8006   3.639   1.531   4.109 -0.2116  0.3314  0.1756
   24MOL   C141 8007   3.588   1.648   4.053  0.2951  0.1294 -0.6660
   24MOL   C142 8008   3.451   1.675   4.057 -0.9377  0.6466 -0.4952
   24MOL   C143 8009   3.371   1.592   4.141 -0.4911  0.0415 -0.1682
   24MOL   C144 8010   3.428   1.485   4.207 -0.6657  0.6202  0.8204
   24MOL   C145 8011   3.559   1.450   4.193  0.3314  0.2740  0.7697
   24MOL   O146 8012   3.842   1.558   3.967 -0.7014 -1.3292  0.6870
   24MOL   H147 8013   3.852   1.506   4.299 -2.1745 -1.7408 -0.6315
   24MOL   H148 8014   3.975   1.531   4.183  0.4113 -0.2846  1.1236
   24MOL   H149 8015   3.797   1.387   4.069 -0.4245 -0.3060  1.1485
   24MOL   H150 8016   3.636   1.712   3.980 -2.6638  2.9616 -0.2877
   24MOL   H151 8017   3.403   1.743   3.988 -0.3539 -1.5057 -3.0893
   24MOL   H152 8018   3.264   1.610   4.143 -0.5437  0.0117 -2.0012
   24MOL   H153 8019   3.374   1.415   4.269  0.7326  0.0532  1.4296
   24MOL   H154 8020   3.594   1.362   4.243 -1.5379 -0.4611  0.8242
   24MOL   C155 8021   3.809   1.499   3.844  0.3293 -0.5006 -0.5615
   24MOL   C156 8022   3.906   1.538   3.736  0.2723 -0.3671 -0.2808
   24MOL   C157 8023   4.052   1.547   3.782 -0.3961  0.2735  0.0693
   24MOL   C158 8024   4.133   1.431   3.777 -0.2301  0.7747  0.4400
   24MOL   C159 8025   4.270   1.443   3.814 -0.3012  0.3508  1.2774
   24MOL   C160 8026   4.324   1.561   3.851 -0.1021  0.0184 -0.3661
   24MOL   C161 8027   4.251   1.677   3.857 -0.4788  0.6538  0.2818
   24MOL   C162 8028   4.111   1.667   3.828  0.1590 -0.0355  0.7166
   24MOL   O163 8029   3.878   1.452   3.620  0.2222 -0.5494  0.1698
   24MOL   H164 8030   3.706   1.523   3.820  0.4153 -1.4065 -1.8795
   24MOL   H165 8031   3.821   1.391   3.849  0.3957 -0.3780  2.6675
   24MOL   H166 8032   3.873   1.637   3.705 -0.2519 -0.4673 -0.0534
   24MOL   H167 8033   4.095   1.340   3.733 -0.7449  1.1828  0.0472
   24MOL   H168 8034   4.337   1.358   3.818 -0.2889  0.3707  1.4977
   24MOL   H169 8035   4.428   1.557   3.877  0.4160 -0.8877 -2.4648
   24MOL   H170 8036   4.295   1.769   3.893 -1.9461  0.2963  3.1475
   24MOL   H171 8037   4.052   1.758   3.833  1.6131  0.8319  2.3594
   24MOL   C172 8038   3.947   1.490   3.497  0.3788  0.3198  0.6794
   24MOL   C173 8039   3.853   1.487   3.379 -0.5245 -0.6105  0.4788
   24MOL   C174 8040   3.743   1.586   3.394  0.1399 -0.3621 -0.3447
   24MOL   C175 8041   3.630   1.555   3.461  1.0303 -0.2603  0.3486
   24MOL   C176 8042   3.532   1.652   3.487  0.6789 -0.3437  0.1514
   24MOL   C177 8043   3.548   1.782   3.439 -0.4839 -0.3032 -0.0003
   24MOL   C178 8044   3.662   1.808   3.366 -0.1022 -0.3900 -0.5521
   24MOL   C179 8045   3.761   1.710   3.330 -0.1358 -0.6690  0.1247
   24MOL   O180 8046   3.815   1.356   3.348 -0.5474 -0.0942  0.0320
   24MOL   H181 8047   3.988   1.589   3.519  1.0369  0.6599 -1.9015
   24MOL   H182 8048   4.032   1.431   3.464 -0.0878  0.6945 -1.2200
   24MOL   H183 8049   3.922   1.522   3.303 -0.8044 -1.5248 -0.2056
   24MOL   H184 8050   3.622   1.457   3.508 -0.5736  0.0490  0.7537
   24MOL   H185 8051   3.447   1.631   3.550 -1.9803  2.0243 -2.4617
   24MOL   H186 8052   3.467   1.851   3.454 -3.5252 -3.8164  0.4528
   24MOL   H187 8053   3.666   1.912   3.335 -2.1459 -0.2147 -0.2905
   24MOL   H188 8054   3.840   1.738   3.262  0.5161 -2.2873  0.1938
   24MOL   C189 8055   3.773   1.342   3.215 -0.5270 -0.2544  0.6265
   24MOL   C190 8056   3.875   1.304   3.109 -0.2096 -0.0061  0.1859
   24MOL   C191 8057   3.954   1.168   3.126  0.1524 -0.1911 -0.0668
   24MOL   C192 8058   4.002   1.132   3.252 -0.8699 -0.8357  0.5902
   24MOL   C193 8059   4.064   1.004   3.269  0.1624 -0.1389 -0.4272
   24MOL   C194 8060   4.071   0.917   3.159  0.1193 -0.3230 -0.4544
   24MOL   C195 8061   4.000   0.948   3.044  0.6009  0.4542  0.2317
   24MOL   C196 8062   3.936   1.070   3.026 -0.3314 -0.0557 -0.3703
   24MOL   O197 8063   3.968   1.410   3.097  0.0699 -0.0414  0.4184
   24MOL   H198 8064   3.703   1.259   3.224  0.9264 -1.6071 -0.3389
   24MOL   H199 8065   3.717   1.431   3.186 -1.2164 -0.4699  1.2869
   24MOL   H200 8066   3.818   1.305   3.016 -0.9245 -2.5837  0.5451
   24MOL   H201 8067   4.003   1.203   3.334  1.6305  0.7531 -0.7488
   24MOL   H202 8068   4.110   0.977   3.362  2.6623  0.9369 -1.3279
   24MOL   H203 8069   4.111   0.817   3.158 -0.6470 -0.6302 -1.4137
   24MOL   H204 8070   3.990   0.866   2.975  0.1940 -2.1667  3.3202
   24MOL   H205 8071   3.884   1.107   2.939  0.5350  1.5673 -0.2306
   24MOL   C206 8072   4.076   1.394   3.005  0.3469 -0.0888 -0.8506
   24MOL   C207 8073   4.162   1.522   2.996  0.3877 -0.9612 -0.2688
   24MOL   C208 8074   4.188   1.589   3.132 -0.4071 -1.1125  0.6197
   24MOL   C209 8075   4.279   1.536   3.226 -0.5931  0.3196 -0.1671
   24MOL   C210 8076   4.280   1.586   3.359 -0.3593  0.3839 -0.0001
   24MOL   C211 8077   4.200   1.698   3.395  0.6351 -0.1532 -0.0019
   24MOL   C212 8078   4.109   1.749   3.300 -0.3469  0.9625  0.1913
   24MOL   C213 8079   4.108   1.700   3.170  1.0318 -0.0980 -0.1322
   24MOL   O214 8080   4.091   1.607   2.902  0.0688  0.6363 -0.7180
   24MOL   H215 8081   4.151   1.323   3.038  0.6525  0.7524  0.3091
   24MOL   H216 8082   4.048   1.353   2.908 -2.2776  0.3757 -0.3232
   24MOL   H217 8083   4.258   1.494   2.954 -0.4745 -3.0059 -0.9725
   24MOL   H218 8084   4.333   1.443   3.215  0.2456  0.6353  1.1662
   24MOL   H219 8085   4.342   1.539   3.434  0.1220 -1.0940 -1.3170
   24MOL   H220 8086   4.190   1.728   3.498 -0.4917 -1.5422  0.3089
   24MOL   H221 8087   4.044   1.830   3.332  1.0941  2.2617 -0.0822
   24MOL   H222 8088   4.035   1.737   3.099  1.5568 -0.3961 -0.8407
   24MOL   C223 8089   4.179   1.707   2.837 -0.1945  0.1298  0.1624
   24MOL   C224 8090   4.102   1.772   2.714  0.0093 -0.6016  0.0955
   24MOL   C225 8091   4.073   1.660   2.614 -0.4280  0.1395  0.9042
   24MOL   C226 8092   4.179   1.586   2.545 -0.2635  0.1828  0.0017
   24MOL   C227 8093   4.153   1.470   2.468 -0.7408  0.0588  0.0235
   24MOL   C228 8094   4.023   1.419   2.458  0.0300 -0.2137 -0.1262
   24MOL   C229 8095   3.921   1.482   2.537 -0.2328 -0.3278  0.7837
   24MOL   C230 8096   3.946   1.601   2.608 -0.2224  0.1288  0.4675
   24MOL   O231 8097   3.985   1.842   2.768 -0.7235  0.3827  0.6190
   24MOL   H232 8098   4.201   1.782   2.913 -1.4956  0.1876  0.4897
   24MOL   H233 8099   4.276   1.673   2.799 -1.6697 -1.5486 -2.2261
   24MOL   H234 8100   4.174   1.841   2.670  0.5550  0.3765  2.4647
   24MOL   H235 8101   4.279   1.623   2.556  0.9375 -2.3192 -2.1247
   24MOL   H236 8102   4.232   1.413   2.421  0.5473  3.2425 -1.8704
   24MOL   H237 8103   3.984   1.334   2.404  0.9124 -0.9016  0.2918
   24MOL   H238 8104   3.822   1.438   2.529 -0.3936 -0.1341  1.6659
   24MOL   H239 8105   3.864   1.633   2.671 -0.6190  0.1185 -0.0469
   24MOL   C240 8106   3.950   1.957   2.693 -0.0235  0.2629  0.4260
   24MOL   C241 8107   3.999   2.085   2.769 -0.0058  0.5302 -0.6544
   24MOL   C242 8108   3.969   2.083   2.918  0.4089 -0.1076  0.0698
   24MOL   C243 8109   4.069   2.067   3.017  0.7880 -0.3790  0.7364
   24MOL   C244 8110   4.034   2.061   3.153  0.5990  0.5286  0.1875
   24MOL   C245 8111   3.900   2.071   3.195  0.5590  0.0542  0.0114
   24MOL   C246 8112   3.796   2.104   3.100  0.1542 -0.3730 -0.0106
   24MOL   C247 8113   3.835   2.097   2.962 -0.9714 -0.0449  0.6012
   24MOL   O248 8114   4.136   2.099   2.745  0.0225  0.1764  0.0989
   24MOL   H249 8115   3.978   1.945   2.589 -3.8845 -0.5897 -0.6305
   24MOL   H250 8116   3.841   1.953   2.702 -0.1367 -3.1444 -1.3861
   24MOL   H251 8117   3.950   2.172   2.726 -1.8037 -0.6966 -1.1889
   24MOL   H252 8118   4.170   2.060   2.980  0.6994  0.7740  0.2402
   24MOL   H253 8119   4.110   2.051   3.229 -0.4547 -0.9173  1.0839
   24MOL   H254 8120   3.870   2.086   3.298 -2.3132 -0.0091 -0.7839
   24MOL   H255 8121   3.691   2.111   3.124  0.0388 -2.0818  0.0671
   24MOL   H256 8122   3.767   2.105   2.879 -0.5191 -1.3986  0.0813
   24MOL   C257 8123   4.188   2.219   2.680  0.0782 -0.2313  0.1944
   24MOL   C258 8124   4.288   2.179   2.571  0.0285  0.2954 -0.5979
   24MOL   C259 8125   4.392   2.293   2.546 -0.2107  0.5554  0.3361
   24MOL   C260 8126   4.349   2.406   2.474 -0.3130  0.5260 -0.6845
   24MOL   C261 8127   4.442   2.493   2.433 -0.0823 -0.3772 -0.8627
   24MOL   C262 8128   4.581   2.474   2.464  0.3739  0.0722  0.0091
   24MOL   C263 8129   4.626   2.366   2.545  0.0873  0.8566  0.3748
   24MOL   C264 8130   4.530   2.275   2.581 -0.1432  0.0314 -0.3798
   24MOL   O265 8131   4.219   2.157   2.448 -0.0867 -0.0744  0.3483
   24MOL   H266 8132   4.258   2.257   2.754 -0.5039 -0.8981  1.1023
   24MOL   H267 8133   4.106   2.287   2.658 -0.9367 -1.6806 -0.6653
   24MOL   H268 8134   4.345   2.091   2.602 -0.7937 -0.1058 -0.1935
   24MOL   H269 8135   4.247   2.417   2.441 -0.1632  0.0778 -1.3040
   24MOL   H270 8136   4.415   2.568   2.360 -1.9455  0.8466  1.0149
   24MOL   H271 8137   4.659   2.528   2.413 -1.3521  1.7629 -0.8817
   24MOL   H272 8138   4.730   2.343   2.561  0.8619  4.9466  1.7898
   24MOL   H273 8139   4.562   2.177   2.612 -0.2165 -0.2402 -1.1584
   24MOL   C274 8140   4.294   2.073   2.352 -0.6832 -0.4389 -0.0842
   24MOL   C275 8141   4.227   2.057   2.215  0.0360  0.7431  0.0956
   24MOL   C276 8142   4.263   1.925   2.153  0.5342 -0.4554 -0.6651
   24MOL   C277 8143   4.373   1.905   2.071 -0.4916 -0.5053  0.1991
   24MOL   C278 8144   4.393   1.775   2.018 -0.6956  0.9549 -0.2780
   24MOL   C279 8145   4.310   1.663   2.052 -0.3021 -0.1869 -0.3523
   24MOL   C280 8146   4.194   1.691   2.122 -0.0948  0.7182 -0.1130
   24MOL   C281 8147   4.169   1.819   2.174  0.4397 -0.1502 -0.7186
   24MOL   O282 8148   4.260   2.166   2.124  0.1218 -0.2637 -0.4768
   24MOL   H283 8149   4.394   2.111   2.332 -0.6758  0.0531  0.8905
   24MOL   H284 8150   4.319   1.978   2.399  1.6626  1.2974  2.3387
   24MOL   H285 8151   4.121   2.046   2.235 -0.2536 -3.8931 -3.3462
   24MOL   H286 8152   4.444   1.986   2.059 -0.5611 -0.4204  0.3586
   24MOL   H287 8153   4.482   1.752   1.960 -1.2201 -1.6401 -0.1159
   24MOL   H288 8154   4.331   1.562   2.018 -0.4550  0.1215 -1.3975
   24MOL   H289 8155   4.125   1.617   2.160  1.7061 -0.9762 -0.0382
   24MOL   H290 8156   4.072   1.832   2.219  0.3918  0.5884 -1.0153
   24MOL   C291 8157   4.175   2.283   2.138  0.8201 -0.0789  0.2233
   24MOL   C292 8158   4.218   2.401   2.049 -0.5675  0.3103 -0.1063
   24MOL   C293 8159   4.352   2.463   2.089 -0.4210 -0.3740 -0.4825
   24MOL   C294 8160   4.361   2.606   2.092  0.3272 -0.3355 -0.0538
   24MOL   C295 8161   4.482   2.670   2.122 -0.2365  0.4959  0.6649
   24MOL   C296 8162   4.597   2.598   2.150 -0.6114 -0.3238 -0.1787
   24MOL   C297 8163   4.594   2.455   2.134 -0.4072  0.2523  0.7706
   24MOL   C298 8164   4.471   2.391   2.103  0.0803 -0.1596 -0.3933
   24MOL   O299 8165   4.231   2.351   1.915 -0.2751  0.6885 -0.6770
   24MOL   H300 8166   4.164   2.314   2.242  1.5630  1.9729 -0.2705
   24MOL   H301 8167   4.073   2.261   2.106  0.7084  1.9525 -0.9435
   24MOL   H302 8168   4.133   2.468   2.041 -1.7196 -0.7226  2.7184
   24MOL   H303 8169   4.270   2.665   2.084  0.4463 -0.1688 -0.1927
   24MOL   H304 8170   4.489   2.777   2.121  0.2653  0.4637  0.4163
   24MOL   H305 8171   4.684   2.648   2.190 -0.0534 -0.7039 -0.9161
   24MOL   H306 8172   4.679   2.391   2.150 -1.8793 -2.3160 -1.3659
   24MOL   H307 8173   4.468   2.285   2.082 -1.3692  0.0377 -1.2584
   24MOL   C308 8174   4.241   2.448   1.813 -0.3284 -0.1387 -0.2742
   24MOL   C309 8175   4.165   2.392   1.689  0.1272 -0.7066  0.2302
   24MOL   C310 8176   4.016   2.374   1.727 -0.2212  0.1784 -0.2785
   24MOL   C311 8177   3.929   2.478   1.695  0.0015 -0.0759 -0.2700
   24MOL   C312 8178   3.798   2.476   1.741 -0.2827 -0.3766 -0.3033
   24MOL   C313 8179   3.747   2.364   1.802 -0.3702  0.0555 -0.3297
   24MOL   C314 8180   3.835   2.257   1.836 -0.1405  0.1211  0.7059
   24MOL   C315 8181   3.972   2.262   1.793 -0.2596  0.3598  0.7586
   24MOL   O316 8182   4.188   2.486   1.586 -0.9400 -0.3068 -0.0173
   24MOL   H317 8183   4.345   2.457   1.782 -0.6604 -1.0479 -1.7111
   24MOL   H318 8184   4.187   2.536   1.845  0.7535  0.9356 -1.3245
   24MOL   H319 8185   4.211   2.297   1.665  0.8193 -0.9182  2.3170
   24MOL   H320 8186   3.964   2.573   1.656 -4.3871  1.2114 -1.3448
   24MOL   H321 8187   3.731   2.561   1.734  2.6144  1.8595 -2.2681
   24MOL   H322 8188   3.644   2.349   1.831 -0.6887 -2.1823 -2.5372
   24MOL   H323 8189   3.803   2.170   1.891 -3.7534 -0.0706 -1.5708
   24MOL   H324 8190   4.039   2.184   1.826 -1.3500 -0.3148  1.4572
   24MOL   C325 8191   4.306   2.462   1.504  0.7254 -0.7837  0.6807
   24MOL   C326 8192   4.291   2.553   1.386 -0.2530 -0.3611  0.1580
   24MOL   C327 8193   4.194   2.497   1.288  0.9002  0.5560 -0.6314
   24MOL   C328 8194   4.061   2.454   1.314  0.6794  0.3376 -0.1370
   24MOL   C329 8195   3.985   2.385   1.212 -0.3442  0.6987 -0.1638
   24MOL   C330 8196   4.031   2.370   1.082  0.6364  0.3112  0.0346
   24MOL   C331 8197   4.160   2.420   1.057  0.1224  0.4165 -0.1361
   24MOL   C332 8198   4.238   2.490   1.154  0.3988 -0.1098 -0.6229
   24MOL   O333 8199   4.250   2.675   1.446 -0.3902  0.2382  0.2623
   24MOL   H334 8200   4.310   2.360   1.465  2.8191 -0.3534 -0.2993
   24MOL   H335 8201   4.395   2.489   1.560  0.2629 -0.8673  1.4664
   24MOL   H336 8202   4.386   2.570   1.336 -0.1386 -2.1937 -0.2558
   24MOL   H337 8203   4.011   2.461   1.409  0.6863 -0.3939 -0.0797
   24MOL   H338 8204   3.881   2.359   1.230  0.2427 -1.9441 -0.3050
   24MOL   H339 8205   3.965   2.322   1.012 -0.7636 -0.7273  2.0245
   24MOL   H340 8206   4.196   2.415   0.955 -0.5189  1.6047 -0.4286
   24MOL   H341 8207   4.330   2.535   1.121  1.2736 -0.4234  1.3046
   24MOL   H342 8208   4.166   2.659   1.486  0.2270 -0.8374  1.1654
   25MOL     C1 8209   2.942   7.861   7.640  0.6017  0.0644  0.4727
   25MOL     C2 8210   2.821   7.940   7.581 -0.2152  0.0337 -0.5562
   25MOL     C3 8211   2.827   0.012   7.610  0.3394 -0.2505 -0.5369
   25MOL     C4 8212   2.907   0.093   7.533 -0.6082 -0.3743 -1.0108
   25MOL     C5 8213   2.933   0.227   7.568  0.0341 -0.0228 -0.5056
   25MOL     C6 8214   2.861   0.286   7.674  0.0776 -0.7233  0.0282
   25MOL     C7 8215   2.773   0.204   7.745 -0.3421 -0.0088  0.1834
   25MOL     C8 8216   2.755   0.067   7.719  0.1357  0.3485  0.2882
   25MOL     O9 8217   2.697   7.879   7.619 -0.3178  0.3183  0.3930
   25MOL    H10 8218   2.948   7.875   7.748 -0.5391 -2.4578  0.9077
   25MOL    H11 8219   2.927   7.754   7.623 -1.2861  0.5143 -0.8615
   25MOL    H12 8220   2.822   7.931   7.473 -0.7072  0.0318 -0.5645
   25MOL    H13 8221   2.968   0.054   7.452  0.3951 -2.2690  0.6125
   25MOL    H14 8222   3.008   0.287   7.517  1.1933 -0.2566  0.8885
   25MOL    H15 8223   2.886   0.385   7.709 -0.6475 -0.3974 -0.3608
   25MOL    H16 8224   2.715   0.234   7.831  0.0724  0.4988  0.2902
   25MOL    H17 8225   2.688   0.015   7.785 -1.5676 -0.7910 -2.2478
   25MOL    H18 8226   3.041   7.882   7.602  1.5397 -2.8143  1.1926
   25MOL    C19 8227   2.586   7.928   7.541  0.1911 -0.0339 -0.6946
   25MOL    C20 8228   2.482   7.820   7.535  0.1042  0.4335  0.2324
   25MOL    C21 8229   2.425   7.773   7.673 -1.1223 -0.0406 -0.1115
   25MOL    C22 8230   2.486   7.663   7.734  0.0183  0.3281 -0.2095
   25MOL    C23 8231   2.435   7.610   7.851 -0.2784 -1.1311 -0.4363
   25MOL    C24 8232   2.324   7.676   7.905 -0.5304  0.1541 -0.6558
   25MOL    C25 8233   2.267   7.792   7.849  0.1152 -0.6894  1.2361
   25MOL    C26 8234   2.320   7.844   7.732 -0.1434 -0.1952  0.8547
   25MOL    O27 8235   2.546   7.718   7.455  0.7190  0.1124 -0.0258
   25MOL    H28 8236   2.548   8.013   7.598  1.5787 -0.3871  0.7924
   25MOL    H29 8237   2.607   7.955   7.438 -1.5531 -1.4049 -1.4439
   25MOL    H30 8238   2.395   7.853   7.478  0.5703 -1.4636 -1.6207
   25MOL    H31 8239   2.564   7.597   7.698  0.2552 -0.3058  1.4052
   25MOL    H32 8240   2.491   7.527   7.892 -1.1221 -2.7863 -2.5861
   25MOL    H33 8241   2.288   7.635   7.998  0.7864  0.2565 -0.0969
   25MOL    H34 8242   2.180   7.839   7.892 -3.2339 -2.6149 -3.0974
   25MOL    H35 8243   2.274   7.937   7.703  2.5626  0.8819 -0.0645
   25MOL    C36 8244   2.458   7.611   7.414  0.0776 -0.1112 -0.4035
   25MOL    C37 8245   2.492   7.554   7.274  0.8446  0.5674 -0.3790
   25MOL    C38 8246   2.423   7.623   7.157 -0.6527 -0.0321  0.3606
   25MOL    C39 8247   2.347   7.553   7.059  0.0487 -0.3093  0.4225
   25MOL    C40 8248   2.301   7.618   6.941  0.9923 -0.2223  0.3878
   25MOL    C41 8249   2.319   7.758   6.930 -0.7546 -0.2632 -0.1533
   25MOL    C42 8250   2.385   7.833   7.028  0.8182 -0.6494 -0.2099
   25MOL    C43 8251   2.454   7.765   7.132  0.7219 -0.3904 -0.0335
   25MOL    O44 8252   2.458   7.412   7.280 -0.0164  0.0137 -0.0577
   25MOL    H45 8253   2.477   7.532   7.487  0.3530  1.1179  0.8580
   25MOL    H46 8254   2.354   7.642   7.418 -0.1142 -0.9289  1.8286
   25MOL    H47 8255   2.595   7.587   7.258  1.1271 -0.1173 -0.0204
   25MOL    H48 8256   2.333   7.446   7.068 -0.7802 -0.1851  0.6760
   25MOL    H49 8257   2.236   7.570   6.869 -0.1296  2.4788 -0.4677
   25MOL    H50 8258   2.286   7.810   6.841 -1.3187  0.2347  0.3409
   25MOL    H51 8259   2.394   7.939   7.014 -0.4497 -0.3318  1.2507
   25MOL    H52 8260   2.519   7.824   7.195  0.9900  0.6070 -1.2012
   25MOL    C53 8261   2.568   7.326   7.288 -0.2458 -0.0229  0.4572
   25MOL    C54 8262   2.527   7.180   7.329 -1.2657  0.0898 -0.0294
   25MOL    C55 8263   2.449   7.163   7.457 -0.1512 -0.1812 -0.4569
   25MOL    C56 8264   2.350   7.060   7.472 -0.2118  0.4615  0.0259
   25MOL    C57 8265   2.295   7.024   7.599  0.5417 -0.5790 -0.1396
   25MOL    C58 8266   2.343   7.094   7.711 -0.2948  0.8861  0.3027
   25MOL    C59 8267   2.439   7.197   7.702  0.2242  0.0651  0.2392
   25MOL    C60 8268   2.493   7.226   7.573 -0.4420  0.1036 -0.5770
   25MOL    O61 8269   2.465   7.126   7.215 -0.5631 -0.0280 -0.1252
   25MOL    H62 8270   2.627   7.331   7.196 -1.4961  2.9716 -0.2169
   25MOL    H63 8271   2.628   7.364   7.371  0.2111 -1.0374  0.5970
   25MOL    H64 8272   2.627   7.142   7.351 -0.8012  2.0318  1.3320
   25MOL    H65 8273   2.330   6.997   7.387 -0.6999  0.4747  0.1337
   25MOL    H66 8274   2.225   6.942   7.609 -1.0585  0.8627  0.8949
   25MOL    H67 8275   2.311   7.064   7.810  0.6489 -2.5499 -0.3640
   25MOL    H68 8276   2.463   7.246   7.796  1.3346  0.2977 -0.1610
   25MOL    H69 8277   2.563   7.307   7.557  0.8314 -0.5329  1.5266
   25MOL    C70 8278   2.554   7.039   7.157 -0.2107 -0.1893 -0.0867
   25MOL    C71 8279   2.512   6.970   7.027  0.2345  0.0516  0.3919
   25MOL    C72 8280   2.444   7.054   6.916 -0.1357 -0.0351  1.0654
   25MOL    C73 8281   2.431   7.192   6.920  0.1942 -0.1381 -0.6909
   25MOL    C74 8282   2.378   7.266   6.809 -0.1075 -0.4702 -0.5974
   25MOL    C75 8283   2.343   7.196   6.691  0.2917 -0.2833 -0.0733
   25MOL    C76 8284   2.358   7.058   6.686 -0.7654  0.7821 -0.3126
   25MOL    C77 8285   2.406   6.991   6.798 -0.0640 -0.4187  0.7310
   25MOL    O78 8286   2.442   6.846   7.077 -0.4427  0.2593  0.3688
   25MOL    H79 8287   2.643   7.092   7.123 -0.3846  0.4165  0.3992
   25MOL    H80 8288   2.583   6.961   7.227  1.9670 -1.0294 -1.8595
   25MOL    H81 8289   2.590   6.934   6.960  0.1094 -0.6766  0.6359
   25MOL    H82 8290   2.459   7.234   7.015 -2.0067 -2.0402  0.8403
   25MOL    H83 8291   2.358   7.372   6.813  1.9115 -0.1169  1.4956
   25MOL    H84 8292   2.311   7.250   6.603 -1.0478 -0.5884  0.2128
   25MOL    H85 8293   2.311   6.997   6.611 -2.5742  0.5242  0.9882
   25MOL    H86 8294   2.424   6.884   6.800  0.5193 -0.3618 -0.9285
   25MOL    C87 8295   2.301   6.847   7.080 -0.2229 -0.1880 -0.2459
   25MOL    C88 8296   2.241   6.769   7.200 -0.1553  0.1988  0.6456
   25MOL    C89 8297   2.258   6.623   7.181 -0.1916 -0.1448  0.1562
   25MOL    C90 8298   2.152   6.536   7.129 -0.3321 -0.5024 -0.2206
   25MOL    C91 8299   2.172   6.398   7.143 -0.1390 -0.3237 -0.0425
   25MOL    C92 8300   2.297   6.347   7.181 -0.7583  0.8435  0.4179
   25MOL    C93 8301   2.405   6.432   7.218 -0.3341 -0.2699 -0.3779
   25MOL    C94 8302   2.385   6.571   7.221 -0.2570  1.2558  0.4115
   25MOL    O95 8303   2.101   6.801   7.192  0.3647  0.5461  0.2413
   25MOL    H96 8304   2.261   6.814   6.984 -0.9415  1.5618 -0.5623
   25MOL    H97 8305   2.270   6.950   7.097  2.2424  0.3095  1.4835
   25MOL    H98 8306   2.287   6.804   7.292 -4.5117  3.0498  1.8394
   25MOL    H99 8307   2.058   6.574   7.093 -0.2400  0.8171  0.8588
   25MOL   H100 8308   2.091   6.331   7.118 -0.9196  1.1296 -1.5309
   25MOL   H101 8309   2.318   6.241   7.189 -0.0192  0.9061 -0.5456
   25MOL   H102 8310   2.494   6.381   7.250  0.0497 -0.1716 -1.2641
   25MOL   H103 8311   2.457   6.646   7.251 -0.3134  1.4028  0.1808
   25MOL   C104 8312   2.011   6.769   7.303  0.0669 -0.4002  0.5531
   25MOL   C105 8313   1.871   6.796   7.259  0.7774 -0.7714 -0.3854
   25MOL   C106 8314   1.834   6.672   7.184  0.7327 -0.2836 -0.2807
   25MOL   C107 8315   1.829   6.672   7.044 -0.1126 -0.2891 -0.4593
   25MOL   C108 8316   1.782   6.559   6.971 -0.0911 -0.5022 -0.5201
   25MOL   C109 8317   1.758   6.439   7.040 -0.1072  0.3317 -0.6796
   25MOL   C110 8318   1.754   6.441   7.180  0.1153 -0.3167 -0.0285
   25MOL   C111 8319   1.796   6.557   7.254 -0.2057  0.4195 -0.2702
   25MOL   O112 8320   1.790   6.806   7.374  0.3419 -0.4586 -0.7487
   25MOL   H113 8321   2.020   6.663   7.327  1.4368 -0.4788 -0.2738
   25MOL   H114 8322   2.040   6.831   7.387  2.4477  0.4438 -0.8397
   25MOL   H115 8323   1.864   6.893   7.209  0.0974  0.1421  1.4031
   25MOL   H116 8324   1.848   6.762   6.988  2.5052 -0.4411  0.1321
   25MOL   H117 8325   1.770   6.557   6.864  1.1665 -1.4977 -0.6576
   25MOL   H118 8326   1.720   6.355   6.983 -0.8940  0.7556 -0.7795
   25MOL   H119 8327   1.724   6.349   7.228 -1.4166  0.1128 -0.1396
   25MOL   H120 8328   1.783   6.553   7.361 -0.2838 -0.4157 -0.3053
   25MOL   C121 8329   1.754   6.937   7.415  0.1844 -0.9386 -0.4248
   25MOL   C122 8330   1.713   6.930   7.559  0.2952 -0.3338 -0.1625
   25MOL   C123 8331   1.826   6.907   7.653 -0.5350 -0.1627  0.3101
   25MOL   C124 8332   1.916   7.008   7.697  0.3175 -0.0309 -0.0213
   25MOL   C125 8333   2.009   6.987   7.794 -0.2168 -0.1310  0.4947
   25MOL   C126 8334   2.024   6.857   7.842 -0.5527  1.3167  0.8677
   25MOL   C127 8335   1.943   6.752   7.802 -0.3583  0.2582 -0.0698
   25MOL   C128 8336   1.838   6.779   7.715  0.6003 -0.4153  0.1208
   25MOL   O129 8337   1.655   7.054   7.591 -0.2261 -0.1390 -0.1414
   25MOL   H130 8338   1.666   6.972   7.360  0.7593  0.1934 -0.6456
   25MOL   H131 8339   1.839   7.004   7.399  0.1878 -1.1843 -1.4820
   25MOL   H132 8340   1.643   6.847   7.570  0.7538 -0.5429  1.2824
   25MOL   H133 8341   1.895   7.110   7.670  2.2201 -0.5363 -3.7195
   25MOL   H134 8342   2.071   7.068   7.831  3.3504 -2.8512  0.6921
   25MOL   H135 8343   2.101   6.824   7.911 -0.7848 -2.1162 -0.3937
   25MOL   H136 8344   1.953   6.649   7.833 -0.6255  0.4431  0.6379
   25MOL   H137 8345   1.776   6.698   7.678 -1.4704  1.4590 -0.6114
   25MOL   C138 8346   1.515   7.054   7.595 -0.2338 -0.0963  0.0955
   25MOL   C139 8347   1.460   7.194   7.565  0.5769  0.6936  0.0061
   25MOL   C140 8348   1.314   7.186   7.554  0.8527 -0.5880  0.7117
   25MOL   C141 8349   1.232   7.234   7.656  0.3714 -0.5899 -0.0289
   25MOL   C142 8350   1.088   7.238   7.641 -0.7909 -0.0161 -0.4545
   25MOL   C143 8351   1.033   7.188   7.518 -0.3523 -0.6168 -0.2507
   25MOL   C144 8352   1.115   7.126   7.420 -0.0764  0.5900  0.7531
   25MOL   C145 8353   1.255   7.122   7.442  0.7863 -0.8028  0.1335
   25MOL   O146 8354   1.498   7.285   7.673  0.3293 -0.0504  0.1287
   25MOL   H147 8355   1.463   7.019   7.685  1.5569 -0.1185  1.1529
   25MOL   H148 8356   1.487   6.989   7.512 -2.3325  1.1060 -0.1617
   25MOL   H149 8357   1.505   7.226   7.472 -3.0375  2.6429 -1.1495
   25MOL   H150 8358   1.269   7.281   7.746 -2.9686  1.1778  0.5041
   25MOL   H151 8359   1.021   7.283   7.712  1.4181  0.3107  1.4693
   25MOL   H152 8360   0.927   7.189   7.498 -0.7807 -1.0519  1.8409
   25MOL   H153 8361   1.073   7.088   7.328 -0.0838 -2.0756  1.7995
   25MOL   H154 8362   1.317   7.076   7.367 -0.9478 -0.9623 -1.2475
   25MOL   C155 8363   1.618   7.363   7.653  0.3551  0.6508  0.2497
   25MOL   C156 8364   1.672   7.393   7.794 -0.8424 -0.1220  0.2687
   25MOL   C157 8365   1.822   7.430   7.780  0.0670  0.0193  0.4170
   25MOL   C158 8366   1.864   7.529   7.695 -0.5903 -0.2077 -0.6237
   25MOL   C159 8367   1.998   7.545   7.670 -0.2712  0.0687 -0.3410
   25MOL   C160 8368   2.094   7.461   7.739  0.3297 -0.3722  0.3816
   25MOL   C161 8369   2.052   7.362   7.820 -0.2024 -0.6959 -0.4926
   25MOL   C162 8370   1.911   7.342   7.838 -0.2301 -1.0607 -0.0414
   25MOL   O163 8371   1.602   7.499   7.864  0.0814 -0.0938  0.2656
   25MOL   H164 8372   1.586   7.442   7.585  1.5069 -0.3774 -1.5321
   25MOL   H165 8373   1.688   7.295   7.605 -0.4929 -0.9721  1.2675
   25MOL   H166 8374   1.670   7.296   7.844 -0.9008  0.0238  0.5547
   25MOL   H167 8375   1.792   7.596   7.649 -2.5658 -0.8418  1.4369
   25MOL   H168 8376   2.029   7.634   7.618 -2.1018  1.3773  0.7470
   25MOL   H169 8377   2.197   7.485   7.719  0.4027 -0.9790  0.0039
   25MOL   H170 8378   2.124   7.297   7.867 -0.1289 -0.3326 -0.0981
   25MOL   H171 8379   1.892   7.263   7.909 -1.0227  0.4970  1.5079
   25MOL   C172 8380   1.639   7.528   7.998  0.0798 -0.8033 -0.1648
   25MOL   C173 8381   1.593   7.417   0.020 -0.4147  0.5103 -0.2756
   25MOL   C174 8382   1.608   7.462   0.161 -0.2278  0.4367  0.2203
   25MOL   C175 8383   1.512   7.538   0.233  0.0042 -0.0422  0.3024
   25MOL   C176 8384   1.537   7.594   0.359 -0.5190 -0.8041 -0.1736
   25MOL   C177 8385   1.658   7.569   0.422 -0.5254  0.1797  0.1076
   25MOL   C178 8386   1.754   7.487   0.361  0.1235 -0.0165  0.3178
   25MOL   C179 8387   1.724   7.437   0.228 -0.3777 -0.6226 -0.8956
   25MOL   O180 8388   1.653   7.301   8.075  0.0877  0.0330 -0.5247
   25MOL   H181 8389   1.744   7.551   8.019 -0.0707 -0.7260  0.5053
   25MOL   H182 8390   1.581   7.616   8.023 -2.0286 -2.4501  0.9312
   25MOL   H183 8391   1.485   7.408   0.008 -0.1992 -0.0568 -1.9770
   25MOL   H184 8392   1.417   7.554   0.182  0.7607  0.4393 -0.9735
   25MOL   H185 8393   1.460   7.661   0.396 -0.3765 -1.0201  0.5316
   25MOL   H186 8394   1.679   7.608   0.521  0.4459  1.0549 -0.4254
   25MOL   H187 8395   1.855   7.485   0.397  0.9653  4.0841 -1.5567
   25MOL   H188 8396   1.807   7.392   0.176  1.5382  1.9092 -0.1023
   25MOL   C189 8397   1.593   7.195   0.057  0.3477  0.2226 -0.0128
   25MOL   C190 8398   1.664   7.081   0.011 -0.4937 -0.2479  0.2823
   25MOL   C191 8399   1.583   6.957   0.034  0.0596  0.0615 -0.2150
   25MOL   C192 8400   1.545   6.919   0.162 -0.8063 -0.3865  0.1682
   25MOL   C193 8401   1.478   6.798   0.193 -0.3854 -0.3206  0.1778
   25MOL   C194 8402   1.438   6.722   0.082 -0.1553  0.0703 -0.7571
   25MOL   C195 8403   1.469   6.759   8.030 -0.3606 -0.9063 -0.3063
   25MOL   C196 8404   1.536   6.882   8.003 -0.2167 -0.0755  0.2046
   25MOL   O197 8405   1.786   7.081   0.095  0.0561  0.2069  0.0164
   25MOL   H198 8406   1.592   7.195   0.166 -0.5037 -0.9365 -0.0061
   25MOL   H199 8407   1.488   7.190   0.028  0.2110  0.8149  0.3798
   25MOL   H200 8408   1.682   7.085   7.983 -2.1634 -1.4473 -0.0724
   25MOL   H201 8409   1.583   6.975   0.245 -2.0478  1.6653 -0.6107
   25MOL   H202 8410   1.464   6.760   0.294 -0.2327  2.5791  1.3426
   25MOL   H203 8411   1.392   6.626   0.096  0.6237 -0.5166 -2.1220
   25MOL   H204 8412   1.446   6.691   7.950  3.5031 -0.8506 -1.5903
   25MOL   H205 8413   1.541   6.912   7.900  0.3394  0.2479  0.3277
   25MOL   C206 8414   1.901   7.033   0.031  0.9367 -0.1123 -0.6954
   25MOL   C207 8415   2.017   7.037   0.129 -0.5866  0.0260  0.0228
   25MOL   C208 8416   2.152   7.051   0.071 -0.0986  0.6104  0.4427
   25MOL   C209 8417   2.242   6.945   0.077 -1.0220 -0.1402 -0.3514
   25MOL   C210 8418   2.385   6.968   0.059  1.1564  0.0452  0.2694
   25MOL   C211 8419   2.433   7.099   0.033  0.0439 -0.0379  1.2568
   25MOL   C212 8420   2.338   7.207   0.018  0.1303 -0.3740  0.0104
   25MOL   C213 8421   2.204   7.180   0.043 -0.0506  0.2754  0.0427
   25MOL   O214 8422   2.017   6.921   0.219  0.5858  0.0367 -0.0861
   25MOL   H215 8423   1.877   6.933   8.074  0.5136 -0.4873  0.5702
   25MOL   H216 8424   1.924   7.093   8.023  1.2242 -1.7304 -1.7302
   25MOL   H217 8425   2.007   7.125   0.193 -0.0634 -1.1453  1.7269
   25MOL   H218 8426   2.202   6.845   0.083  0.4742 -0.7072  0.3968
   25MOL   H219 8427   2.454   6.885   0.062  0.5281 -0.5577 -1.0865
   25MOL   H220 8428   2.539   7.118   0.021 -0.0033 -0.3575  0.2706
   25MOL   H221 8429   2.374   7.308   0.006 -0.1887 -0.2031  0.5064
   25MOL   H222 8430   2.127   7.256   0.039  0.1705  0.5747  1.2668
   25MOL   C223 8431   1.900   6.907   0.300 -0.8687  0.4309  0.2982
   25MOL   C224 8432   1.935   6.797   0.399 -0.0727 -0.1225  0.0983
   25MOL   C225 8433   1.836   6.781   0.507  0.2164 -0.4579  0.8160
   25MOL   C226 8434   1.711   6.724   0.479  0.3890 -0.1221  0.8317
   25MOL   C227 8435   1.625   6.686   0.589  0.0907  0.4477  0.1381
   25MOL   C228 8436   1.665   6.724   0.718  0.8971 -0.6153  0.5435
   25MOL   C229 8437   1.780   6.803   0.736 -0.0641  1.0495 -0.5329
   25MOL   C230 8438   1.871   6.825   0.634 -0.0202  0.1985 -0.7055
   25MOL   O231 8439   1.970   6.681   0.341 -0.5459  0.2937 -0.0065
   25MOL   H232 8440   1.887   7.001   0.353  0.1367  0.2089  0.9531
   25MOL   H233 8441   1.811   6.873   0.246  0.0470 -1.3438 -0.1186
   25MOL   H234 8442   2.026   6.837   0.445  0.1137 -2.6693  2.0663
   25MOL   H235 8443   1.692   6.687   0.380  0.4437 -0.7850  1.0617
   25MOL   H236 8444   1.530   6.636   0.573  0.8653 -0.9338 -0.2434
   25MOL   H237 8445   1.598   6.719   0.802  0.4185  4.1768  0.6027
   25MOL   H238 8446   1.793   6.844   0.835 -3.1725 -2.7184  1.5320
   25MOL   H239 8447   1.962   6.880   0.653 -0.0716  0.2737 -0.6769
   25MOL   C240 8448   1.982   6.564   0.422 -0.1945  0.1681  0.5611
   25MOL   C241 8449   2.105   6.484   0.371 -0.3192  0.5165  0.3949
   25MOL   C242 8450   2.235   6.561   0.390  0.1440 -0.1469 -0.6003
   25MOL   C243 8451   2.283   6.647   0.292 -0.4589  0.3817 -0.1141
   25MOL   C244 8452   2.403   6.724   0.309  0.4700  0.5474  0.0739
   25MOL   C245 8453   2.482   6.710   0.423 -0.2579  0.1394  0.1012
   25MOL   C246 8454   2.433   6.627   0.526 -0.2263  0.1288 -0.4825
   25MOL   C247 8455   2.307   6.558   0.513 -0.4445 -0.1382  0.6953
   25MOL   O248 8456   2.106   6.358   0.434 -0.5463 -0.0514 -0.0128
   25MOL   H249 8457   2.004   6.583   0.527  0.6905  0.4839  0.3162
   25MOL   H250 8458   1.896   6.499   0.406  1.0608 -1.3994  0.0183
   25MOL   H251 8459   2.089   6.469   0.264 -1.7299  1.1240  0.5148
   25MOL   H252 8460   2.230   6.661   0.199 -1.1557  2.4622  0.5855
   25MOL   H253 8461   2.438   6.800   0.241  0.3876  1.2045  0.7640
   25MOL   H254 8462   2.572   6.769   0.424 -0.4054  0.4520 -2.1271
   25MOL   H255 8463   2.478   6.620   0.624 -1.2114  1.0371  0.0470
   25MOL   H256 8464   2.256   6.506   0.592  1.1579 -1.0984  1.1401
   25MOL   C257 8465   2.211   6.267   0.399  0.3273  0.5035  0.2258
   25MOL   C258 8466   2.165   6.141   0.469 -0.3421  0.1654  0.6941
   25MOL   C259 8467   2.204   6.143   0.618  0.0671  0.5997  0.2054
   25MOL   C260 8468   2.300   6.052   0.664 -0.4695  0.1277 -0.2321
   25MOL   C261 8469   2.326   6.041   0.798  0.8100 -0.2025 -0.5139
   25MOL   C262 8470   2.269   6.132   0.889 -0.2154  0.1431 -0.3605
   25MOL   C263 8471   2.177   6.229   0.848 -0.6489  0.0338  0.1905
   25MOL   C264 8472   2.153   6.241   0.711  0.2050  0.2785  0.2771
   25MOL   O265 8473   2.212   6.033   0.385 -0.2170 -0.1738  0.4154
   25MOL   H266 8474   2.308   6.287   0.444  0.0930  2.1277  0.0591
   25MOL   H267 8475   2.222   6.268   0.290  1.7357  0.2089  0.3620
   25MOL   H268 8476   2.057   6.133   0.459 -0.0311 -2.2658 -1.1494
   25MOL   H269 8477   2.339   5.984   0.590 -1.8317 -0.5042 -0.3717
   25MOL   H270 8478   2.405   5.978   0.836 -0.9681 -2.9562 -1.2456
   25MOL   H271 8479   2.283   6.118   0.995  3.5165 -0.0873 -0.8081
   25MOL   H272 8480   2.144   6.310   0.913 -4.4043 -2.0074  0.9704
   25MOL   H273 8481   2.082   6.310   0.667  1.4439  1.5576  0.2648
   25MOL   C274 8482   2.136   5.906   0.406 -0.3352 -0.7516  0.1301
   25MOL   C275 8483   2.026   5.886   0.290  0.5101 -0.5745  0.4166
   25MOL   C276 8484   2.088   5.898   0.147 -0.7520  0.9020 -0.0070
   25MOL   C277 8485   2.175   5.806   0.083  0.3977 -0.5186 -0.2229
   25MOL   C278 8486   2.233   5.834   8.041  0.5179  0.6585  0.0820
   25MOL   C279 8487   2.200   5.951   7.973 -1.1169 -0.0516  1.0253
   25MOL   C280 8488   2.117   6.046   8.033 -0.0690  0.4962 -0.0662
   25MOL   C281 8489   2.055   6.019   0.079 -0.1256 -0.5688  0.2347
   25MOL   O282 8490   1.919   5.980   0.314 -0.4422 -0.1928  0.0651
   25MOL   H283 8491   2.219   5.840   0.380  2.0451  1.8818  0.7978
   25MOL   H284 8492   2.108   5.883   0.508  1.7556 -4.3824 -0.0229
   25MOL   H285 8493   1.990   5.783   0.294 -2.9547  0.6118  1.2385
   25MOL   H286 8494   2.198   5.713   0.133 -1.9135 -1.2090 -0.4003
   25MOL   H287 8495   2.300   5.762   7.997 -2.1293 -0.8300 -1.6673
   25MOL   H288 8496   2.256   5.968   7.882  0.2244 -1.9061  1.4826
   25MOL   H289 8497   2.104   6.149   8.005 -2.7435 -0.1756 -1.4442
   25MOL   H290 8498   1.988   6.094   0.119 -0.5650 -0.0995 -1.3739
   25MOL   C291 8499   1.791   5.951   0.248  0.4051 -0.4675 -0.1843
   25MOL   C292 8500   1.683   6.058   0.285  0.2877  0.4264  0.4461
   25MOL   C293 8501   1.677   6.084   0.434  0.4908 -0.1612  0.7037
   25MOL   C294 8502   1.769   6.179   0.483 -0.7695  0.4257  0.2969
   25MOL   C295 8503   1.778   6.197   0.623  0.4084  0.3564 -0.2186
   25MOL   C296 8504   1.702   6.118   0.716 -0.5188  0.0093  0.6646
   25MOL   C297 8505   1.609   6.023   0.662  0.5439  0.1793 -0.9918
   25MOL   C298 8506   1.602   6.006   0.522  0.2819  0.0709 -0.5513
   25MOL   O299 8507   1.716   6.169   0.204 -0.1291 -0.0595 -0.1178
   25MOL   H300 8508   1.748   5.855   0.278  0.1677  0.3583  2.2007
   25MOL   H301 8509   1.790   5.939   0.139 -1.2603 -1.3070 -0.1023
   25MOL   H302 8510   1.586   6.023   0.250 -0.1288 -0.1948  2.1761
   25MOL   H303 8511   1.834   6.244   0.425 -2.6165  0.6365 -1.5831
   25MOL   H304 8512   1.850   6.269   0.658  1.0683 -0.5631  0.3610
   25MOL   H305 8513   1.703   6.135   0.823 -0.4952  0.9734  0.5197
   25MOL   H306 8514   1.548   5.959   0.723  2.7084 -1.9228 -0.9530
   25MOL   H307 8515   1.540   5.927   0.481  2.2001 -1.2509 -1.0133
   25MOL   C308 8516   1.607   6.260   0.194  1.0201 -1.1289 -0.4514
   25MOL   C309 8517   1.616   6.325   0.049 -0.2049  0.0966 -0.1012
   25MOL   C310 8518   1.743   6.402   0.033 -0.4635  1.0232 -0.6139
   25MOL   C311 8519   1.758   6.521   0.105  0.0049  0.0760  0.2311
   25MOL   C312 8520   1.866   6.606   0.084  0.0481 -0.3728  0.3569
   25MOL   C313 8521   1.979   6.557   0.008  0.7223  0.1334  0.5338
   25MOL   C314 8522   1.967   6.431   8.024  0.4154  0.1239 -0.9386
   25MOL   C315 8523   1.850   6.349   8.042 -0.1444  0.1234 -0.0835
   25MOL   O316 8524   1.597   6.227   8.025  0.1113 -0.6252  0.2364
   25MOL   H317 8525   1.633   6.330   0.274  2.8654 -1.8078 -0.4344
   25MOL   H318 8526   1.512   6.208   0.209  0.4033 -0.5729 -2.2914
   25MOL   H319 8527   1.544   6.406   0.041  0.6830  0.8623 -0.4502
   25MOL   H320 8528   1.671   6.550   0.162  0.8711  1.8215  0.6793
   25MOL   H321 8529   1.858   6.707   0.123 -0.2310  0.3733 -1.5942
   25MOL   H322 8530   2.068   6.618   8.077  0.7396  0.1943  1.0007
   25MOL   H323 8531   2.050   6.392   7.967  1.5714 -0.5238  1.1150
   25MOL   H324 8532   1.840   6.255   7.989  1.0772  0.0277 -0.1524
   25MOL   C325 8533   1.560   6.277   7.900  0.1856 -0.6761 -0.3462
   25MOL   C326 8534   1.405   6.279   7.884 -0.3993  0.3162  0.0982
   25MOL   C327 8535   1.321   6.153   7.918 -0.4032  0.6748 -0.0874
   25MOL   C328 8536   1.285   6.058   7.819  0.0629  0.1261  0.1553
   25MOL   C329 8537   1.219   5.938   7.852 -0.6868  0.2370 -0.6868
   25MOL   C330 8538   1.176   5.912   7.983 -0.0131  0.0762  0.2797
   25MOL   C331 8539   1.211   6.010   8.078  0.0251 -0.5340 -0.7007
   25MOL   C332 8540   1.285   6.123   8.052  0.1870 -0.7001  0.0438
   25MOL   O333 8541   1.360   6.389   7.954 -0.6572 -0.0192 -0.3687
   25MOL   H334 8542   1.593   6.203   7.827 -1.1501 -1.5458 -0.0793
   25MOL   H335 8543   1.604   6.367   7.855 -1.2374  0.4176  0.4097
   25MOL   H336 8544   1.388   6.298   7.778  2.3496  0.2056 -0.4109
   25MOL   H337 8545   1.313   6.068   7.715  1.5723 -2.0456  0.2999
   25MOL   H338 8546   1.186   5.873   7.773  0.7748 -2.2065  0.6234
   25MOL   H339 8547   1.116   5.828   8.017 -3.6958  2.3828 -0.2994
   25MOL   H340 8548   1.165   6.003   0.095 -1.0998  0.7415 -1.1227
   25MOL   H341 8549   1.312   6.195   0.047 -0.3377  1.1350 -1.4882
   25MOL   H342 8550   1.268   6.409   7.939 -0.3341  1.4499 -0.5513
   26MOL     C1 8551   7.518   3.590   6.214 -0.3511  0.1289  0.0699
   26MOL     C2 8552   7.371   3.552   6.241 -0.3040  0.5800  0.3243
   26MOL     C3 8553   7.357   3.409   6.287  0.0086  0.0761  0.7377
   26MOL     C4 8554   7.310   3.378   6.414 -0.1708  0.0310 -0.2769
   26MOL     C5 8555   7.301   3.248   6.461  0.4193 -0.1271  0.2566
   26MOL     C6 8556   7.335   3.140   6.373 -0.1414  0.4703  0.8292
   26MOL     C7 8557   7.376   3.164   6.240 -0.1780 -0.4621 -0.1853
   26MOL     C8 8558   7.388   3.302   6.199  0.0573 -0.0008 -0.8907
   26MOL     O9 8559   7.318   3.569   6.115  0.3630 -0.5661 -0.2992
   26MOL    H10 8560   7.540   3.696   6.202  2.2346 -0.2723  0.9484
   26MOL    H11 8561   7.571   3.570   6.307 -2.2264  1.6006  1.4980
   26MOL    H12 8562   7.328   3.625   6.310 -1.8932 -0.1096  0.0824
   26MOL    H13 8563   7.274   3.454   6.481  1.3448 -0.3728  1.0118
   26MOL    H14 8564   7.284   3.234   6.567  1.2948 -1.3364  0.2533
   26MOL    H15 8565   7.316   3.038   6.404  1.5631  0.5836  2.3038
   26MOL    H16 8566   7.398   3.076   6.182 -2.2201 -0.9327 -0.2848
   26MOL    H17 8567   7.430   3.322   6.102 -0.0464  3.1780 -0.3393
   26MOL    H18 8568   7.559   3.529   6.132 -0.7561  0.8542 -0.6796
   26MOL    C19 8569   7.175   3.608   6.102 -0.0485 -0.4908 -0.2544
   26MOL    C20 8570   7.173   3.748   6.033 -0.6485  0.6883  0.0735
   26MOL    C21 8571   7.192   3.878   6.114 -0.4573 -0.0427  0.0702
   26MOL    C22 8572   7.086   3.961   6.150  0.3153 -0.9921  0.0980
   26MOL    C23 8573   7.108   4.073   6.231 -0.2482 -0.1187 -0.2164
   26MOL    C24 8574   7.235   4.107   6.271  0.8749  0.2605  0.6709
   26MOL    C25 8575   7.343   4.028   6.239 -0.0354 -0.0519  0.6538
   26MOL    C26 8576   7.320   3.913   6.158 -0.0317  0.0213 -0.3860
   26MOL    O27 8577   7.064   3.757   5.944 -0.1213 -0.0216  0.9138
   26MOL    H28 8578   7.125   3.539   6.034  1.5943 -0.8922 -1.0770
   26MOL    H29 8579   7.121   3.595   6.196  0.2673 -2.4780 -0.3235
   26MOL    H30 8580   7.267   3.738   5.979 -0.8564 -1.0142  0.0145
   26MOL    H31 8581   6.987   3.940   6.111  0.4681  0.1361 -0.9302
   26MOL    H32 8582   7.032   4.143   6.260 -0.5868 -0.6142  0.0990
   26MOL    H33 8583   7.261   4.196   6.327  1.1058 -0.2361  1.3561
   26MOL    H34 8584   7.442   4.062   6.267 -0.7326  1.0976  1.7570
   26MOL    H35 8585   7.404   3.849   6.132  0.2217  0.5518 -0.8832
   26MOL    C36 8586   7.077   3.706   5.808 -0.0932 -0.3875 -0.8645
   26MOL    C37 8587   7.165   3.797   5.722 -0.2871 -0.4365  1.1538
   26MOL    C38 8588   7.128   3.948   5.741 -0.3706 -0.3920 -0.1247
   26MOL    C39 8589   7.020   4.011   5.676  0.7044  0.3867  0.1497
   26MOL    C40 8590   6.995   4.149   5.691  0.0215  0.2526 -0.0114
   26MOL    C41 8591   7.079   4.224   5.774 -0.4225  0.0343  0.5541
   26MOL    C42 8592   7.186   4.164   5.845  0.0134  0.3927 -0.6887
   26MOL    C43 8593   7.219   4.023   5.824 -0.5886 -0.0605  1.3514
   26MOL    O44 8594   7.152   3.751   5.583 -0.6357 -0.4835  0.0125
   26MOL    H45 8595   7.122   3.607   5.800  0.6046  0.0872 -3.5442
   26MOL    H46 8596   6.973   3.701   5.774 -0.6169  2.0118  0.2922
   26MOL    H47 8597   7.268   3.786   5.754  0.2177  1.2691  0.1407
   26MOL    H48 8598   6.957   3.964   5.602 -0.0155 -0.4342  1.2796
   26MOL    H49 8599   6.912   4.206   5.653 -0.2811  0.6120  1.1701
   26MOL    H50 8600   7.043   4.325   5.793 -1.3597 -0.5708  2.1554
   26MOL    H51 8601   7.235   4.222   5.922 -2.2676  1.5665 -0.0864
   26MOL    H52 8602   7.302   3.976   5.875 -0.3973  1.7545  2.7689
   26MOL    C53 8603   7.236   3.820   5.486  0.1502 -0.4013 -0.2970
   26MOL    C54 8604   7.277   3.715   5.388  0.2781  0.2318  0.0185
   26MOL    C55 8605   7.155   3.649   5.312  0.0867 -0.3989  0.1858
   26MOL    C56 8606   7.128   3.684   5.179 -0.2456 -0.8838 -0.0727
   26MOL    C57 8607   7.015   3.636   5.111  0.8362  0.1917 -0.6012
   26MOL    C58 8608   6.919   3.554   5.177 -0.5997 -0.4816 -0.6650
   26MOL    C59 8609   6.945   3.520   5.311 -0.6626 -1.1205 -0.0594
   26MOL    C60 8610   7.061   3.567   5.377  0.9718  0.0480  0.8751
   26MOL    O61 8611   7.364   3.800   5.309 -0.7131 -0.3011 -0.0901
   26MOL    H62 8612   7.183   3.905   5.443  0.8455 -0.3768 -1.1046
   26MOL    H63 8613   7.329   3.856   5.532 -0.6477 -0.1228  1.1251
   26MOL    H64 8614   7.331   3.633   5.435 -0.7385 -1.5328 -1.8031
   26MOL    H65 8615   7.199   3.737   5.118 -0.7956  0.8278  0.7499
   26MOL    H66 8616   7.008   3.663   5.007  2.3470  1.3199 -0.4285
   26MOL    H67 8617   6.829   3.536   5.120 -0.1587 -1.5926 -1.0290
   26MOL    H68 8618   6.867   3.473   5.369 -1.2436  1.5430  1.3914
   26MOL    H69 8619   7.068   3.540   5.481 -0.3721  0.2511  1.0302
   26MOL    C70 8620   7.472   3.728   5.240 -0.1948  0.3744 -0.0940
   26MOL    C71 8621   7.536   3.808   5.128 -0.2828 -0.0333 -0.2500
   26MOL    C72 8622   7.436   3.828   5.018 -0.4740  0.3112 -0.2467
   26MOL    C73 8623   7.370   3.947   4.986 -1.1948 -0.2917  0.8778
   26MOL    C74 8624   7.293   3.968   4.872  0.2176 -0.4091 -0.3937
   26MOL    C75 8625   7.278   3.863   4.778 -0.8682 -0.0212 -0.3800
   26MOL    C76 8626   7.352   3.745   4.799  0.3912  0.5969 -0.0548
   26MOL    C77 8627   7.425   3.727   4.914 -0.4046 -0.0062 -0.3125
   26MOL    O78 8628   7.664   3.757   5.087  0.4509  0.3114  0.3571
   26MOL    H79 8629   7.547   3.716   5.318 -0.3003  1.2400  0.1403
   26MOL    H80 8630   7.430   3.639   5.193 -2.5440  2.0465 -1.2697
   26MOL    H81 8631   7.563   3.907   5.167 -0.3946  0.4247 -1.3098
   26MOL    H82 8632   7.375   4.027   5.058 -0.1939  0.5207 -0.0731
   26MOL    H83 8633   7.249   4.066   4.862  1.5838  0.3586  0.9288
   26MOL    H84 8634   7.226   3.877   4.684 -0.5606  2.9334 -0.1488
   26MOL    H85 8635   7.360   3.669   4.722  1.2046 -0.0337  0.6358
   26MOL    H86 8636   7.471   3.630   4.922  0.1690  0.0273 -2.7421
   26MOL    C87 8637   7.722   3.830   4.981 -0.6236 -0.3498  0.2891
   26MOL    C88 8638   7.790   3.968   5.020  0.2772 -0.8283  0.3188
   26MOL    C89 8639   7.834   4.043   4.896  0.0640  0.0832 -0.1128
   26MOL    C90 8640   7.934   3.995   4.811  0.4514 -0.4583  0.1457
   26MOL    C91 8641   7.969   4.073   4.698 -0.2087  0.0066  0.2042
   26MOL    C92 8642   7.902   4.198   4.670 -0.3930  0.3819 -0.3785
   26MOL    C93 8643   7.798   4.245   4.758 -1.4646 -0.2860  0.8485
   26MOL    C94 8644   7.769   4.164   4.871 -1.2019 -0.1150  0.5605
   26MOL    O95 8645   7.914   3.931   5.083  0.2544 -0.2826  0.1458
   26MOL    H96 8646   7.656   3.842   4.895  1.6427 -0.2512 -1.5097
   26MOL    H97 8647   7.795   3.756   4.947 -1.2990 -0.4359 -0.9884
   26MOL    H98 8648   7.719   4.026   5.077  3.7643  1.5890  2.3891
   26MOL    H99 8649   7.983   3.901   4.831 -0.7112 -0.9686  0.6424
   26MOL   H100 8650   8.053   4.028   4.647  1.3207  1.0374  1.7503
   26MOL   H101 8651   7.928   4.260   4.586  0.8333  0.3779 -0.0010
   26MOL   H102 8652   7.758   4.344   4.748  1.0041  0.4460 -2.3198
   26MOL   H103 8653   7.703   4.203   4.947  0.1622  0.9098  1.2370
   26MOL   C104 8654   7.934   3.932   5.229 -0.4147 -0.0360 -0.4082
   26MOL   C105 8655   7.954   4.076   5.300 -0.3624  0.4486 -0.0492
   26MOL   C106 8656   8.079   4.144   5.242 -0.0933  0.2512  0.3073
   26MOL   C107 8657   0.129   4.093   5.282 -0.4781 -0.1165  0.2711
   26MOL   C108 8658   0.248   4.144   5.225 -0.1010 -0.5649  0.1452
   26MOL   C109 8659   0.235   4.229   5.118  0.4555 -0.2689  0.0001
   26MOL   C110 8660   0.112   4.272   5.068  0.0811  0.4392 -0.3504
   26MOL   C111 8661   8.075   4.232   5.134 -0.2962 -0.5221 -0.8846
   26MOL   O112 8662   7.839   4.169   5.297  0.0849  0.5884  0.1543
   26MOL   H113 8663   7.856   3.870   5.274 -1.6021 -0.7380 -3.2821
   26MOL   H114 8664   8.022   3.871   5.251 -0.1923  0.3204 -0.3113
   26MOL   H115 8665   7.958   4.063   5.408  0.1869  0.9089 -0.0099
   26MOL   H116 8666   0.134   4.019   5.360 -0.3485 -0.9002 -0.4808
   26MOL   H117 8667   0.347   4.102   5.240 -0.6305 -2.4772 -1.5452
   26MOL   H118 8668   0.319   4.273   5.067  0.0333 -1.0269 -1.3892
   26MOL   H119 8669   0.102   4.345   4.988 -3.9505 -2.3049 -2.5476
   26MOL   H120 8670   7.975   4.259   5.103 -0.4506 -0.9391 -0.7424
   26MOL   C121 8671   7.852   4.290   5.367 -0.2123 -0.1731  0.3666
   26MOL   C122 8672   7.721   4.373   5.350  0.2517  0.4598 -0.6597
   26MOL   C123 8673   7.597   4.290   5.376 -0.7580  0.2758  0.1769
   26MOL   C124 8674   7.498   4.294   5.274 -0.7650 -0.2879 -0.1468
   26MOL   C125 8675   7.373   4.236   5.296  0.7078  0.2446  0.0770
   26MOL   C126 8676   7.338   4.173   5.415  0.4506 -0.3671  0.4961
   26MOL   C127 8677   7.436   4.174   5.512 -0.5602  1.1898 -0.2272
   26MOL   C128 8678   7.566   4.224   5.498 -0.1130 -0.0707  1.0709
   26MOL   O129 8679   7.728   4.480   5.436  0.0540 -0.3551  0.2025
   26MOL   H130 8680   7.934   4.352   5.332 -1.1931  0.3363 -1.0557
   26MOL   H131 8681   7.875   4.264   5.471  2.9061  0.1995 -0.1817
   26MOL   H132 8682   7.720   4.398   5.244 -0.9328 -0.2203 -0.8236
   26MOL   H133 8683   7.506   4.347   5.181 -0.3991 -0.0018  0.0458
   26MOL   H134 8684   7.297   4.240   5.219  2.0065  0.1506 -1.2280
   26MOL   H135 8685   7.241   4.125   5.420  0.9397 -1.3577  0.7356
   26MOL   H136 8686   7.412   4.133   5.609  0.7794  1.2967  0.1540
   26MOL   H137 8687   7.641   4.221   5.575 -0.5562  3.4413  1.7316
   26MOL   C138 8688   7.675   4.609   5.387 -0.2917 -0.6524  0.0383
   26MOL   C139 8689   7.725   4.705   5.494 -0.2235 -0.2964 -0.3229
   26MOL   C140 8690   7.709   4.842   5.458  0.3591 -0.3504  1.0760
   26MOL   C141 8691   7.590   4.914   5.486  0.0027 -0.4476  0.2460
   26MOL   C142 8692   7.576   5.049   5.452 -0.1894  0.2975 -0.4094
   26MOL   C143 8693   7.674   5.121   5.384 -0.3905 -0.5010  0.2179
   26MOL   C144 8694   7.797   5.051   5.360 -0.1963  0.3212  0.4977
   26MOL   C145 8695   7.814   4.913   5.392 -0.1745 -0.4337  0.1843
   26MOL   O146 8696   7.649   4.677   5.615  0.0864  0.2060 -0.1459
   26MOL   H147 8697   7.567   4.610   5.370 -0.1467 -0.0562 -0.9001
   26MOL   H148 8698   7.710   4.646   5.290  1.2434 -0.1070  0.7863
   26MOL   H149 8699   7.831   4.692   5.513 -0.1375  2.0264  0.9011
   26MOL   H150 8700   7.508   4.866   5.539  0.0481  0.3873  1.0785
   26MOL   H151 8701   7.476   5.088   5.459 -0.0412  1.0894 -2.4363
   26MOL   H152 8702   7.672   5.224   5.350 -0.7315 -0.6667 -0.2671
   26MOL   H153 8703   7.879   5.101   5.311  0.5653 -0.1050  1.3091
   26MOL   H154 8704   7.899   4.854   5.362  0.5407  0.6817 -0.0219
   26MOL   C155 8705   7.712   4.707   5.731  0.3259  0.4807 -0.1049
   26MOL   C156 8706   7.618   4.699   5.852 -0.8177 -0.1890 -0.5295
   26MOL   C157 8707   7.597   4.555   5.900 -0.2561  0.2710 -0.4657
   26MOL   C158 8708   7.607   4.520   6.035 -0.6245 -0.5352 -0.4097
   26MOL   C159 8709   7.590   4.387   6.075  0.0111 -0.8964  0.0107
   26MOL   C160 8710   7.580   4.282   5.979  0.2518 -0.2301 -0.0308
   26MOL   C161 8711   7.570   4.313   5.841  0.0631  0.5777 -0.1901
   26MOL   C162 8712   7.575   4.451   5.807 -0.2260 -0.0569  0.2803
   26MOL   O163 8713   7.682   4.775   5.953  0.0668  0.6498  0.1345
   26MOL   H164 8714   7.729   4.814   5.727  0.1511  0.4799 -0.9423
   26MOL   H165 8715   7.807   4.655   5.731 -0.5172 -1.1586 -2.7808
   26MOL   H166 8716   7.526   4.747   5.821  0.3120  2.1187 -0.4004
   26MOL   H167 8717   7.621   4.601   6.104  0.0166 -2.0225  1.2565
   26MOL   H168 8718   7.592   4.366   6.181  2.4476  0.5588  0.2880
   26MOL   H169 8719   7.569   4.179   6.010  1.4924 -0.1527  0.6727
   26MOL   H170 8720   7.563   4.231   5.772  0.5323  1.1592 -0.9311
   26MOL   H171 8721   7.575   4.483   5.704  3.1016 -1.4849 -0.2566
   26MOL   C172 8722   7.597   4.854   6.030  0.1699  0.0355 -0.0551
   26MOL   C173 8723   7.673   4.914   6.146  0.5239  0.5993 -0.3462
   26MOL   C174 8724   7.705   4.811   6.252 -0.1574 -0.9982  0.3631
   26MOL   C175 8725   7.836   4.754   6.258  0.2556 -0.5224  0.8036
   26MOL   C176 8726   7.866   4.657   6.358 -0.3827 -0.0440  0.0686
   26MOL   C177 8727   7.758   4.622   6.448 -0.3128  0.3738 -0.2212
   26MOL   C178 8728   7.634   4.683   6.439  0.6918  0.3935 -0.2968
   26MOL   C179 8729   7.602   4.779   6.342 -0.3357 -0.6095 -0.4703
   26MOL   O180 8730   7.591   5.016   6.194  0.2923  0.0715 -0.4717
   26MOL   H181 8731   7.575   4.937   5.963  0.4349  0.0526 -0.1212
   26MOL   H182 8732   7.497   4.813   6.045 -0.2229  0.3665 -1.5878
   26MOL   H183 8733   7.766   4.946   6.101  0.1926 -0.8907 -2.1541
   26MOL   H184 8734   7.900   4.781   6.176 -2.3550  1.5447 -0.6256
   26MOL   H185 8735   7.960   4.603   6.354 -0.0311  0.6677 -1.7968
   26MOL   H186 8736   7.779   4.549   6.524  2.1593  2.4648  1.1988
   26MOL   H187 8737   7.555   4.673   6.512 -2.9806 -1.4160 -4.3059
   26MOL   H188 8738   7.509   4.833   6.334  0.1821  0.1966 -1.1453
   26MOL   C189 8739   7.662   5.116   6.266 -0.1512 -0.2023 -0.1956
   26MOL   C190 8740   7.732   5.209   6.170 -0.1227 -0.4751  0.7217
   26MOL   C191 8741   7.806   5.323   6.239  0.7260  0.5353 -0.1484
   26MOL   C192 8742   7.928   5.292   6.308  0.4388  0.2110  0.6138
   26MOL   C193 8743   7.995   5.390   6.383 -0.0040  0.3652 -0.4559
   26MOL   C194 8744   7.941   5.518   6.398 -0.0840 -0.4451  0.2338
   26MOL   C195 8745   7.813   5.544   6.339  0.4221  0.7148 -0.2484
   26MOL   C196 8746   7.745   5.443   6.272  0.1565 -0.1999 -0.2745
   26MOL   O197 8747   7.639   5.267   6.083 -0.3348 -0.2632 -0.0216
   26MOL   H198 8748   7.590   5.167   6.331 -0.4767 -1.6588  0.5930
   26MOL   H199 8749   7.733   5.069   6.334  0.7339 -0.7637 -1.4767
   26MOL   H200 8750   7.810   5.158   6.112 -0.4376 -1.2038  0.9326
   26MOL   H201 8751   7.964   5.192   6.289 -2.0076 -0.6819  0.5569
   26MOL   H202 8752   0.010   5.364   6.427  0.7071 -2.1484 -3.3311
   26MOL   H203 8753   8.006   5.589   6.446  2.2906 -3.2375  1.2628
   26MOL   H204 8754   7.762   5.640   6.346 -1.2886 -0.2491  1.0636
   26MOL   H205 8755   7.651   5.463   6.222 -0.4146 -0.2837  0.7608
   26MOL   C206 8756   7.667   5.240   5.946 -0.3034 -0.7273  0.1044
   26MOL   C207 8757   7.605   5.347   5.854  0.5489 -0.4056 -0.2061
   26MOL   C208 8758   7.613   5.495   5.901 -0.6743  0.3677 -0.2955
   26MOL   C209 8759   7.737   5.553   5.915 -0.0841  0.6753 -0.2934
   26MOL   C210 8760   7.760   5.683   5.952 -0.5474  0.7047  0.0359
   26MOL   C211 8761   7.645   5.763   5.978 -0.8817 -0.6396  0.1699
   26MOL   C212 8762   7.518   5.705   5.957  0.4968 -0.3990 -0.0373
   26MOL   C213 8763   7.499   5.571   5.915 -0.5996  0.2607  0.2302
   26MOL   O214 8764   7.470   5.305   5.821 -0.1595 -0.1591  0.0474
   26MOL   H215 8765   7.773   5.242   5.925  0.2210 -2.3454  2.4293
   26MOL   H216 8766   7.631   5.143   5.911 -1.9663 -0.2613  0.4325
   26MOL   H217 8767   7.668   5.339   5.765 -1.0458 -2.6547 -1.1852
   26MOL   H218 8768   7.819   5.485   5.897 -0.9906 -1.2192  2.4954
   26MOL   H219 8769   7.857   5.727   5.968  0.8304 -1.8739 -0.9111
   26MOL   H220 8770   7.658   5.866   6.006  0.3344 -0.7341 -0.0216
   26MOL   H221 8771   7.436   5.775   5.970  0.4082 -0.7826  1.4649
   26MOL   H222 8772   7.398   5.537   5.903 -1.3899  2.4086  0.5027
   26MOL   C223 8773   7.445   5.299   5.680  0.3177 -0.4740 -0.3449
   26MOL   C224 8774   7.294   5.296   5.652  0.4839  0.2066 -0.3067
   26MOL   C225 8775   7.234   5.432   5.688  0.2831  0.5196  0.0615
   26MOL   C226 8776   7.271   5.547   5.613  0.2290 -0.2253  0.1437
   26MOL   C227 8777   7.222   5.672   5.645 -0.4401 -0.3052 -0.5320
   26MOL   C228 8778   7.139   5.691   5.757 -0.2015  0.3766 -0.4062
   26MOL   C229 8779   7.097   5.574   5.830  0.4592 -0.0409 -0.6742
   26MOL   C230 8780   7.155   5.452   5.804 -0.2960  0.2136 -0.4637
   26MOL   O231 8781   7.284   5.270   5.510  0.1490  0.1521  0.3491
   26MOL   H232 8782   7.493   5.383   5.631 -0.4275  0.7750  1.0281
   26MOL   H233 8783   7.477   5.201   5.645  2.2490  0.4260 -1.1771
   26MOL   H234 8784   7.245   5.218   5.710  1.7947  0.3439  1.0324
   26MOL   H235 8785   7.343   5.533   5.534 -1.6546 -0.0933 -1.6302
   26MOL   H236 8786   7.267   5.759   5.599 -1.5702  0.8151  0.4337
   26MOL   H237 8787   7.102   5.791   5.774 -0.3625  0.5715 -1.8310
   26MOL   H238 8788   7.033   5.575   5.917  1.2809 -1.0351 -0.0365
   26MOL   H239 8789   7.133   5.364   5.863 -2.4932  0.1446 -1.3422
   26MOL   C240 8790   7.215   5.151   5.479  0.1979  0.9760  0.0589
   26MOL   C241 8791   7.211   5.113   5.328 -0.4053 -0.2008  0.6938
   26MOL   C242 8792   7.178   5.225   5.233 -0.6888  0.0807  0.1417
   26MOL   C243 8793   7.293   5.307   5.200  0.0575 -0.1536  0.0762
   26MOL   C244 8794   7.268   5.417   5.120 -0.6031 -0.6443  0.1237
   26MOL   C245 8795   7.141   5.444   5.072 -0.0077 -0.5321 -0.4632
   26MOL   C246 8796   7.028   5.364   5.108  0.0335  0.6304 -0.1654
   26MOL   C247 8797   7.047   5.249   5.184  0.4120 -0.2088 -0.1451
   26MOL   O248 8798   7.329   5.040   5.295 -0.2298  0.4709  0.1807
   26MOL   H249 8799   7.255   5.071   5.541  0.3025  0.1794 -1.0195
   26MOL   H250 8800   7.110   5.170   5.501 -0.1131 -0.2649 -0.3071
   26MOL   H251 8801   7.124   5.048   5.325 -0.3504 -0.2325 -0.8034
   26MOL   H252 8802   7.394   5.285   5.232  0.3855  0.1203 -0.7699
   26MOL   H253 8803   7.355   5.472   5.090  1.9437 -4.3272  0.4042
   26MOL   H254 8804   7.124   5.535   5.016  2.2183  0.7080  0.8045
   26MOL   H255 8805   6.926   5.397   5.093  0.3815  1.4564 -0.7300
   26MOL   H256 8806   6.966   5.183   5.211  0.8771 -1.0690 -0.8034
   26MOL   C257 8807   7.306   4.929   5.207 -0.1826 -0.1331  0.4397
   26MOL   C258 8808   7.346   4.794   5.275  0.0839 -0.7402  0.3490
   26MOL   C259 8809   7.364   4.687   5.172 -0.0073  0.1599 -0.6829
   26MOL   C260 8810   7.266   4.587   5.140 -0.2061  0.3065  0.2961
   26MOL   C261 8811   7.297   4.493   5.038 -0.1673 -0.1870  0.4281
   26MOL   C262 8812   7.424   4.492   4.967 -0.0738 -0.2445 -0.0162
   26MOL   C263 8813   7.512   4.594   4.997  0.4119  0.0907 -0.4487
   26MOL   C264 8814   7.480   4.694   5.093 -0.2877 -0.3330 -0.5379
   26MOL   O265 8815   7.254   4.751   5.375  0.1187 -0.0593 -0.2859
   26MOL   H266 8816   7.356   4.946   5.111  1.0511 -1.4240  0.8490
   26MOL   H267 8817   7.207   4.917   5.162 -1.4959  0.8965  2.9809
   26MOL   H268 8818   7.441   4.818   5.322  0.3211  0.6467 -0.7861
   26MOL   H269 8819   7.174   4.594   5.197  0.5994 -1.4552  1.8563
   26MOL   H270 8820   7.220   4.426   5.004  0.2623 -0.2179 -0.4810
   26MOL   H271 8821   7.455   4.428   4.886  0.4119 -0.3043  0.2106
   26MOL   H272 8822   7.609   4.612   4.951  0.4042 -0.7454 -0.8084
   26MOL   H273 8823   7.557   4.768   5.106 -1.0822  0.4416 -0.1973
   26MOL   C274 8824   7.294   4.649   5.461 -0.4857  0.5352 -0.3039
   26MOL   C275 8825   7.194   4.610   5.572  0.2872  0.0716  0.4955
   26MOL   C276 8826   7.078   4.540   5.502 -0.2777 -0.4236 -0.3727
   26MOL   C277 8827   7.087   4.398   5.477  0.4214  1.1144 -0.5477
   26MOL   C278 8828   6.992   4.327   5.399  0.2246 -0.0265 -0.7585
   26MOL   C279 8829   6.894   4.407   5.340  0.0377  0.4318  1.0228
   26MOL   C280 8830   6.886   4.548   5.352 -0.0220  0.3757  0.4253
   26MOL   C281 8831   6.986   4.619   5.432  1.0516 -0.3938  0.2618
   26MOL   O282 8832   7.156   4.721   5.650  0.1443 -0.5885 -0.1409
   26MOL   H283 8833   7.315   4.562   5.399  1.0577  0.9861 -0.4218
   26MOL   H284 8834   7.387   4.678   5.510 -1.4767  1.6911  0.9140
   26MOL   H285 8835   7.242   4.534   5.633 -1.5787 -1.2646  0.3481
   26MOL   H286 8836   7.159   4.342   5.535  0.8311  0.8327 -1.3214
   26MOL   H287 8837   6.988   4.219   5.391 -2.6610 -0.0900  1.0814
   26MOL   H288 8838   6.827   4.356   5.272 -0.5760  1.2769  0.9812
   26MOL   H289 8839   6.814   4.610   5.300  0.8109  0.9471 -0.0659
   26MOL   H290 8840   6.974   4.726   5.439 -0.1593 -0.4976 -0.1237
   26MOL   C291 8841   7.255   4.764   5.745  0.2534  0.8717 -0.1458
   26MOL   C292 8842   7.185   4.815   5.877  0.3713 -0.4676  0.2804
   26MOL   C293 8843   7.123   4.708   5.966 -0.4523  0.1627  0.7366
   26MOL   C294 8844   6.999   4.654   5.936  0.4136  0.3291  0.2874
   26MOL   C295 8845   6.956   4.543   6.013 -0.1580  0.0890  0.4173
   26MOL   C296 8846   7.037   4.488   6.117  0.2019 -0.0899  0.1004
   26MOL   C297 8847   7.172   4.537   6.130  0.1103  0.2934  0.3569
   26MOL   C298 8848   7.211   4.648   6.057 -0.2121 -0.1408  0.3032
   26MOL   O299 8849   7.258   4.911   5.947 -0.7065  0.0424  0.4352
   26MOL   H300 8850   7.310   4.842   5.693 -0.6110  0.2543 -2.0338
   26MOL   H301 8851   7.331   4.691   5.775 -1.6096 -1.5496 -1.0921
   26MOL   H302 8852   7.098   4.870   5.841  0.0230 -2.5794 -2.3233
   26MOL   H303 8853   6.934   4.695   5.860  3.0234  0.8749 -1.7717
   26MOL   H304 8854   6.862   4.492   5.997  0.3616  0.1464 -3.2224
   26MOL   H305 8855   7.002   4.404   6.175 -0.5669 -0.1550 -0.4456
   26MOL   H306 8856   7.240   4.484   6.195  3.2756  2.8580 -0.7245
   26MOL   H307 8857   7.312   4.686   6.069  0.6907 -2.2718 -0.4112
   26MOL   C308 8858   7.184   5.028   5.992  0.1432  0.2663  0.4286
   26MOL   C309 8859   7.251   5.083   6.114 -0.3729  0.1299 -1.0504
   26MOL   C310 8860   7.205   5.227   6.132 -0.3165  0.4876 -0.3584
   26MOL   C311 8861   7.291   5.338   6.107 -0.0364 -0.0075 -0.3023
   26MOL   C312 8862   7.240   5.470   6.120 -1.2406  0.1198  0.1189
   26MOL   C313 8863   7.109   5.492   6.168 -0.3293  0.5284 -0.0941
   26MOL   C314 8864   7.023   5.381   6.193  0.8141 -0.3907  0.0158
   26MOL   C315 8865   7.070   5.247   6.172  0.1666 -0.3904 -0.5046
   26MOL   O316 8866   7.196   5.001   6.218  0.2223  0.1266 -0.5919
   26MOL   H317 8867   7.083   4.995   6.015  0.4302 -0.0052  1.3197
   26MOL   H318 8868   7.181   5.106   5.916  1.1899 -0.9088 -0.8250
   26MOL   H319 8869   7.359   5.069   6.115 -0.3257  0.4938 -0.4133
   26MOL   H320 8870   7.395   5.324   6.083 -0.5656 -0.9400 -2.1390
   26MOL   H321 8871   7.310   5.551   6.107  0.8676 -2.0053 -2.3265
   26MOL   H322 8872   7.076   5.594   6.179  0.3490  0.8798 -1.1510
   26MOL   H323 8873   6.922   5.408   6.222  0.3550  1.3968 -3.0258
   26MOL   H324 8874   7.003   5.163   6.185  0.1093 -0.1052  1.1450
   26MOL   C325 8875   7.278   5.007   6.339  0.2926  0.1309  0.0793
   26MOL   C326 8876   7.239   4.888   6.424 -0.1320 -0.5260 -0.2289
   26MOL   C327 8877   7.088   4.899   6.461  0.1686 -0.0385  0.7190
   26MOL   C328 8878   7.052   4.949   6.585  0.2159  0.1051 -0.5693
   26MOL   C329 8879   6.911   4.951   6.622  0.4237 -1.1778  0.0436
   26MOL   C330 8880   6.816   4.904   6.532  0.2919 -0.0971  0.7465
   26MOL   C331 8881   6.856   4.852   6.408 -0.9245 -0.1710 -0.2524
   26MOL   C332 8882   6.993   4.843   6.375 -0.3737 -0.6703 -0.3471
   26MOL   O333 8883   7.286   4.767   6.363  0.1093 -0.3944 -0.1535
   26MOL   H334 8884   7.266   5.099   6.396 -1.0148 -0.3359  0.5811
   26MOL   H335 8885   7.384   5.009   6.313 -0.0102  1.5718 -1.1221
   26MOL   H336 8886   7.299   4.896   6.515  2.0845 -0.9092 -1.6001
   26MOL   H337 8887   7.128   5.003   6.639  2.1047 -2.5038 -0.5214
   26MOL   H338 8888   6.898   5.002   6.716 -0.2503 -0.1764 -0.5794
   26MOL   H339 8889   6.712   4.903   6.563  0.3312 -1.4429  0.8410
   26MOL   H340 8890   6.778   4.809   6.347 -0.0313 -0.1335 -1.4293
   26MOL   H341 8891   7.022   4.795   6.283 -0.4492  1.0794 -1.3119
   26MOL   H342 8892   7.258   4.781   6.273 -1.7055 -1.9135  0.1423
   27MOL     C1 8893   1.826   3.120   4.611 -0.2340 -1.0506 -0.4948
   27MOL     C2 8894   1.669   3.136   4.593 -0.1260 -0.2819 -0.3423
   27MOL     C3 8895   1.619   3.166   4.454  0.4867 -0.1299  0.1467
   27MOL     C4 8896   1.583   3.300   4.417  0.5686 -0.2404 -0.0513
   27MOL     C5 8897   1.551   3.327   4.284 -0.9678  0.0285 -0.8415
   27MOL     C6 8898   1.558   3.230   4.183  0.2482 -0.6722  0.1640
   27MOL     C7 8899   1.574   3.093   4.220 -0.3186  0.0301  0.1803
   27MOL     C8 8900   1.618   3.063   4.354  0.0488  0.2468 -0.5372
   27MOL     O9 8901   1.628   3.236   4.689  0.2951  0.2854  0.0826
   27MOL    H10 8902   1.858   3.035   4.550  1.3633 -1.2403  0.5810
   27MOL    H11 8903   1.876   3.208   4.572  0.6491 -1.7738 -1.0350
   27MOL    H12 8904   1.620   3.040   4.605 -1.9455  0.6947  0.1923
   27MOL    H13 8905   1.590   3.390   4.476  5.7548 -0.6416  0.1200
   27MOL    H14 8906   1.525   3.431   4.267  0.9705  0.9270  1.3751
   27MOL    H15 8907   1.552   3.256   4.078 -1.6651 -1.8864 -0.0465
   27MOL    H16 8908   1.567   3.015   4.146 -2.7116 -0.1491  0.5632
   27MOL    H17 8909   1.646   2.968   4.395 -0.8569 -1.1390 -3.0483
   27MOL    H18 8910   1.859   3.109   4.714 -2.1215 -1.3887  0.0988
   27MOL    C19 8911   1.602   3.204   4.821  0.0783  0.2853  0.2335
   27MOL    C20 8912   1.571   3.331   4.889  0.0794  0.5100  0.3096
   27MOL    C21 8913   1.698   3.422   4.894 -0.4670  1.3362 -0.4114
   27MOL    C22 8914   1.740   3.480   4.773  1.1826  0.2597  0.3824
   27MOL    C23 8915   1.866   3.545   4.764  0.0439  0.8405  0.0587
   27MOL    C24 8916   1.944   3.561   4.887  0.3052 -0.3150 -0.1098
   27MOL    C25 8917   1.887   3.520   5.008 -0.1918  0.3409  0.4492
   27MOL    C26 8918   1.771   3.442   5.010  0.5240 -0.3492 -0.2997
   27MOL    O27 8919   1.519   3.286   5.013 -0.1777  0.1504  0.0713
   27MOL    H28 8920   1.512   3.142   4.820 -0.0027  0.4108 -0.3751
   27MOL    H29 8921   1.681   3.152   4.875  0.8991  0.4391 -0.8156
   27MOL    H30 8922   1.499   3.387   4.829  0.5253  2.2099  1.3242
   27MOL    H31 8923   1.678   3.461   4.687  2.5858  0.6079 -0.7293
   27MOL    H32 8924   1.904   3.580   4.670  2.0068 -0.3213  0.3962
   27MOL    H33 8925   2.042   3.606   4.880  1.0339 -1.7348  0.8388
   27MOL    H34 8926   1.951   3.528   5.094  1.4082 -0.3702 -0.6570
   27MOL    H35 8927   1.738   3.389   5.098  0.5589 -2.2721 -1.4070
   27MOL    C36 8928   1.458   3.386   5.098  0.0285  0.8871  0.4601
   27MOL    C37 8929   1.377   3.310   5.209 -0.5269  0.2918  0.4123
   27MOL    C38 8930   1.249   3.389   5.247  0.0322  0.0857 -0.2440
   27MOL    C39 8931   1.254   3.469   5.362  0.4233  0.2982  0.0643
   27MOL    C40 8932   1.148   3.555   5.393 -0.0817  0.7875 -0.8571
   27MOL    C41 8933   1.036   3.567   5.311 -0.3663 -0.7638 -0.8506
   27MOL    C42 8934   1.037   3.495   5.195 -0.0466 -0.5333  0.0721
   27MOL    C43 8935   1.137   3.398   5.164  0.0540 -0.5988  0.1706
   27MOL    O44 8936   1.462   3.283   5.325 -0.7224 -0.8942  0.2126
   27MOL    H45 8937   1.521   3.459   5.150 -0.1029 -0.0504  1.9715
   27MOL    H46 8938   1.385   3.446   5.043 -2.6943 -2.7671 -0.0564
   27MOL    H47 8939   1.342   3.215   5.169 -0.7048  0.6180 -0.2092
   27MOL    H48 8940   1.341   3.465   5.425 -0.5451  1.1296  1.4715
   27MOL    H49 8941   1.156   3.617   5.481  1.2272 -1.4545  0.6426
   27MOL    H50 8942   0.958   3.638   5.329 -0.9310 -1.5282 -0.2596
   27MOL    H51 8943   0.952   3.505   5.129 -1.1013  2.0734  1.7251
   27MOL    H52 8944   1.140   3.342   5.072 -0.0714 -0.6306  0.1857
   27MOL    C53 8945   1.503   3.149   5.338 -0.1511 -0.1283 -0.2539
   27MOL    C54 8946   1.546   3.114   5.487 -0.1665  0.0698  0.3872
   27MOL    C55 8947   1.656   3.209   5.537 -0.4648  0.4090  0.7264
   27MOL    C56 8948   1.623   3.333   5.591 -1.0324  0.1923 -0.0848
   27MOL    C57 8949   1.723   3.413   5.642 -0.1593 -0.9174  0.6725
   27MOL    C58 8950   1.854   3.376   5.643 -0.0551  0.6298  0.7444
   27MOL    C59 8951   1.889   3.254   5.577  0.1054 -0.0910  0.0478
   27MOL    C60 8952   1.786   3.164   5.543 -1.0521  0.2539  0.3258
   27MOL    O61 8953   1.426   3.115   5.562  0.2111 -0.0991 -0.4311
   27MOL    H62 8954   1.437   3.070   5.301 -0.2843  0.9114 -2.3354
   27MOL    H63 8955   1.594   3.141   5.279  0.0422 -0.5701  0.0957
   27MOL    H64 8956   1.584   3.013   5.482  1.0322  0.4032  2.1383
   27MOL    H65 8957   1.520   3.363   5.581 -0.9176  1.4646  2.2119
   27MOL    H66 8958   1.685   3.502   5.690 -1.8537 -1.5782  0.5840
   27MOL    H67 8959   1.926   3.431   5.702  1.5131 -1.2214  0.5943
   27MOL    H68 8960   1.992   3.221   5.574 -0.1292 -0.7548 -1.4073
   27MOL    H69 8961   1.809   3.061   5.520  0.6471  0.5047  0.8347
   27MOL    C70 8962   1.440   3.070   5.700  0.4401 -0.7653  0.8433
   27MOL    C71 8963   1.324   3.118   5.792  0.1426  0.0032  0.4445
   27MOL    C72 8964   1.360   3.111   5.939  0.2202 -0.2129 -0.7617
   27MOL    C73 8965   1.414   3.216   6.010 -0.0743 -0.7819  0.5431
   27MOL    C74 8966   1.459   3.207   6.140  0.0151  0.4537 -0.4357
   27MOL    C75 8967   1.449   3.087   6.208 -0.6170 -0.5964  0.1284
   27MOL    C76 8968   1.387   2.974   6.146  0.2029 -0.4988  0.1011
   27MOL    C77 8969   1.350   2.985   6.008 -0.2315 -0.0572 -0.3911
   27MOL    O78 8970   1.210   3.035   5.772 -0.5464 -0.4951 -0.2046
   27MOL    H79 8971   1.450   2.962   5.712 -1.4169 -0.7818  2.4705
   27MOL    H80 8972   1.525   3.117   5.749 -0.8463  0.6563  1.7601
   27MOL    H81 8973   1.304   3.225   5.786  0.2754  0.0060  0.0800
   27MOL    H82 8974   1.434   3.307   5.956  1.0153 -3.0118 -2.9855
   27MOL    H83 8975   1.502   3.286   6.200 -0.8315  2.5602 -2.5289
   27MOL    H84 8976   1.482   3.069   6.309  1.4178  1.4601 -0.1454
   27MOL    H85 8977   1.397   2.872   6.181 -3.2030 -1.2218 -0.8477
   27MOL    H86 8978   1.315   2.901   5.950 -0.4980 -1.4146  1.6536
   27MOL    C87 8979   1.085   3.100   5.754 -0.3128  0.0228 -0.3842
   27MOL    C88 8980   1.068   3.143   5.608 -0.1233  0.2503 -0.8650
   27MOL    C89 8981   0.927   3.179   5.578 -0.1072 -0.2594 -0.8213
   27MOL    C90 8982   0.837   3.076   5.546  0.0165 -0.0326  0.5768
   27MOL    C91 8983   0.703   3.109   5.513  0.3010  0.6466 -0.1210
   27MOL    C92 8984   0.653   3.236   5.516  0.3044  0.7890  0.1388
   27MOL    C93 8985   0.743   3.336   5.553 -0.4012 -0.2696  0.9515
   27MOL    C94 8986   0.879   3.308   5.581  0.4309 -0.5480 -0.7025
   27MOL    O95 8987   1.107   3.038   5.523  0.3642 -0.1672  0.0179
   27MOL    H96 8988   1.070   3.179   5.828  2.6758  1.8896 -1.6892
   27MOL    H97 8989   1.005   3.028   5.770 -0.7561  1.0925  2.4569
   27MOL    H98 8990   1.134   3.228   5.596 -1.9694  1.9328  0.5790
   27MOL    H99 8991   0.880   2.981   5.518 -0.0752  0.0218  0.2550
   27MOL   H100 8992   0.639   3.024   5.492 -0.7796  1.1602  0.9991
   27MOL   H101 8993   0.550   3.248   5.483 -0.9505 -1.6557  2.8880
   27MOL   H102 8994   0.704   3.437   5.552  0.0804 -0.0607 -2.4108
   27MOL   H103 8995   0.937   3.385   5.629 -1.5077 -0.0765  0.9108
   27MOL   C104 8996   1.138   3.064   5.388 -0.0933  0.1753  0.1005
   27MOL   C105 8997   1.151   2.934   5.313  0.8527  0.1798  0.0572
   27MOL   C106 8998   1.138   2.953   5.155  0.6876  0.1170  0.0587
   27MOL   C107 8999   1.255   2.957   5.072  0.2883 -0.7364  0.7914
   27MOL   C108 9000   1.231   2.961   4.934 -0.1076  0.0858 -0.8761
   27MOL   C109 9001   1.103   2.970   4.878 -0.4871  0.2943  0.2337
   27MOL   C110 9002   0.989   2.960   4.959 -0.3292  1.5893 -0.3108
   27MOL   C111 9003   1.008   2.944   5.096 -0.0326 -0.2081 -0.1276
   27MOL   O112 9004   1.278   2.888   5.351  0.4379 -0.0267 -1.3095
   27MOL   H113 9005   1.057   3.116   5.336 -0.9350 -0.2895  0.9383
   27MOL   H114 9006   1.233   3.118   5.394 -0.8705  1.4062  1.7312
   27MOL   H115 9007   1.067   2.866   5.327  1.4858 -0.6089  0.0857
   27MOL   H116 9008   1.356   2.952   5.112  0.5564  0.9581  0.3663
   27MOL   H117 9009   1.317   2.962   4.870  0.9849 -1.7957  0.5183
   27MOL   H118 9010   1.089   2.976   4.771  0.1724  0.1981  0.1374
   27MOL   H119 9011   0.892   2.946   4.914  0.5005  0.1212 -1.6704
   27MOL   H120 9012   0.919   2.948   5.157 -0.3613 -2.3280 -0.4259
   27MOL   C121 9013   1.293   2.751   5.320 -0.4156 -0.3357 -0.3519
   27MOL   C122 9014   1.449   2.711   5.328 -0.1392  0.4457  0.2508
   27MOL   C123 9015   1.467   2.570   5.287 -0.0698 -0.1718  0.4842
   27MOL   C124 9016   1.495   2.540   5.153  0.1866 -0.9463 -0.8522
   27MOL   C125 9017   1.491   2.403   5.109  0.1718 -0.7461 -0.0727
   27MOL   C126 9018   1.453   2.303   5.200  0.8305 -0.1319 -0.1598
   27MOL   C127 9019   1.435   2.340   5.335  0.0879 -0.1227 -0.2060
   27MOL   C128 9020   1.444   2.470   5.383 -0.0084 -0.5377  0.1320
   27MOL   O129 9021   1.516   2.798   5.240  0.3141 -0.3353 -0.3486
   27MOL   H130 9022   1.257   2.717   5.223 -0.6486 -0.1011 -0.3465
   27MOL   H131 9023   1.233   2.693   5.390 -0.9798 -1.4399 -1.7343
   27MOL   H132 9024   1.479   2.737   5.430 -0.1790 -0.8783  0.6104
   27MOL   H133 9025   1.512   2.620   5.082  1.1066 -0.5140 -0.1525
   27MOL   H134 9026   1.505   2.394   5.002  0.1641  2.8695 -0.4460
   27MOL   H135 9027   1.434   2.201   5.170 -0.9999  0.3061 -0.5186
   27MOL   H136 9028   1.425   2.260   5.406 -0.4905 -1.2353 -1.5240
   27MOL   H137 9029   1.423   2.501   5.484 -2.9894 -1.7778 -0.0597
   27MOL   C138 9030   1.657   2.811   5.252  0.2867  0.1503 -0.1100
   27MOL   C139 9031   1.712   2.902   5.139  0.0551 -0.1687 -0.3400
   27MOL   C140 9032   1.849   2.959   5.177  0.9567 -0.6468  0.6584
   27MOL   C141 9033   1.872   3.100   5.155 -0.4039  0.4767 -0.1265
   27MOL   C142 9034   1.994   3.159   5.193 -0.3421 -0.8243 -0.2090
   27MOL   C143 9035   2.094   3.073   5.242 -0.4601  0.5005  0.5392
   27MOL   C144 9036   2.077   2.935   5.256 -0.0714 -0.0042  0.1310
   27MOL   C145 9037   1.955   2.875   5.233  0.8741  0.4238  0.2516
   27MOL   O146 9038   1.722   2.819   5.024 -0.5257  0.5406  0.3804
   27MOL   H147 9039   1.707   2.715   5.267 -0.4083 -0.1325  0.4438
   27MOL   H148 9040   1.662   2.859   5.350  1.5837  1.8878 -0.9977
   27MOL   H149 9041   1.636   2.976   5.116  1.2260  0.7451 -1.3748
   27MOL   H150 9042   1.797   3.162   5.108 -0.0699  1.3730  0.5153
   27MOL   H151 9043   2.006   3.265   5.180  0.1911 -0.6242  1.7213
   27MOL   H152 9044   2.187   3.117   5.273  0.5349 -0.8923 -0.4308
   27MOL   H153 9045   2.152   2.875   5.304 -1.9126 -0.6709  2.2886
   27MOL   H154 9046   1.946   2.769   5.250  1.1742  0.1155 -1.4029
   27MOL   C155 9047   1.620   2.837   4.920 -0.3330 -0.7309  0.1083
   27MOL   C156 9048   1.622   2.729   4.812  0.6881  0.5456 -0.4059
   27MOL   C157 9049   1.495   2.722   4.727 -0.6968  0.0773 -0.2542
   27MOL   C158 9050   1.501   2.751   4.585  0.0915 -0.3838  0.4097
   27MOL   C159 9051   1.386   2.718   4.499  0.5607  0.1125  0.7648
   27MOL   C160 9052   1.268   2.670   4.561 -0.3080 -0.1949 -0.1241
   27MOL   C161 9053   1.260   2.665   4.703 -0.1807 -0.1729  0.3404
   27MOL   C162 9054   1.371   2.687   4.783  0.3692 -0.1827 -1.2299
   27MOL   O163 9055   1.740   2.762   4.736 -0.3123  0.1233 -0.1181
   27MOL   H164 9056   1.623   2.936   4.875 -0.0986 -0.4336  0.7816
   27MOL   H165 9057   1.522   2.823   4.966 -1.5562 -0.3734 -2.3089
   27MOL   H166 9058   1.619   2.633   4.864  1.2000  0.3332 -0.7698
   27MOL   H167 9059   1.597   2.767   4.536 -0.2720 -0.5904 -0.3776
   27MOL   H168 9060   1.390   2.722   4.391 -2.2509 -0.1653  0.6126
   27MOL   H169 9061   1.193   2.628   4.495 -0.4947  1.2047 -0.8235
   27MOL   H170 9062   1.176   2.623   4.756  0.2973  1.9100  2.8598
   27MOL   H171 9063   1.366   2.667   4.889 -3.0598 -1.5296 -1.5539
   27MOL   C172 9064   1.863   2.721   4.795  0.0927 -0.8875  0.1762
   27MOL   C173 9065   1.945   2.671   4.688 -0.6030 -0.3759  0.3474
   27MOL   C174 9066   1.976   2.762   4.572 -0.1849  0.0124  0.9522
   27MOL   C175 9067   1.884   2.771   4.464  0.0027  0.3138  0.2035
   27MOL   C176 9068   1.914   2.858   4.359 -0.1561  0.5350  0.3435
   27MOL   C177 9069   2.006   2.962   4.375  0.1649 -0.1682 -0.6570
   27MOL   C178 9070   2.101   2.946   4.479 -0.4360  0.3005  0.2856
   27MOL   C179 9071   2.087   2.844   4.573 -0.5567  0.4178 -0.8885
   27MOL   O180 9072   1.881   2.551   4.643  0.3361  0.1915 -0.7686
   27MOL   H181 9073   1.919   2.801   4.843  1.1878 -1.0545 -0.7753
   27MOL   H182 9074   1.846   2.643   4.869  2.5194 -0.1917  1.5196
   27MOL   H183 9075   2.040   2.639   4.730  0.5795  0.4424 -1.6217
   27MOL   H184 9076   1.801   2.702   4.459  0.2183  0.1410 -1.2240
   27MOL   H185 9077   1.854   2.854   4.269 -2.8743  2.2425  2.0070
   27MOL   H186 9078   2.028   3.022   4.288 -0.7462  1.3558  0.1637
   27MOL   H187 9079   2.190   3.006   4.492 -0.2615  0.4997 -1.6131
   27MOL   H188 9080   2.157   2.818   4.651  0.9064  1.7220 -1.7293
   27MOL   C189 9081   1.963   2.456   4.571  0.1275  0.3304  0.4263
   27MOL   C190 9082   1.887   2.326   4.548  0.9817  0.0482  0.6673
   27MOL   C191 9083   1.968   2.212   4.490  0.5592  0.4520 -0.0427
   27MOL   C192 9084   2.023   2.231   4.363  0.0861  1.3401  0.6133
   27MOL   C193 9085   2.092   2.119   4.308 -0.4840 -0.9370 -0.3894
   27MOL   C194 9086   2.120   2.002   4.387  0.2216 -0.8258 -0.2603
   27MOL   C195 9087   2.072   1.987   4.516 -0.3052  0.2688  0.0559
   27MOL   C196 9088   1.992   2.095   4.563 -0.4881 -0.9890 -0.2740
   27MOL   O197 9089   1.791   2.373   4.446  0.4953  0.8763 -0.1341
   27MOL   H198 9090   2.006   2.488   4.476 -0.3042  0.9411  0.4411
   27MOL   H199 9091   2.050   2.427   4.631 -0.7597  0.9749  2.0731
   27MOL   H200 9092   1.841   2.298   4.642  1.1019 -0.2429  0.6407
   27MOL   H201 9093   2.015   2.323   4.307  0.0944  0.1518 -1.4020
   27MOL   H202 9094   2.137   2.131   4.211 -1.4371  0.6693 -0.6526
   27MOL   H203 9095   2.177   1.926   4.336 -0.8795 -1.1339 -1.0579
   27MOL   H204 9096   2.088   1.893   4.568 -0.9032  1.0592  1.7127
   27MOL   H205 9097   1.939   2.085   4.657 -0.8304 -1.6195 -0.5275
   27MOL   C206 9098   1.672   2.303   4.416  0.0694  0.1363  0.3271
   27MOL   C207 9099   1.660   2.321   4.263  0.3009 -0.0364  0.2834
   27MOL   C208 9100   1.602   2.450   4.212 -0.5222  0.0039 -0.3577
   27MOL   C209 9101   1.672   2.577   4.234 -0.3024 -0.2512 -0.0794
   27MOL   C210 9102   1.615   2.690   4.175 -0.2511  0.5711  0.3433
   27MOL   C211 9103   1.500   2.681   4.096  0.1235  0.3413 -0.2472
   27MOL   C212 9104   1.437   2.566   4.067 -0.2458  0.5213  0.4516
   27MOL   C213 9105   1.493   2.444   4.120  0.8028 -0.2916  0.0623
   27MOL   O214 9106   1.583   2.212   4.212  0.6290 -0.4226 -0.0048
   27MOL   H215 9107   1.684   2.198   4.443 -0.1774  0.0891  0.2508
   27MOL   H216 9108   1.578   2.340   4.457 -0.5449 -1.3317  0.2607
   27MOL   H217 9109   1.763   2.315   4.228  0.4159 -1.4447  0.8509
   27MOL   H218 9110   1.770   2.578   4.277  0.2236 -0.0990 -1.2641
   27MOL   H219 9111   1.668   2.784   4.170 -1.1024  0.9887 -1.0914
   27MOL   H220 9112   1.474   2.770   4.040 -1.8869 -0.4299 -0.5459
   27MOL   H221 9113   1.353   2.574   3.999  1.1859  0.4769 -1.3502
   27MOL   H222 9114   1.442   2.352   4.095  0.7905 -0.5075  0.8527
   27MOL   C223 9115   1.614   2.157   4.085 -0.3704  0.3279  1.2044
   27MOL   C224 9116   1.705   2.040   4.088  0.5689 -0.4816 -0.7014
   27MOL   C225 9117   1.647   1.900   4.077 -0.6017 -0.5442 -0.2749
   27MOL   C226 9118   1.548   1.874   3.982 -0.4976  0.1421  0.2772
   27MOL   C227 9119   1.487   1.750   3.970  0.0593 -0.0809 -0.1052
   27MOL   C228 9120   1.544   1.643   4.052 -0.0726 -0.2519  0.3772
   27MOL   C229 9121   1.641   1.667   4.143 -0.1561  0.5132  0.2324
   27MOL   C230 9122   1.690   1.801   4.167 -0.1727 -0.6524  0.1827
   27MOL   O231 9123   1.807   2.069   3.990 -0.4981 -0.2526  0.2227
   27MOL   H232 9124   1.531   2.142   4.016  0.3620  1.6388  0.0163
   27MOL   H233 9125   1.663   2.236   4.028 -2.2663  0.4796 -0.2653
   27MOL   H234 9126   1.747   2.047   4.188 -0.8418 -3.4509  0.1504
   27MOL   H235 9127   1.514   1.954   3.918  1.8221  2.2001  1.5248
   27MOL   H236 9128   1.410   1.723   3.899 -0.8334  1.6817  0.1525
   27MOL   H237 9129   1.500   1.545   4.041  0.9672 -0.6479 -0.2714
   27MOL   H238 9130   1.684   1.587   4.201 -0.1652 -0.0412 -0.5049
   27MOL   H239 9131   1.764   1.820   4.243  1.4683  2.4040 -2.0663
   27MOL   C240 9132   1.912   1.966   3.997 -0.0830  0.8539  0.1071
   27MOL   C241 9133   2.040   2.005   3.922 -0.5338  0.6696  0.2153
   27MOL   C242 9134   2.150   1.901   3.943 -0.3285 -0.4957 -0.1921
   27MOL   C243 9135   2.130   1.765   3.906 -0.0878  0.4168 -0.2563
   27MOL   C244 9136   2.237   1.673   3.918  1.2193 -0.0106  0.1366
   27MOL   C245 9137   2.358   1.715   3.978  0.9884 -0.6303 -0.0308
   27MOL   C246 9138   2.369   1.847   4.031  0.0883  0.3349 -0.3398
   27MOL   C247 9139   2.266   1.943   4.014  0.0925 -0.1293 -0.1335
   27MOL   O248 9140   2.011   1.989   3.786  0.0218  0.3036  0.3782
   27MOL   H249 9141   1.931   1.952   4.103  1.3490  0.6953 -0.1607
   27MOL   H250 9142   1.874   1.874   3.953 -0.9154  0.8857  0.7419
   27MOL   H251 9143   2.081   2.104   3.943  4.3049 -1.2736  0.5510
   27MOL   H252 9144   2.036   1.735   3.862  0.9047 -1.2026 -1.3598
   27MOL   H253 9145   2.220   1.575   3.875 -0.5627  0.4641 -0.2795
   27MOL   H254 9146   2.441   1.645   3.980  1.7698  0.2397 -1.4165
   27MOL   H255 9147   2.459   1.874   4.083 -1.1134 -0.5178  2.2601
   27MOL   H256 9148   2.279   2.044   4.052 -0.2456 -0.5636  1.1651
   27MOL   C257 9149   1.979   2.097   3.703  0.6875 -0.3064 -0.1598
   27MOL   C258 9150   2.090   2.187   3.659 -0.3101 -0.5842  0.1953
   27MOL   C259 9151   2.195   2.101   3.587 -0.1535  0.0263  0.3315
   27MOL   C260 9152   2.300   2.041   3.660  0.2669 -0.5960 -0.0203
   27MOL   C261 9153   2.410   1.983   3.587 -0.0059 -0.8046 -0.7732
   27MOL   C262 9154   2.411   1.968   3.452  0.0273  0.4941  0.0684
   27MOL   C263 9155   2.303   2.016   3.383 -0.1224  0.9762  0.1999
   27MOL   C264 9156   2.200   2.086   3.445 -0.2852  0.0558  0.0446
   27MOL   O265 9157   2.157   2.263   3.764 -0.1414  0.1505 -0.5425
   27MOL   H266 9158   1.908   2.170   3.742  0.1446 -1.1695  0.5170
   27MOL   H267 9159   1.933   2.057   3.612 -0.0238  3.1498 -1.3780
   27MOL   H268 9160   2.051   2.265   3.593  0.8036 -0.9285 -0.8929
   27MOL   H269 9161   2.297   2.055   3.767  1.0783 -2.2558  0.2430
   27MOL   H270 9162   2.494   1.938   3.637  0.5186  0.7532 -0.2312
   27MOL   H271 9163   2.497   1.921   3.407  0.1702  0.2961  0.5511
   27MOL   H272 9164   2.309   2.004   3.276  0.6459  1.1240  0.2254
   27MOL   H273 9165   2.123   2.117   3.376 -0.9780 -1.1905  0.2361
   27MOL   C274 9166   2.246   2.367   3.716 -0.4801  0.0192 -0.1729
   27MOL   C275 9167   2.172   2.510   3.725 -0.1743  0.2953 -0.1345
   27MOL   C276 9168   2.121   2.531   3.869 -0.5149  0.0200 -0.0177
   27MOL   C277 9169   2.189   2.609   3.961 -1.1702  0.1842 -0.3969
   27MOL   C278 9170   2.132   2.634   4.089 -0.6366  0.0023  0.1110
   27MOL   C279 9171   2.014   2.578   4.121  0.4737  0.2010 -0.2041
   27MOL   C280 9172   1.942   2.502   4.029 -0.0229  1.6072  0.0355
   27MOL   C281 9173   1.990   2.484   3.902  0.0372 -1.0296  0.7786
   27MOL   O282 9174   2.065   2.521   3.623 -0.1630 -0.1375  0.0984
   27MOL   H283 9175   2.337   2.358   3.774  0.3919  0.5128 -1.4609
   27MOL   H284 9176   2.261   2.353   3.609  1.5015 -2.0162  0.3348
   27MOL   H285 9177   2.245   2.587   3.701 -1.5140  0.9242 -2.3299
   27MOL   H286 9178   2.281   2.659   3.934 -0.4058  0.1000  1.9068
   27MOL   H287 9179   2.197   2.685   4.159 -0.7631 -1.8339  1.6125
   27MOL   H288 9180   1.972   2.599   4.218 -0.3669 -1.0084 -0.2971
   27MOL   H289 9181   1.846   2.458   4.051  0.3234  1.3474  1.0198
   27MOL   H290 9182   1.932   2.428   3.829 -1.4511  1.6983 -0.1840
   27MOL   C291 9183   2.102   2.576   3.499 -0.2002  0.8146 -0.2564
   27MOL   C292 9184   1.982   2.588   3.411  0.2907 -0.4238  0.5539
   27MOL   C293 9185   1.956   2.464   3.331 -0.9145 -0.0095  0.8545
   27MOL   C294 9186   2.010   2.457   3.199  0.2503 -0.1712  0.8438
   27MOL   C295 9187   1.984   2.338   3.126 -0.2581  0.7149 -0.0477
   27MOL   C296 9188   1.922   2.223   3.185 -0.0869 -0.2864  0.2645
   27MOL   C297 9189   1.893   2.226   3.324  0.0064  0.5314 -0.8276
   27MOL   C298 9190   1.909   2.348   3.396  0.0365 -0.2617  0.5120
   27MOL   O299 9191   1.865   2.616   3.483 -0.2478  0.0519 -0.5485
   27MOL   H300 9192   2.176   2.512   3.452  0.2083  0.3389  0.9999
   27MOL   H301 9193   2.150   2.671   3.523 -1.2535  0.7665  2.2279
   27MOL   H302 9194   1.999   2.671   3.343  5.7270 -1.0504  0.9357
   27MOL   H303 9195   2.044   2.547   3.150 -0.7568  1.0077  2.2412
   27MOL   H304 9196   2.014   2.336   3.022 -0.2933 -1.2258 -0.0468
   27MOL   H305 9197   1.896   2.130   3.136 -3.9877  0.9243 -0.1114
   27MOL   H306 9198   1.854   2.141   3.378  1.2058  1.5325  1.7022
   27MOL   H307 9199   1.869   2.361   3.495 -0.1534  2.0086  0.1705
   27MOL   C308 9200   1.862   2.747   3.543  0.1489 -0.1938  0.4590
   27MOL   C309 9201   1.798   2.737   3.681  0.4053  0.7253 -0.6128
   27MOL   C310 9202   1.826   2.850   3.767 -0.3183  0.1454  0.4643
   27MOL   C311 9203   1.759   2.970   3.741 -0.2150 -0.6033  0.2473
   27MOL   C312 9204   1.767   3.081   3.827  0.9501  0.2710  0.5307
   27MOL   C313 9205   1.854   3.066   3.936 -0.3346 -0.5003  0.7309
   27MOL   C314 9206   1.923   2.948   3.966 -0.6245 -0.1262  0.4520
   27MOL   C315 9207   1.905   2.840   3.878 -0.0337 -0.3267  0.2718
   27MOL   O316 9208   1.662   2.715   3.678 -0.4853  0.2067 -0.7125
   27MOL   H317 9209   1.817   2.813   3.468  1.8816  1.0853  0.5195
   27MOL   H318 9210   1.962   2.787   3.552  0.4085 -0.5029 -0.8576
   27MOL   H319 9211   1.847   2.649   3.721  0.5101  0.0950 -2.0886
   27MOL   H320 9212   1.703   2.971   3.648 -0.2587  1.7424  0.2695
   27MOL   H321 9213   1.708   3.170   3.816  0.1474 -0.2939  0.1681
   27MOL   H322 9214   1.863   3.153   3.998 -0.2893 -1.7283  2.4932
   27MOL   H323 9215   1.972   2.951   4.062  1.4962  1.2509 -0.6430
   27MOL   H324 9216   1.937   2.740   3.903  0.3198 -0.2127  0.2883
   27MOL   C325 9217   1.613   2.609   3.771  0.0483 -0.0268  0.1517
   27MOL   C326 9218   1.580   2.478   3.706 -0.2728 -0.2783  0.4109
   27MOL   C327 9219   1.506   2.501   3.573 -0.1294 -0.0204 -0.1262
   27MOL   C328 9220   1.364   2.497   3.581 -0.3172 -0.0893  0.0195
   27MOL   C329 9221   1.280   2.505   3.466 -0.3886 -0.7369 -0.0212
   27MOL   C330 9222   1.345   2.525   3.335 -0.1358 -0.4623  0.3471
   27MOL   C331 9223   1.485   2.524   3.327 -0.0405 -0.0246  0.2199
   27MOL   C332 9224   1.567   2.515   3.450  0.1516 -0.3068 -0.3312
   27MOL   O333 9225   1.706   2.414   3.691  0.1888  0.0599 -0.3624
   27MOL   H334 9226   1.522   2.654   3.811  0.7660  0.8107  0.8597
   27MOL   H335 9227   1.677   2.598   3.859 -0.5442  0.3671  0.6396
   27MOL   H336 9228   1.519   2.410   3.766 -0.7830  0.2639  0.5087
   27MOL   H337 9229   1.322   2.475   3.678 -1.7321 -1.3786 -0.8496
   27MOL   H338 9230   1.173   2.516   3.476 -0.1930  3.7260 -1.7655
   27MOL   H339 9231   1.285   2.555   3.250 -0.1822  1.8534  1.1612
   27MOL   H340 9232   1.535   2.515   3.231  1.5250 -0.5214  1.0589
   27MOL   H341 9233   1.674   2.508   3.437  0.2703  0.3866  0.2171
   27MOL   H342 9234   1.770   2.478   3.664 -0.4527  1.6465  1.7514
   28MOL     C1 9235   4.175   3.482   7.560 -0.4436  0.9154 -0.0079
   28MOL     C2 9236   4.216   3.345   7.511  0.9656 -1.0440  0.4795
   28MOL     C3 9237   4.100   3.257   7.478 -0.1144  0.2204 -0.2875
   28MOL     C4 9238   4.046   3.249   7.346 -0.4993  0.7191 -0.5265
   28MOL     C5 9239   3.928   3.174   7.321  0.1447 -0.2044 -0.1457
   28MOL     C6 9240   3.869   3.098   7.426 -0.1267 -0.4170  0.4199
   28MOL     C7 9241   3.929   3.096   7.557 -0.3388 -0.2909  0.5971
   28MOL     C8 9242   4.041   3.183   7.581  0.2417  0.5872  0.0738
   28MOL     O9 9243   4.295   3.296   7.618  0.1512  0.4936  0.6307
   28MOL    H10 9244   4.262   3.549   7.563  0.0916  0.3041 -1.4177
   28MOL    H11 9245   4.105   3.535   7.495  0.2845  1.7789 -0.0989
   28MOL    H12 9246   4.270   3.376   7.421  0.8204  2.3614  1.5151
   28MOL    H13 9247   4.092   3.306   7.266 -2.3007  2.0567 -0.6341
   28MOL    H14 9248   3.887   3.189   7.223  0.4369 -0.4060 -0.2980
   28MOL    H15 9249   3.781   3.036   7.420  0.2223 -0.9032  0.2778
   28MOL    H16 9250   3.891   3.026   7.629  0.9333 -0.9541  0.6451
   28MOL    H17 9251   4.083   3.188   7.680 -1.9622 -1.5903  1.1922
   28MOL    H18 9252   4.132   3.482   7.660 -2.8184  0.2952 -1.0103
   28MOL    C19 9253   4.383   3.190   7.570 -0.4851 -0.6805  0.3681
   28MOL    C20 9254   4.442   3.120   7.695  0.6394  0.0404  0.9662
   28MOL    C21 9255   4.341   3.062   7.792 -0.4118 -0.7305  0.2000
   28MOL    C22 9256   4.261   3.152   7.873 -0.1157 -0.3200  0.5886
   28MOL    C23 9257   4.161   3.106   7.953  0.1881 -0.6742 -0.4530
   28MOL    C24 9258   4.148   2.967   7.977 -0.2948  0.3801  0.0890
   28MOL    C25 9259   4.232   2.878   7.907  0.1939 -0.0233 -0.0419
   28MOL    C26 9260   4.326   2.921   7.811  0.0019  0.0677  0.3560
   28MOL    O27 9261   4.538   3.203   7.764 -0.2959  0.0558 -0.4462
   28MOL    H28 9262   4.334   3.115   7.507 -1.6652  0.1752  0.2366
   28MOL    H29 9263   4.470   3.224   7.515 -1.9472  0.8244 -1.1016
   28MOL    H30 9264   4.487   3.025   7.667 -3.5527 -1.6444 -0.4990
   28MOL    H31 9265   4.275   3.259   7.865 -1.5285 -0.1253  0.6592
   28MOL    H32 9266   4.085   3.164   8.004 -1.4000 -0.7979 -2.5920
   28MOL    H33 9267   4.078   2.918   8.044 -0.0095 -1.0202 -0.6214
   28MOL    H34 9268   4.224   2.773   7.931 -0.6637  0.1851  0.5992
   28MOL    H35 9269   4.382   2.846   7.758 -0.2170 -0.1875  0.4802
   28MOL    C36 9270   4.638   3.122   7.826 -0.0045  0.2189  0.2491
   28MOL    C37 9271   4.750   3.205   7.881 -0.5381 -0.0010 -0.3822
   28MOL    C38 9272   4.888   3.128   7.866 -0.5120  0.3903 -0.7574
   28MOL    C39 9273   4.972   3.140   7.754 -0.8365 -0.2612  0.4620
   28MOL    C40 9274   5.089   3.063   7.740  0.0140 -0.6539 -0.5858
   28MOL    C41 9275   5.123   2.978   7.846 -0.1814  1.0021  0.3491
   28MOL    C42 9276   5.043   2.963   7.961 -0.4349 -0.0601  0.3455
   28MOL    C43 9277   4.924   3.035   7.964 -0.7586  0.9363  0.4802
   28MOL    O44 9278   4.731   3.245   8.021  0.1939 -0.0724 -0.3917
   28MOL    H45 9279   4.591   3.058   7.901 -1.0535  0.4712 -0.1844
   28MOL    H46 9280   4.671   3.060   7.742 -0.5968  2.5743 -1.7792
   28MOL    H47 9281   4.775   3.298   7.830  2.2895  0.2722  1.3837
   28MOL    H48 9282   4.961   3.216   7.678 -1.1011 -0.9274 -0.1738
   28MOL    H49 9283   5.153   3.081   7.654  1.6068 -1.5938  0.3826
   28MOL    H50 9284   5.224   2.941   7.840  0.6150  3.2752 -0.8011
   28MOL    H51 9285   5.082   2.911   8.048  0.9931 -1.2275 -0.9614
   28MOL    H52 9286   4.865   3.034   8.053 -0.6822 -0.2752  0.5282
   28MOL    C53 9287   4.637   3.344   8.037 -0.5389 -0.2196  0.6030
   28MOL    C54 9288   4.588   3.336   0.095  0.7085 -0.2390  1.2820
   28MOL    C55 9289   4.556   3.197   0.154 -0.2079  0.3537  0.1122
   28MOL    C56 9290   4.646   3.137   0.240 -0.5836 -0.3402  0.1567
   28MOL    C57 9291   4.639   3.006   0.279 -0.3139  0.1844 -0.0416
   28MOL    C58 9292   4.522   2.929   0.236 -0.2006  0.0228  0.4750
   28MOL    C59 9293   4.426   2.993   0.149 -0.4196 -0.2264  0.2561
   28MOL    C60 9294   4.440   3.129   0.114 -0.5254  0.2372  0.0544
   28MOL    O61 9295   4.655   3.422   0.184 -0.8155 -0.6682 -0.5389
   28MOL    H62 9296   4.679   3.440   8.005  1.8238 -1.0769  1.0377
   28MOL    H63 9297   4.554   3.315   7.972  0.3398 -0.9521 -0.1962
   28MOL    H64 9298   4.487   3.374   0.080  0.7072 -0.5055  0.5733
   28MOL    H65 9299   4.735   3.193   0.265 -1.0076  0.8742 -1.0311
   28MOL    H66 9300   4.716   2.976   0.348 -1.2194  0.3815  1.0725
   28MOL    H67 9301   4.506   2.824   0.257  0.4591 -0.0555  0.5986
   28MOL    H68 9302   4.346   2.933   0.110 -0.1702  1.6555 -3.4043
   28MOL    H69 9303   4.361   3.171   0.054 -0.2747  2.7971  1.4374
   28MOL    C70 9304   4.591   3.545   0.222 -0.4126  0.7668  0.1593
   28MOL    C71 9305   4.701   3.635   0.281  0.4047  0.6019  0.6034
   28MOL    C72 9306   4.644   3.762   0.343 -0.1498  0.4970  0.0889
   28MOL    C73 9307   4.641   3.883   0.272 -0.0370  0.3611  0.5129
   28MOL    C74 9308   4.597   4.003   0.328 -0.4326  0.6846 -0.1987
   28MOL    C75 9309   4.544   3.998   0.460  0.0220  0.2206  0.1552
   28MOL    C76 9310   4.555   3.885   0.533 -0.0445 -0.1331 -0.3803
   28MOL    C77 9311   4.603   3.768   0.475 -0.6093  0.4571 -0.4276
   28MOL    O78 9312   4.799   3.652   0.179 -0.7854  0.7500  0.3303
   28MOL    H79 9313   4.556   3.597   0.133 -1.0664  2.6003  1.4582
   28MOL    H80 9314   4.498   3.531   0.277 -1.5619 -1.9287 -2.3248
   28MOL    H81 9315   4.745   3.569   0.356  1.3376 -0.5881 -0.9408
   28MOL    H82 9316   4.679   3.888   0.170 -0.6566 -2.1575  0.1240
   28MOL    H83 9317   4.597   4.092   0.267 -1.4139 -0.0644 -1.3213
   28MOL    H84 9318   4.498   4.090   0.492  0.5111  1.6497 -3.0407
   28MOL    H85 9319   4.531   3.878   0.638  1.0915 -1.8062 -0.2223
   28MOL    H86 9320   4.628   3.684   0.539 -0.2383  0.1756 -0.9379
   28MOL    C87 9321   4.920   3.710   0.230 -0.6167 -0.3477  0.4508
   28MOL    C88 9322   4.981   3.628   0.341 -0.5406  0.2328 -0.5688
   28MOL    C89 9323   4.994   3.481   0.311 -0.7297  0.3920 -0.0243
   28MOL    C90 9324   5.009   3.433   0.177  0.3266 -0.0039  0.0827
   28MOL    C91 9325   5.019   3.293   0.156  0.1725  0.1788  0.6457
   28MOL    C92 9326   5.011   3.208   0.266  0.4415  0.0613 -0.5601
   28MOL    C93 9327   4.983   3.249   0.395 -0.2477 -0.3383 -0.1162
   28MOL    C94 9328   4.972   3.386   0.415 -0.0642 -0.6927 -0.2569
   28MOL    O95 9329   4.951   3.654   0.479  0.7683 -0.5267  0.1849
   28MOL    H96 9330   4.895   3.813   0.256  2.0689  1.8183 -4.8503
   28MOL    H97 9331   4.980   3.725   0.140 -1.4171 -0.4124 -0.0968
   28MOL    H98 9332   5.087   3.653   0.327 -0.0043 -1.4848  0.2243
   28MOL    H99 9333   5.036   3.498   0.095 -1.9910  0.8735 -0.0169
   28MOL   H100 9334   5.021   3.248   0.057 -2.1264  0.0400  0.6320
   28MOL   H101 9335   5.028   3.104   0.245  2.5268  0.3949 -0.6979
   28MOL   H102 9336   4.971   3.170   0.468 -2.5096 -0.3496 -0.4558
   28MOL   H103 9337   4.952   3.408   0.519 -3.0047 -0.5885 -0.8019
   28MOL   C104 9338   4.950   3.789   0.520  0.4465 -0.8845  0.0799
   28MOL   C105 9339   4.969   3.801   0.672 -0.1442  0.0696  0.0408
   28MOL   C106 9340   5.103   3.739   0.706  0.3512  0.5201 -0.1400
   28MOL   C107 9341   5.100   3.601   0.740 -0.3777 -0.7070  0.0805
   28MOL   C108 9342   5.220   3.539   0.777 -0.4883 -0.2169  0.8090
   28MOL   C109 9343   5.345   3.610   0.778  0.0341  0.5379 -0.0147
   28MOL   C110 9344   5.348   3.746   0.742 -0.5663 -1.0998 -0.1756
   28MOL   C111 9345   5.226   3.812   0.706 -0.6266 -0.4149 -0.2561
   28MOL   O112 9346   4.962   3.940   0.699  0.3280 -0.1999 -0.0457
   28MOL   H113 9347   5.038   3.837   0.477 -0.7002 -1.1514 -2.6330
   28MOL   H114 9348   4.869   3.854   0.486  1.0509  0.9944  2.0863
   28MOL   H115 9349   4.893   3.746   0.729 -0.8346 -0.3174 -1.2343
   28MOL   H116 9350   5.010   3.544   0.726 -1.0801  1.3443 -5.1026
   28MOL   H117 9351   5.216   3.437   0.813  3.4926 -0.0905  1.8178
   28MOL   H118 9352   5.432   3.557   0.815 -0.4984  0.5587  1.3286
   28MOL   H119 9353   5.440   3.803   0.747 -0.8858 -0.7498  2.7622
   28MOL   H120 9354   5.232   3.919   0.690 -0.0993 -0.3229  0.5251
   28MOL   C121 9355   4.956   3.975   0.840 -0.4721 -0.0180  0.0712
   28MOL   C122 9356   4.958   4.129   0.839  0.0923 -0.9211 -0.2997
   28MOL   C123 9357   5.074   4.189   0.760 -0.9709  0.2017 -0.4670
   28MOL   C124 9358   5.063   4.242   0.627  0.3457  0.3754  0.2642
   28MOL   C125 9359   5.170   4.294   0.556 -0.7132  0.0291 -0.0120
   28MOL   C126 9360   5.300   4.282   0.610 -0.4777  0.5491 -0.1292
   28MOL   C127 9361   5.317   4.215   0.733 -0.1864 -0.1687  0.2545
   28MOL   C128 9362   5.206   4.172   0.808 -0.4164  0.0540 -0.0304
   28MOL   O129 9363   4.834   4.187   0.792  0.1057 -0.3844 -0.1669
   28MOL   H130 9364   5.056   3.949   0.876 -0.2851  1.1279  0.3947
   28MOL   H131 9365   4.867   3.930   0.882 -0.4002  1.0366  1.3652
   28MOL   H132 9366   4.971   4.165   0.941 -0.0836  0.5563 -0.7898
   28MOL   H133 9367   4.966   4.234   0.581 -0.1939 -0.8508  1.5520
   28MOL   H134 9368   5.162   4.329   0.454  0.0748 -0.7086 -0.3346
   28MOL   H135 9369   5.392   4.302   0.556  0.2391 -2.4268 -0.1392
   28MOL   H136 9370   5.415   4.198   0.775  1.2390  0.7962 -2.5710
   28MOL   H137 9371   5.220   4.123   0.904 -0.6477 -0.5977 -0.3277
   28MOL   C138 9372   4.768   4.265   0.895 -0.0400 -0.3147 -0.2987
   28MOL   C139 9373   4.703   4.191   1.012 -0.4576 -0.2704  0.2393
   28MOL   C140 9374   4.602   4.090   0.955 -0.6877 -0.6607 -0.1992
   28MOL   C141 9375   4.502   4.126   0.862 -0.1500  0.8366 -0.2213
   28MOL   C142 9376   4.409   4.026   0.829  0.6223  0.1698 -0.0081
   28MOL   C143 9377   4.417   3.894   0.876 -0.3726 -0.3855  0.5523
   28MOL   C144 9378   4.514   3.862   0.972  0.4513 -0.3796 -0.1943
   28MOL   C145 9379   4.606   3.964   1.015 -0.3811  0.3391  0.3264
   28MOL   O146 9380   4.795   4.145   1.116 -0.0291 -0.5640 -0.1354
   28MOL   H147 9381   4.699   4.329   0.840 -0.1448  1.2511  1.5885
   28MOL   H148 9382   4.849   4.332   0.924  0.2964  0.1195 -2.1403
   28MOL   H149 9383   4.631   4.252   1.067 -1.2774 -0.0472 -1.0553
   28MOL   H150 9384   4.496   4.229   0.831  1.7706  1.6825  2.0437
   28MOL   H151 9385   4.330   4.053   0.760 -1.5726 -0.0965  2.3537
   28MOL   H152 9386   4.352   3.825   0.824 -0.3764  1.6514 -2.2639
   28MOL   H153 9387   4.516   3.766   1.022  2.2014  0.0421  0.5735
   28MOL   H154 9388   4.675   3.938   1.094  0.3871  0.6884 -0.2277
   28MOL   C155 9389   4.870   4.250   1.177  0.3808  0.3729 -0.5353
   28MOL   C156 9390   4.957   4.215   1.295 -0.4195  0.2244  0.0357
   28MOL   C157 9391   5.064   4.111   1.261  0.0428 -0.7018  0.6006
   28MOL   C158 9392   5.203   4.140   1.265  0.2768 -0.0551  0.0024
   28MOL   C159 9393   5.299   4.046   1.233 -0.0715 -0.4062 -0.2573
   28MOL   C160 9394   5.265   3.919   1.183  0.8369  0.1218 -0.1363
   28MOL   C161 9395   5.126   3.886   1.178 -0.4322  0.7780 -0.0627
   28MOL   C162 9396   5.027   3.980   1.218  0.1620 -0.3682  0.8008
   28MOL   O163 9397   5.019   4.329   1.357  0.3162 -0.1047  0.0592
   28MOL   H164 9398   4.790   4.316   1.212  0.0924 -0.2375 -0.0355
   28MOL   H165 9399   4.930   4.310   1.109  0.1110  0.2022 -0.9269
   28MOL   H166 9400   4.898   4.169   1.375  0.4090  0.2612  0.6785
   28MOL   H167 9401   5.227   4.242   1.291 -1.7346  0.4381  0.0700
   28MOL   H168 9402   5.404   4.074   1.236  0.1296 -1.2680  0.9278
   28MOL   H169 9403   5.339   3.848   1.148 -0.4501 -0.3772 -1.8995
   28MOL   H170 9404   5.090   3.793   1.136  1.3381 -0.1364  0.3640
   28MOL   H171 9405   4.924   3.949   1.215  0.5628 -1.7025  0.6112
   28MOL   C172 9406   4.936   4.414   1.433 -0.4756 -0.5022  0.0855
   28MOL   C173 9407   4.995   4.549   1.459  0.0089 -0.0698  0.4281
   28MOL   C174 9408   5.032   4.636   1.332 -0.0463  0.4832  0.4631
   28MOL   C175 9409   5.154   4.608   1.275  0.2526  0.0384  0.4367
   28MOL   C176 9410   5.186   4.680   1.158 -0.3731 -0.8325  0.0799
   28MOL   C177 9411   5.101   4.778   1.103  0.0168  0.1883  0.8923
   28MOL   C178 9412   4.979   4.808   1.162 -0.1674  0.2382 -0.3908
   28MOL   C179 9413   4.943   4.731   1.276 -1.0207 -0.9731 -0.2625
   28MOL   O180 9414   5.108   4.535   1.548 -0.0089 -0.2909  0.0623
   28MOL   H181 9415   4.849   4.432   1.371  0.0969 -0.3067 -0.6576
   28MOL   H182 9416   4.899   4.366   1.524  2.4571 -0.3738  1.3981
   28MOL   H183 9417   4.918   4.603   1.514 -2.6092 -3.2293  0.0396
   28MOL   H184 9418   5.215   4.530   1.319  0.3725 -0.1206 -0.0138
   28MOL   H185 9419   5.279   4.652   1.112  0.4991 -0.0084  1.3198
   28MOL   H186 9420   5.136   4.826   1.013  0.4014  0.2793  1.0893
   28MOL   H187 9421   4.905   4.874   1.121 -0.4385 -0.9425 -1.8606
   28MOL   H188 9422   4.848   4.755   1.321 -0.7346 -0.4498  0.0663
   28MOL   C189 9423   5.082   4.489   1.684  0.5424 -0.6084 -0.2047
   28MOL   C190 9424   5.005   4.595   1.776  0.0683  0.0418 -0.4180
   28MOL   C191 9425   5.041   4.574   1.925 -0.1106  0.2368  0.4875
   28MOL   C192 9426   4.966   4.499   2.014 -0.1151  1.0115 -0.2400
   28MOL   C193 9427   5.017   4.466   2.142 -0.2143 -0.3227 -0.1065
   28MOL   C194 9428   5.149   4.501   2.176 -0.9744 -0.1642  0.8527
   28MOL   C195 9429   5.220   4.590   2.090  0.4227 -0.2951 -0.5541
   28MOL   C196 9430   5.165   4.628   1.966 -0.4808  0.0943 -0.5260
   28MOL   O197 9431   4.861   4.597   1.749  0.6457  0.0196 -0.0229
   28MOL   H198 9432   5.042   4.387   1.690  1.3251 -0.8540  1.0660
   28MOL   H199 9433   5.180   4.488   1.732 -0.0797  1.1888  1.1669
   28MOL   H200 9434   5.053   4.690   1.751 -1.7462  1.6369  1.8761
   28MOL   H201 9435   4.871   4.457   1.984  0.8350 -0.1369 -1.7396
   28MOL   H202 9436   4.972   4.394   2.209 -2.4654  1.0238 -0.1211
   28MOL   H203 9437   5.203   4.454   2.257  0.5907  2.1894  1.2206
   28MOL   H204 9438   5.311   4.632   2.128  0.4385 -0.7561 -0.0789
   28MOL   H205 9439   5.223   4.690   1.900 -0.8303  0.7901 -0.1879
   28MOL   C206 9440   4.814   4.729   1.779 -0.0181 -0.5718 -0.5012
   28MOL   C207 9441   4.656   4.715   1.779 -0.5053  0.2851 -0.0414
   28MOL   C208 9442   4.585   4.691   1.642 -0.1210  0.8006 -0.8173
   28MOL   C209 9443   4.619   4.770   1.531 -0.3310  0.1985 -0.1074
   28MOL   C210 9444   4.553   4.747   1.407  0.4512 -0.0387  0.8864
   28MOL   C211 9445   4.449   4.651   1.396 -0.3395  0.2942  1.0012
   28MOL   C212 9446   4.414   4.580   1.512  0.2557 -0.6538  0.4202
   28MOL   C213 9447   4.484   4.597   1.634  1.0303  0.8157 -0.1990
   28MOL   O214 9448   4.596   4.829   1.848  0.3810  0.3955 -0.3289
   28MOL   H215 9449   4.843   4.772   1.875 -1.8046  1.8821 -1.0286
   28MOL   H216 9450   4.855   4.796   1.703  1.5456 -1.7874 -0.7701
   28MOL   H217 9451   4.643   4.624   1.837 -1.9077 -0.5139 -1.5814
   28MOL   H218 9452   4.692   4.847   1.553 -0.3729  0.5131 -1.0385
   28MOL   H219 9453   4.581   4.803   1.319  0.1311  1.0437  1.4580
   28MOL   H220 9454   4.389   4.637   1.307  0.9547  0.2605  0.1335
   28MOL   H221 9455   4.338   4.503   1.506  0.4553 -0.7835 -0.4769
   28MOL   H222 9456   4.468   4.528   1.716  3.2180  1.0046  0.3915
   28MOL   C223 9457   4.593   4.813   1.988  0.0231  0.5181 -0.7495
   28MOL   C224 9458   4.466   4.736   2.035 -0.3173  0.5824  0.1689
   28MOL   C225 9459   4.510   4.672   2.167 -0.4057 -0.8457  0.7974
   28MOL   C226 9460   4.587   4.551   2.169 -0.5748  0.3681  0.2099
   28MOL   C227 9461   4.621   4.486   2.293 -0.0661 -0.2383  0.3923
   28MOL   C228 9462   4.573   4.545   2.410  0.2156  0.0500  0.2635
   28MOL   C229 9463   4.503   4.672   2.412 -0.0545  0.0310 -0.2493
   28MOL   C230 9464   4.472   4.735   2.284 -0.1901 -0.0483 -0.8704
   28MOL   O231 9465   4.359   4.821   2.053  0.3481 -0.2146 -0.3367
   28MOL   H232 9466   4.684   4.761   2.018 -0.6689 -0.0606  0.3712
   28MOL   H233 9467   4.583   4.912   2.033 -0.6844  0.2690 -0.3612
   28MOL   H234 9468   4.436   4.663   1.960  0.4950 -0.5230  0.8923
   28MOL   H235 9469   4.617   4.502   2.078 -2.1445  0.3436 -0.2946
   28MOL   H236 9470   4.682   4.397   2.292  1.1611  0.5709 -1.7266
   28MOL   H237 9471   4.595   4.490   2.501  0.8162  1.4857  1.0093
   28MOL   H238 9472   4.466   4.707   2.507 -1.2010 -1.2975 -0.2012
   28MOL   H239 9473   4.418   4.828   2.288 -0.8125 -0.4460  0.5636
   28MOL   C240 9474   4.296   4.867   1.933  0.7277 -0.3778 -0.2734
   28MOL   C241 9475   4.196   4.978   1.977 -0.9403  0.2486 -0.1916
   28MOL   C242 9476   4.082   4.936   2.066  0.1203 -1.2007  0.1671
   28MOL   C243 9477   4.101   4.918   2.204 -0.1877 -0.2874  0.1015
   28MOL   C244 9478   3.993   4.886   2.286  0.6297 -0.0530 -0.1500
   28MOL   C245 9479   3.867   4.855   2.234 -0.1709 -0.4034  0.3387
   28MOL   C246 9480   3.837   4.889   2.093  0.8549  1.1205 -0.3187
   28MOL   C247 9481   3.949   4.924   2.014 -0.1478 -0.2735 -0.1606
   28MOL   O248 9482   4.278   5.084   2.033  0.4562  0.3262 -0.1599
   28MOL   H249 9483   4.375   4.911   1.871  2.0960 -0.6889  1.2244
   28MOL   H250 9484   4.258   4.785   1.873  1.2830 -1.9824  1.5239
   28MOL   H251 9485   4.144   5.004   1.884 -1.2425 -0.5458 -0.2515
   28MOL   H252 9486   4.200   4.917   2.246  0.1979 -0.1235 -0.7816
   28MOL   H253 9487   4.010   4.875   2.392 -0.3599 -1.3887 -0.1111
   28MOL   H254 9488   3.787   4.820   2.297 -2.6857  1.2680 -1.8290
   28MOL   H255 9489   3.739   4.860   2.059 -0.4440  2.3370  2.2426
   28MOL   H256 9490   3.932   4.932   1.907 -1.5579  0.1778  0.0862
   28MOL   C257 9491   4.216   5.212   2.054  0.4972 -0.9945 -0.6875
   28MOL   C258 9492   4.250   5.258   2.204 -0.3692 -0.4274 -0.2648
   28MOL   C259 9493   4.400   5.235   2.252  0.1098  0.4109  0.5731
   28MOL   C260 9494   4.474   5.347   2.294  0.0803 -0.1931  0.6016
   28MOL   C261 9495   4.605   5.339   2.349  0.4371 -0.2150  0.5014
   28MOL   C262 9496   4.655   5.208   2.360 -0.2043 -0.4842  0.7683
   28MOL   C263 9497   4.591   5.096   2.311  0.4877 -0.7459 -0.1254
   28MOL   C264 9498   4.467   5.109   2.253 -0.0127  0.0409  0.4298
   28MOL   O265 9499   4.164   5.192   2.297  0.5366 -0.1359  0.4173
   28MOL   H266 9500   4.107   5.209   2.050  0.3376  1.8204  0.1916
   28MOL   H267 9501   4.255   5.289   1.989 -1.3198 -0.1657 -0.8367
   28MOL   H268 9502   4.228   5.364   2.211 -2.6517 -0.8938  0.0769
   28MOL   H269 9503   4.434   5.445   2.273  1.5999  0.3173  0.0931
   28MOL   H270 9504   4.655   5.430   2.378 -0.3115  1.2150 -2.5231
   28MOL   H271 9505   4.753   5.186   2.400 -1.0409 -0.4765  2.8398
   28MOL   H272 9506   4.639   4.999   2.307  1.0649 -0.4169 -1.4738
   28MOL   H273 9507   4.414   5.023   2.215  1.1091 -0.7018  0.5318
   28MOL   C274 9508   4.144   5.268   2.418 -0.5841  0.2477 -0.4222
   28MOL   C275 9509   3.999   5.323   2.410 -0.8210  0.3093 -0.1877
   28MOL   C276 9510   4.002   5.471   2.361 -0.0022 -0.0262  0.0489
   28MOL   C277 9511   3.984   5.499   2.224  0.0626  0.0001  0.0738
   28MOL   C278 9512   4.002   5.627   2.178  0.2528  0.2246 -0.1225
   28MOL   C279 9513   4.039   5.726   2.271 -0.3776 -0.5077 -0.5453
   28MOL   C280 9514   4.036   5.705   2.412 -0.4395  0.6216  0.0935
   28MOL   C281 9515   4.032   5.574   2.451  0.0972  0.8373 -0.0794
   28MOL   O282 9516   3.963   5.316   2.542  0.1067  1.0666 -0.3992
   28MOL   H283 9517   4.154   5.198   2.501  1.9295 -0.4294 -1.2662
   28MOL   H284 9518   4.219   5.343   2.442  1.0066 -2.1450  2.3948
   28MOL   H285 9519   3.937   5.260   2.346  0.2554 -0.5799 -0.3680
   28MOL   H286 9520   3.969   5.427   2.145  1.9852  0.5083 -0.7882
   28MOL   H287 9521   4.010   5.649   2.073 -0.9047  0.2434 -0.2146
   28MOL   H288 9522   4.083   5.811   2.222  0.9309 -1.5944 -1.3019
   28MOL   H289 9523   4.062   5.789   2.475  1.1308  0.8419 -0.7986
   28MOL   H290 9524   4.057   5.544   2.552  0.1540 -1.3682 -0.7088
   28MOL   C291 9525   3.907   5.186   2.589 -0.1379  0.4564  0.3171
   28MOL   C292 9526   3.756   5.182   2.584 -0.2339 -0.3216 -1.2679
   28MOL   C293 9527   3.684   5.295   2.663  0.4962 -0.0719 -0.3154
   28MOL   C294 9528   3.670   5.424   2.606  1.4376 -0.1541 -0.2840
   28MOL   C295 9529   3.595   5.519   2.676  0.5951 -0.4647 -0.1872
   28MOL   C296 9530   3.543   5.489   2.805 -0.2684 -0.4204 -0.9948
   28MOL   C297 9531   3.563   5.368   2.866 -0.0172  0.6484 -0.2423
   28MOL   C298 9532   3.630   5.261   2.790  0.1428  0.0385  0.7614
   28MOL   O299 9533   3.719   5.181   2.445  0.2164 -0.5896  0.3940
   28MOL   H300 9534   3.942   5.177   2.692 -0.9060  3.8041  0.9259
   28MOL   H301 9535   3.944   5.106   2.524 -1.3350  0.3369 -0.2311
   28MOL   H302 9536   3.721   5.082   2.608  0.2269 -0.7254 -2.2706
   28MOL   H303 9537   3.714   5.445   2.510  0.3044 -1.0870 -1.0234
   28MOL   H304 9538   3.587   5.623   2.649  0.1475 -0.7212 -1.0643
   28MOL   H305 9539   3.490   5.565   2.860  1.3817 -0.4546  0.6971
   28MOL   H306 9540   3.526   5.349   2.966 -0.2184 -1.2767 -0.6624
   28MOL   H307 9541   3.645   5.159   2.823 -2.1290 -1.0545 -1.4008
   28MOL   C308 9542   3.574   5.160   2.417 -0.4825  0.1482 -0.2265
   28MOL   C309 9543   3.544   5.114   2.272  0.7238 -0.3864 -0.2987
   28MOL   C310 9544   3.401   5.090   2.264  0.4541 -0.0740  1.1732
   28MOL   C311 9545   3.352   4.984   2.339  0.0341 -0.2688 -0.3223
   28MOL   C312 9546   3.212   4.957   2.344  0.0884  0.1537 -0.5125
   28MOL   C313 9547   3.124   5.035   2.266  0.0098  0.0649  0.6420
   28MOL   C314 9548   3.165   5.148   2.203 -0.7534 -0.2186 -0.3232
   28MOL   C315 9549   3.308   5.179   2.199 -0.5559 -0.0457  0.0552
   28MOL   O316 9550   3.582   5.219   2.184 -0.1249  0.3244 -0.1783
   28MOL   H317 9551   3.527   5.257   2.436 -0.2528  0.1491  0.3457
   28MOL   H318 9552   3.527   5.089   2.484  1.9163 -1.3287 -0.0506
   28MOL   H319 9553   3.596   5.021   2.252  1.1399  0.0940 -1.5558
   28MOL   H320 9554   3.414   4.923   2.403  0.8183  0.0914 -0.7377
   28MOL   H321 9555   3.168   4.880   2.405 -2.5047  0.5194 -1.8605
   28MOL   H322 9556   3.019   5.010   2.262 -0.1700  0.7897  0.7947
   28MOL   H323 9557   3.098   5.217   2.153  1.0304  1.5434 -0.3258
   28MOL   H324 9558   3.348   5.265   2.149 -1.3274  1.2896  1.6610
   28MOL   C325 9559   3.642   5.177   2.058 -0.1261  0.1964 -0.4025
   28MOL   C326 9560   3.662   5.288   1.954  0.2570  0.0239  0.1002
   28MOL   C327 9561   3.759   5.232   1.855 -0.2551  0.2317 -0.9636
   28MOL   C328 9562   3.897   5.272   1.845  1.0458  0.2194 -0.4613
   28MOL   C329 9563   3.983   5.204   1.756  0.3478  0.0067 -0.1201
   28MOL   C330 9564   3.935   5.097   1.678 -0.7267 -0.1872 -0.1217
   28MOL   C331 9565   3.796   5.066   1.673  0.0476 -0.1394  0.1940
   28MOL   C332 9566   3.712   5.125   1.769  0.3248 -1.1061 -0.0930
   28MOL   O333 9567   3.535   5.313   1.895 -0.5021 -0.2526  0.5985
   28MOL   H334 9568   3.594   5.089   2.015 -1.4328 -0.2156  1.8130
   28MOL   H335 9569   3.739   5.144   2.096  0.8838  0.3037 -2.7809
   28MOL   H336 9570   3.707   5.382   1.987  1.3100  0.2183 -1.8185
   28MOL   H337 9571   3.938   5.355   1.899 -2.1970  0.4795  1.7572
   28MOL   H338 9572   4.082   5.240   1.734 -0.4684  1.7925 -0.9095
   28MOL   H339 9573   4.005   5.044   1.615  0.6280  1.1064  0.2798
   28MOL   H340 9574   3.752   4.993   1.607  0.8921  0.5452 -1.1337
   28MOL   H341 9575   3.608   5.097   1.766 -0.1629  0.6249  0.2677
   28MOL   H342 9576   3.468   5.315   1.961  1.0231  0.8967  2.1408
   29MOL     C1 9577   4.646   0.538   3.591 -0.3764  0.4034 -0.1167
   29MOL     C2 9578   4.646   0.445   3.715 -0.3890  0.2882 -0.0914
   29MOL     C3 9579   4.512   0.370   3.718 -0.2028 -0.7179 -0.2390
   29MOL     C4 9580   4.398   0.418   3.782 -0.1589  0.5577 -0.7161
   29MOL     C5 9581   4.286   0.338   3.789 -0.4803 -0.4928 -1.0060
   29MOL     C6 9582   4.276   0.214   3.725 -0.9227  0.4852 -0.1988
   29MOL     C7 9583   4.391   0.165   3.668  0.1720 -0.0011  0.3761
   29MOL     C8 9584   4.511   0.237   3.667  0.8717 -0.5908  0.0033
   29MOL     O9 9585   4.670   0.532   3.830  0.3944  0.3534 -0.0796
   29MOL    H10 9586   4.668   0.469   3.510  0.4598 -1.6604  1.8092
   29MOL    H11 9587   4.548   0.583   3.575 -0.5138  1.0876  2.3758
   29MOL    H12 9588   4.730   0.376   3.718 -0.9791 -0.3562  3.1058
   29MOL    H13 9589   4.402   0.515   3.828  1.5294 -0.4530  1.3319
   29MOL    H14 9590   4.193   0.376   3.829  0.0497  0.7860 -0.9609
   29MOL    H15 9591   4.179   0.165   3.729  0.2573 -1.9918 -0.9722
   29MOL    H16 9592   4.386   0.067   3.621  2.7564  0.7285 -1.5712
   29MOL    H17 9593   4.599   0.202   3.615  0.9383  0.1722 -0.4096
   29MOL    H18 9594   4.721   0.617   3.597  1.1446 -0.9799 -0.3523
   29MOL    C19 9595   4.687   0.481   3.962 -0.0007 -0.2493  0.9977
   29MOL    C20 9596   4.684   0.596   4.064  0.3283  0.1461 -0.0515
   29MOL    C21 9597   4.577   0.698   4.025  0.0709  0.2614 -0.0750
   29MOL    C22 9598   4.607   0.811   3.943 -0.1750 -0.1932 -0.4125
   29MOL    C23 9599   4.510   0.904   3.913  0.4632  0.0488  0.4301
   29MOL    C24 9600   4.374   0.888   3.957 -0.4010 -0.0855  0.5503
   29MOL    C25 9601   4.348   0.778   4.043 -0.6076 -0.3351  0.2080
   29MOL    C26 9602   4.446   0.684   4.077  0.2480 -0.4453 -0.7300
   29MOL    O27 9603   4.810   0.664   4.075 -0.1729 -0.6618 -0.7414
   29MOL    H28 9604   4.604   0.414   3.985 -1.9726  1.8342  0.2127
   29MOL    H29 9605   4.775   0.417   3.969  0.4306  0.1768 -0.3106
   29MOL    H30 9606   4.657   0.557   4.161  0.9369 -0.6144 -0.1822
   29MOL    H31 9607   4.700   0.828   3.892 -0.8642  1.9758 -0.9857
   29MOL    H32 9608   4.540   0.985   3.849 -1.4801 -0.1075 -0.7221
   29MOL    H33 9609   4.297   0.960   3.933 -0.6598 -1.2245 -2.3073
   29MOL    H34 9610   4.254   0.753   4.090 -0.8288  1.9092  0.9986
   29MOL    H35 9611   4.418   0.609   4.149  1.0095 -0.8770 -0.8772
   29MOL    C36 9612   4.830   0.755   4.180  0.1227 -0.3520 -0.4077
   29MOL    C37 9613   4.966   0.723   4.243  0.3760 -0.2922  0.0162
   29MOL    C38 9614   4.961   0.583   4.299  0.2680  0.3993  0.2008
   29MOL    C39 9615   4.862   0.539   4.392  0.4556  0.2462 -0.8121
   29MOL    C40 9616   4.862   0.407   4.437 -0.7479  0.8177 -0.3754
   29MOL    C41 9617   4.960   0.318   4.390 -0.3057 -0.0242 -0.3653
   29MOL    C42 9618   5.058   0.358   4.301  0.5019 -0.1850 -0.1152
   29MOL    C43 9619   5.055   0.494   4.252  0.2368 -0.3046  0.5639
   29MOL    O44 9620   4.984   0.821   4.349 -0.4845 -0.3624 -0.3188
   29MOL    H45 9621   4.836   0.854   4.134  0.6250 -0.5146 -0.6992
   29MOL    H46 9622   4.759   0.752   4.263 -0.2214 -2.4025 -0.7394
   29MOL    H47 9623   5.040   0.726   4.163  0.1989  1.6959 -0.0846
   29MOL    H48 9624   4.792   0.616   4.421  1.4530  0.7276  0.3345
   29MOL    H49 9625   4.791   0.364   4.505 -0.1558 -0.7461 -0.7165
   29MOL    H50 9626   4.964   0.219   4.434 -2.3387 -0.4695 -1.1045
   29MOL    H51 9627   5.139   0.290   4.279  1.6554  1.1619 -0.0442
   29MOL    H52 9628   5.135   0.532   4.190  0.1568  0.3934  0.8823
   29MOL    C53 9629   5.086   0.921   4.339  0.1759  0.1011  0.2822
   29MOL    C54 9630   5.225   0.861   4.297  0.2011  0.2715 -0.2132
   29MOL    C55 9631   5.305   0.970   4.221  0.1980  0.8384 -0.0685
   29MOL    C56 9632   5.334   0.950   4.084 -0.1630  0.6228 -0.1579
   29MOL    C57 9633   5.393   1.059   4.015 -0.3878 -0.0447 -0.0875
   29MOL    C58 9634   5.426   1.179   4.082  0.2077  0.2136  0.2194
   29MOL    C59 9635   5.413   1.193   4.219 -0.0096 -0.5649 -0.0680
   29MOL    C60 9636   5.356   1.084   4.286  0.3180 -0.0445 -0.1992
   29MOL    O61 9637   5.290   0.832   4.418  0.7579  0.3499  0.0181
   29MOL    H62 9638   5.060   0.991   4.261  0.8580  3.3207  2.8353
   29MOL    H63 9639   5.087   0.969   4.437  3.3845 -2.5777  1.6842
   29MOL    H64 9640   5.222   0.772   4.234 -0.8882  0.7072 -0.7912
   29MOL    H65 9641   5.308   0.857   4.035 -0.3836  0.3913  0.3957
   29MOL    H66 9642   5.410   1.056   3.908 -1.4066 -0.8707 -0.2351
   29MOL    H67 9643   5.470   1.258   4.023  0.7757 -0.4642 -0.2845
   29MOL    H68 9644   5.435   1.290   4.260  0.6622  0.2659 -2.3300
   29MOL    H69 9645   5.331   1.114   4.386  1.1219 -0.8351  0.2483
   29MOL    C70 9646   5.245   0.708   4.476 -0.9731 -0.5967 -0.3543
   29MOL    C71 9647   5.336   0.675   4.601 -0.3449 -0.0239 -0.3781
   29MOL    C72 9648   5.291   0.542   4.658  0.2084  0.3720 -0.1266
   29MOL    C73 9649   5.164   0.530   4.714 -0.9345  0.8044 -0.6834
   29MOL    C74 9650   5.118   0.404   4.770 -0.6150 -0.2417 -0.9387
   29MOL    C75 9651   5.206   0.292   4.764 -0.4459  0.7663  0.2503
   29MOL    C76 9652   5.329   0.302   4.704  0.2258 -0.4499  0.9705
   29MOL    C77 9653   5.372   0.426   4.653  0.6564  0.4608  0.0118
   29MOL    O78 9654   5.319   0.778   4.704  0.4879  0.1318  0.7043
   29MOL    H79 9655   5.140   0.720   4.501 -0.7314  0.8677  0.0131
   29MOL    H80 9656   5.255   0.629   4.401  0.3595  0.1548 -0.9958
   29MOL    H81 9657   5.438   0.650   4.570 -0.8073 -3.9834  1.0605
   29MOL    H82 9658   5.093   0.611   4.699 -0.6471  1.6955  2.3415
   29MOL    H83 9659   5.024   0.395   4.822  1.4988 -0.6888  3.0385
   29MOL    H84 9660   5.176   0.194   4.797  0.0924  0.0291 -1.3757
   29MOL    H85 9661   5.405   0.226   4.713 -0.7214 -1.5309 -0.1574
   29MOL    H86 9662   5.468   0.432   4.603  1.0139  0.3661  0.6792
   29MOL    C87 9663   5.425   0.871   4.696  0.3776 -0.2504 -0.2697
   29MOL    C88 9664   5.394   0.989   4.786 -0.5788 -0.2050 -0.3472
   29MOL    C89 9665   5.321   1.097   4.713 -0.8107 -0.2561 -0.6488
   29MOL    C90 9666   5.184   1.096   4.709 -0.6737  1.0356 -0.6835
   29MOL    C91 9667   5.115   1.198   4.638 -0.1570  1.0770  0.0404
   29MOL    C92 9668   5.180   1.306   4.580  0.2987  0.3746  0.1049
   29MOL    C93 9669   5.323   1.303   4.587  0.1763  0.2954 -0.3775
   29MOL    C94 9670   5.393   1.203   4.655 -0.0782  0.3571  0.0786
   29MOL    O95 9671   5.515   1.032   4.845 -0.1678  0.3589  0.0852
   29MOL    H96 9672   5.441   0.913   4.597  2.2257  0.1080  0.1796
   29MOL    H97 9673   5.516   0.818   4.725  1.2882  1.3428 -0.1648
   29MOL    H98 9674   5.330   0.965   4.871  2.0888  1.2100  2.1610
   29MOL    H99 9675   5.125   1.013   4.746  1.6205 -0.3510 -0.0803
   29MOL   H100 9676   5.008   1.197   4.650  0.0151 -0.4663  1.7851
   29MOL   H101 9677   5.125   1.386   4.533 -1.7347 -1.2804 -0.3880
   29MOL   H102 9678   5.380   1.392   4.561  1.5380 -0.3011  0.4935
   29MOL   H103 9679   5.500   1.209   4.663 -0.2179  0.7986  2.1104
   29MOL   C104 9680   5.530   0.956   4.966  0.6372 -0.3206  0.3810
   29MOL   C105 9681   5.676   0.952   5.009 -0.4806  0.5338 -0.5116
   29MOL   C106 9682   5.702   0.933   5.155 -0.2811  0.2454 -0.8238
   29MOL   C107 9683   5.766   1.032   5.229  0.7265 -0.1498  0.3043
   29MOL   C108 9684   5.746   1.029   5.372  0.0405  0.0444  0.3112
   29MOL   C109 9685   5.683   0.914   5.437 -0.0838  0.3401  0.2604
   29MOL   C110 9686   5.651   0.804   5.360 -0.0198  0.3221  0.2898
   29MOL   C111 9687   5.656   0.817   5.219  1.2208  0.4660  0.1414
   29MOL   O112 9688   5.740   0.861   4.921 -0.6570  0.1808  0.0130
   29MOL   H113 9689   5.467   0.998   5.045  1.9530  1.9753  0.2549
   29MOL   H114 9690   5.480   0.859   4.973  1.4379 -0.5366  3.6703
   29MOL   H115 9691   5.714   1.052   4.991  2.3710 -0.7732 -2.1706
   29MOL   H116 9692   5.812   1.122   5.192  1.0263 -0.5317 -0.2634
   29MOL   H117 9693   5.781   1.102   5.443  1.5640 -0.0930 -0.2754
   29MOL   H118 9694   5.663   0.909   5.543 -1.1715  0.7370  0.0844
   29MOL   H119 9695   5.610   0.713   5.401 -2.6504  1.8705  1.1970
   29MOL   H120 9696   5.614   0.732   5.167 -1.5515  3.4363 -2.7270
   29MOL   C121 9697   5.883   0.854   4.929 -0.2399  0.2373  0.4986
   29MOL   C122 9698   5.939   0.920   4.797  0.1113  0.2872  0.0288
   29MOL   C123 9699   5.869   0.863   4.671 -0.2716 -0.2409 -0.6699
   29MOL   C124 9700   5.909   0.734   4.627  0.3669  0.4266 -0.7401
   29MOL   C125 9701   5.849   0.671   4.520 -0.1358  0.1018 -0.0577
   29MOL   C126 9702   5.751   0.748   4.449 -0.8488  0.6282 -0.0616
   29MOL   C127 9703   5.714   0.876   4.487 -0.1740 -0.1743  0.5183
   29MOL   C128 9704   5.770   0.937   4.601 -0.5569 -0.8136  0.0083
   29MOL   O129 9705   5.929   1.059   4.801  0.1686  0.9273 -0.6050
   29MOL   H130 9706   5.909   0.748   4.921 -2.4241 -0.2585 -0.3636
   29MOL   H131 9707   5.927   0.886   5.024 -2.1038  1.8458  0.8420
   29MOL   H132 9708   6.041   0.883   4.784 -0.4502 -0.5187 -2.2143
   29MOL   H133 9709   5.986   0.686   4.685 -0.3053  0.5451  0.2768
   29MOL   H134 9710   5.880   0.572   4.492 -2.5705 -0.5748 -0.5060
   29MOL   H135 9711   5.695   0.708   4.366 -0.9850 -0.4131  0.5167
   29MOL   H136 9712   5.650   0.943   4.433 -0.7263  0.9230  2.5127
   29MOL   H137 9713   5.729   1.030   4.638  1.9047  0.5389 -0.6115
   29MOL   C138 9714   6.011   1.133   4.894 -0.2943  0.4752 -0.1933
   29MOL   C139 9715   5.963   1.282   4.865  0.0787 -0.3962  0.2708
   29MOL   C140 9716   5.849   1.338   4.951  0.6898  0.1432 -0.0609
   29MOL   C141 9717   5.712   1.309   4.921  0.4544  0.2376 -0.0134
   29MOL   C142 9718   5.608   1.363   4.998 -0.1465 -0.6378 -0.0226
   29MOL   C143 9719   5.640   1.457   5.102  0.8335  0.3204 -0.0466
   29MOL   C144 9720   5.769   1.488   5.136 -0.3514 -0.2554  0.3120
   29MOL   C145 9721   5.873   1.426   5.064 -0.0768 -0.2380  0.8457
   29MOL   O146 9722   6.085   1.359   4.889  0.0530  0.0689 -0.2043
   29MOL   H147 9723   6.119   1.120   4.881 -0.2553 -1.4688  1.9864
   29MOL   H148 9724   5.987   1.122   4.999 -0.1861  2.5730  0.0867
   29MOL   H149 9725   5.940   1.299   4.760  3.1220  0.1405 -0.3474
   29MOL   H150 9726   5.676   1.242   4.844  0.4675 -0.3291  0.4682
   29MOL   H151 9727   5.508   1.326   4.984  0.1769 -0.6804 -2.5298
   29MOL   H152 9728   5.558   1.490   5.165  1.2131  0.2548  0.4865
   29MOL   H153 9729   5.796   1.553   5.218  2.7439 -2.0232  0.7643
   29MOL   H154 9730   5.971   1.450   5.100  0.3284 -0.8184  0.1357
   29MOL   C155 9731   6.075   1.498   4.840  0.0131  0.4137  0.0556
   29MOL   C156 9732   6.171   1.516   4.721 -0.0415  0.1848 -0.0914
   29MOL   C157 9733   6.319   1.485   4.734 -0.1771  0.0137 -0.0613
   29MOL   C158 9734   6.363   1.353   4.745  0.8475 -0.7113 -0.6436
   29MOL   C159 9735   6.498   1.315   4.765 -0.4915 -0.2307 -0.5261
   29MOL   C160 9736   6.592   1.417   4.769  0.1248  0.7061 -0.7098
   29MOL   C161 9737   6.549   1.552   4.768  0.2775  0.7071  0.1797
   29MOL   C162 9738   6.414   1.584   4.742 -0.2009 -0.4228  0.1807
   29MOL   O163 9739   6.111   1.439   4.615 -0.4059  0.1932 -0.0069
   29MOL   H164 9740   6.099   1.568   4.921  0.0398 -0.5423  0.8832
   29MOL   H165 9741   5.974   1.534   4.818 -0.0869 -0.1314 -0.3861
   29MOL   H166 9742   6.151   1.620   4.696 -1.8698  0.1126  0.9568
   29MOL   H167 9743   6.287   1.276   4.741  0.5642 -0.4201 -0.9173
   29MOL   H168 9744   6.521   1.213   4.791  0.7875  0.4703  1.2093
   29MOL   H169 9745   6.694   1.384   4.785  0.2944  1.9224  0.7929
   29MOL   H170 9746   6.608   1.641   4.778 -0.5176  1.5114 -2.0470
   29MOL   H171 9747   6.379   1.685   4.734 -0.8967 -0.6515  0.3001
   29MOL   C172 9748   6.163   1.463   4.484  0.0323  0.1460  0.4646
   29MOL   C173 9749   6.120   1.351   4.385 -1.0793  0.6557 -0.8192
   29MOL   C174 9750   6.199   1.224   4.402 -0.0863 -0.5424 -0.6792
   29MOL   C175 9751   6.338   1.229   4.375  0.9309 -0.5018  0.3696
   29MOL   C176 9752   6.421   1.122   4.410 -0.2545  0.4021  0.2832
   29MOL   C177 9753   6.368   1.008   4.478 -0.1501 -0.9083 -0.3394
   29MOL   C178 9754   6.228   1.003   4.509 -0.4802  0.0220  0.0472
   29MOL   C179 9755   6.142   1.111   4.470 -0.1209  0.3959 -0.0146
   29MOL   O180 9756   6.133   1.394   4.250  0.2207  0.0950 -0.3081
   29MOL   H181 9757   6.132   1.564   4.454 -0.2523  0.2276  1.0254
   29MOL   H182 9758   6.272   1.470   4.488  0.0482 -0.8627  2.3443
   29MOL   H183 9759   6.016   1.325   4.405 -0.7427  0.9323  1.3743
   29MOL   H184 9760   6.370   1.325   4.336 -0.4177  0.3510  1.2987
   29MOL   H185 9761   6.528   1.128   4.393 -0.1101  1.1225  1.4186
   29MOL   H186 9762   6.431   0.926   4.509  0.2280  0.8537  3.7928
   29MOL   H187 9763   6.188   0.919   4.563  2.7032 -0.9605  0.9777
   29MOL   H188 9764   6.039   1.122   4.502 -1.2893 -0.6353 -3.3084
   29MOL   C189 9765   6.026   1.465   4.203  0.3686  0.0148  0.8947
   29MOL   C190 9766   6.069   1.511   4.065  0.5455  0.1478 -0.9387
   29MOL   C191 9767   6.184   1.615   4.073 -0.0146 -0.7172 -0.4962
   29MOL   C192 9768   6.318   1.580   4.088 -0.7704 -0.0062  0.1191
   29MOL   C193 9769   6.421   1.684   4.093 -0.5961 -0.3922 -0.1633
   29MOL   C194 9770   6.381   1.817   4.074 -0.3939 -0.2990 -0.3223
   29MOL   C195 9771   6.245   1.850   4.055 -0.7308 -0.2679  0.0193
   29MOL   C196 9772   6.150   1.749   4.060 -0.6667  0.4942 -0.3364
   29MOL   O197 9773   5.960   1.570   3.994 -0.0618 -0.1159 -0.3013
   29MOL   H198 9774   5.940   1.400   4.192  0.2912  0.4870 -1.9067
   29MOL   H199 9775   5.991   1.552   4.259  0.7340  1.9381 -1.7506
   29MOL   H200 9776   6.110   1.423   4.015 -0.1818 -0.1498 -1.0084
   29MOL   H201 9777   6.335   1.474   4.103  0.7534  0.3827  1.3061
   29MOL   H202 9778   6.527   1.663   4.103 -0.1641  1.5195 -0.3880
   29MOL   H203 9779   6.450   1.900   4.073  0.4445 -0.9610  1.3043
   29MOL   H204 9780   6.218   1.948   4.017 -2.3353 -0.1519  1.4181
   29MOL   H205 9781   6.048   1.781   4.044 -0.6353  0.7640  0.0047
   29MOL   C206 9782   5.879   1.486   3.917  0.2051 -0.7985  0.3709
   29MOL   C207 9783   5.768   1.563   3.848  0.6669 -0.3389 -0.8282
   29MOL   C208 9784   5.668   1.464   3.795  0.7524 -0.3841 -0.4744
   29MOL   C209 9785   5.710   1.372   3.692  0.6582  0.0222  0.1836
   29MOL   C210 9786   5.616   1.288   3.630  0.0492 -0.4848  0.0070
   29MOL   C211 9787   5.480   1.280   3.689  1.0625  0.2389 -0.0753
   29MOL   C212 9788   5.439   1.368   3.789  0.3685 -0.1993  0.3802
   29MOL   C213 9789   5.533   1.456   3.839 -0.3383  0.5020  0.4499
   29MOL   O214 9790   5.813   1.650   3.737  0.0536  0.0782 -0.6971
   29MOL   H215 9791   5.943   1.434   3.846 -0.9747 -1.2459 -0.3702
   29MOL   H216 9792   5.826   1.421   3.987 -0.5800 -0.6573 -0.0928
   29MOL   H217 9793   5.723   1.628   3.922  2.4881 -2.3282  2.1297
   29MOL   H218 9794   5.813   1.364   3.659  0.2739  0.0878 -1.0707
   29MOL   H219 9795   5.641   1.221   3.549 -2.3685  0.1193 -1.2859
   29MOL   H220 9796   5.408   1.214   3.643 -1.4002  1.4390  1.9818
   29MOL   H221 9797   5.339   1.379   3.828  0.0559  0.9131 -0.7241
   29MOL   H222 9798   5.498   1.524   3.915 -0.9214  0.6751  0.0252
   29MOL   C223 9799   5.708   1.738   3.695  0.2088  0.7886  0.7350
   29MOL   C224 9800   5.768   1.839   3.600 -0.4809 -0.1282 -0.6496
   29MOL   C225 9801   5.876   1.929   3.662  0.7339 -0.1193 -0.3246
   29MOL   C226 9802   6.003   1.881   3.707  0.4631  0.5409  0.4341
   29MOL   C227 9803   6.107   1.956   3.753 -0.3302 -0.2715  0.7256
   29MOL   C228 9804   6.079   2.091   3.762  0.5899 -0.5227  0.7010
   29MOL   C229 9805   5.950   2.143   3.743 -0.1088  0.4771  0.3514
   29MOL   C230 9806   5.848   2.063   3.688 -0.4052  0.1402  0.2175
   29MOL   O231 9807   5.826   1.762   3.495 -0.1302 -0.2019 -0.0344
   29MOL   H232 9808   5.618   1.690   3.656 -0.0000  1.5755  0.2407
   29MOL   H233 9809   5.682   1.795   3.784 -0.8264  2.3475 -0.5275
   29MOL   H234 9810   5.683   1.898   3.565  1.5762  1.2608 -3.5381
   29MOL   H235 9811   6.028   1.779   3.682  1.6279  0.4436  1.9571
   29MOL   H236 9812   6.202   1.905   3.768 -0.0216 -0.4597 -1.7659
   29MOL   H237 9813   6.162   2.152   3.796  1.8655 -0.5465 -2.1481
   29MOL   H238 9814   5.921   2.248   3.747  0.6814  0.6814  0.6624
   29MOL   H239 9815   5.750   2.108   3.679  0.0442  1.4467  1.6486
   29MOL   C240 9816   5.831   1.836   3.363 -0.0699 -0.1181 -0.4111
   29MOL   C241 9817   5.829   1.745   3.241  0.4980 -0.2541  0.3147
   29MOL   C242 9818   5.698   1.669   3.219  0.1214 -0.2129  0.4633
   29MOL   C243 9819   5.618   1.707   3.113 -0.6917 -0.5023 -0.0604
   29MOL   C244 9820   5.507   1.633   3.086  1.6230  0.3330  0.4058
   29MOL   C245 9821   5.459   1.531   3.176  0.0331 -0.0044  1.4898
   29MOL   C246 9822   5.539   1.494   3.284 -0.8643 -0.3576  0.2648
   29MOL   C247 9823   5.662   1.561   3.304 -0.8034  0.2208  0.4723
   29MOL   O248 9824   5.880   1.826   3.134 -0.0088  0.4214 -0.1792
   29MOL   H249 9825   5.744   1.901   3.369  0.0776  0.0798 -0.4265
   29MOL   H250 9826   5.916   1.904   3.372 -0.4770  0.2420  0.6925
   29MOL   H251 9827   5.903   1.668   3.264  0.1138 -0.7488 -0.0846
   29MOL   H252 9828   5.644   1.796   3.056 -1.7672  1.8190  2.9132
   29MOL   H253 9829   5.440   1.650   3.003  1.2691 -2.0761  0.1624
   29MOL   H254 9830   5.356   1.501   3.162  0.2860 -0.6123  0.9139
   29MOL   H255 9831   5.514   1.415   3.353  1.0005 -0.7460  0.5478
   29MOL   H256 9832   5.727   1.534   3.386  2.7101  2.5447 -1.4135
   29MOL   C257 9833   5.901   1.758   3.009 -0.0103  0.2541  0.4632
   29MOL   C258 9834   5.859   1.850   2.889 -0.1150  0.7267  0.1945
   29MOL   C259 9835   5.777   1.773   2.783 -0.0130 -0.8396 -0.6584
   29MOL   C260 9836   5.838   1.697   2.684 -0.2676  0.2318  0.0862
   29MOL   C261 9837   5.758   1.623   2.591  0.0333 -0.6826  1.0512
   29MOL   C262 9838   5.614   1.621   2.602 -0.4696  0.5858  0.1635
   29MOL   C263 9839   5.554   1.717   2.683 -0.0279 -0.4574  0.8639
   29MOL   C264 9840   5.638   1.787   2.777 -0.2662 -0.0446  0.5725
   29MOL   O265 9841   5.972   1.900   2.831 -0.2086 -0.2360 -0.5188
   29MOL   H266 9842   5.842   1.666   3.007 -1.6032  1.2635 -1.1635
   29MOL   H267 9843   6.007   1.739   2.994  0.0958  1.8377 -0.9687
   29MOL   H268 9844   5.785   1.924   2.917 -0.8893  0.0579 -0.0455
   29MOL   H269 9845   5.944   1.685   2.668 -0.0234  1.0763  1.0390
   29MOL   H270 9846   5.810   1.576   2.509 -3.3131 -2.0740 -0.3482
   29MOL   H271 9847   5.569   1.561   2.525  0.7905 -1.7565  1.1883
   29MOL   H272 9848   5.449   1.740   2.688 -0.2888 -1.6618  1.2542
   29MOL   H273 9849   5.589   1.859   2.841  0.6435  2.2379 -1.2455
   29MOL   C274 9850   5.950   2.027   2.765  0.2025 -0.7013  0.8090
   29MOL   C275 9851   6.078   2.066   2.695 -0.9156 -0.3926 -1.0528
   29MOL   C276 9852   6.107   1.999   2.570 -0.2894  0.8890 -1.0752
   29MOL   C277 9853   6.113   2.066   2.447 -0.0038  0.4476 -0.4902
   29MOL   C278 9854   6.133   1.996   2.325  0.2141 -0.1039 -0.1056
   29MOL   C279 9855   6.172   1.863   2.320 -0.6079  0.6998  0.3190
   29MOL   C280 9856   6.185   1.800   2.445 -0.0423 -0.2220  0.3013
   29MOL   C281 9857   6.145   1.865   2.562  0.2493  0.6850 -0.0979
   29MOL   O282 9858   6.188   2.071   2.785 -0.0400 -0.2044 -0.0124
   29MOL   H283 9859   5.867   2.013   2.695 -0.1852 -0.7960  1.2873
   29MOL   H284 9860   5.910   2.106   2.829 -0.4682 -0.2460 -0.1555
   29MOL   H285 9861   6.063   2.172   2.673  1.2530  0.2596  0.4947
   29MOL   H286 9862   6.077   2.168   2.438  0.5758  0.5869 -1.3091
   29MOL   H287 9863   6.118   2.059   2.239  2.4582  1.7867  0.8377
   29MOL   H288 9864   6.197   1.809   2.230 -2.5796  0.5765 -0.1775
   29MOL   H289 9865   6.221   1.698   2.449 -1.2087 -0.5873  2.4146
   29MOL   H290 9866   6.153   1.814   2.657 -1.8535  0.5101  0.0071
   29MOL   C291 9867   6.298   2.143   2.737 -0.3864 -0.7927 -0.3038
   29MOL   C292 9868   6.399   2.141   2.860 -0.5185  0.2213  0.5764
   29MOL   C293 9869   6.546   2.180   2.825  1.0248 -0.1311 -0.2164
   29MOL   C294 9870   6.590   2.313   2.843  0.4645  0.3122  0.1607
   29MOL   C295 9871   6.729   2.344   2.805 -0.2425  0.6549 -0.5826
   29MOL   C296 9872   6.810   2.238   2.756  0.0538  0.5919 -0.1141
   29MOL   C297 9873   6.758   2.108   2.735 -0.7331 -0.3388 -0.4074
   29MOL   C298 9874   6.627   2.079   2.779 -0.0771  0.4726 -0.4815
   29MOL   O299 9875   6.343   2.211   2.964  0.6788  0.1943 -0.1067
   29MOL   H300 9876   6.266   2.245   2.714  1.4847 -0.0808  0.1594
   29MOL   H301 9877   6.338   2.088   2.652  1.1543 -1.0546  0.5680
   29MOL   H302 9878   6.396   2.035   2.885 -1.2253  0.5975  2.2022
   29MOL   H303 9879   6.525   2.389   2.883  0.5916 -0.3139  1.5949
   29MOL   H304 9880   6.776   2.440   2.822  1.9016 -0.5698  0.7175
   29MOL   H305 9881   6.911   2.253   2.720 -0.1325  1.4285 -0.2828
   29MOL   H306 9882   6.820   2.024   2.706 -0.4611  0.3495 -1.8395
   29MOL   H307 9883   6.588   1.979   2.769  0.9809  0.1007 -0.9561
   29MOL   C308 9884   6.401   2.197   3.098  0.0166 -0.1610  0.2725
   29MOL   C309 9885   6.364   2.327   3.173  0.2166  0.2577  0.4536
   29MOL   C310 9886   6.440   2.330   3.304 -0.5288  0.1023 -0.0194
   29MOL   C311 9887   6.373   2.327   3.427 -0.1928  0.1036 -0.0721
   29MOL   C312 9888   6.441   2.337   3.546 -0.1863 -0.0270  0.3767
   29MOL   C313 9889   6.580   2.346   3.549  0.4792 -0.1262  0.4489
   29MOL   C314 9890   6.647   2.363   3.432 -0.3757  0.6594  0.4905
   29MOL   C315 9891   6.582   2.350   3.306 -0.5020  0.0593 -0.4861
   29MOL   O316 9892   6.399   2.433   3.085 -0.2286 -0.0733 -0.1787
   29MOL   H317 9893   6.510   2.203   3.091  0.2502 -1.0942  2.5595
   29MOL   H318 9894   6.368   2.108   3.152  3.1720 -1.2961  0.4847
   29MOL   H319 9895   6.258   2.336   3.193  0.4727  0.4481  1.7791
   29MOL   H320 9896   6.266   2.316   3.428 -0.0478 -1.7158  3.6810
   29MOL   H321 9897   6.386   2.334   3.639 -0.9358  2.4728  0.0323
   29MOL   H322 9898   6.640   2.346   3.639 -0.3596  0.1158  1.0115
   29MOL   H323 9899   6.755   2.367   3.432 -0.3635  0.4729  1.6359
   29MOL   H324 9900   6.646   2.344   3.218 -0.2236 -0.1037 -0.2732
   29MOL   C325 9901   6.337   2.554   3.121  0.3450 -0.2119 -0.0836
   29MOL   C326 9902   6.409   2.680   3.061  0.7488 -0.1438  0.3984
   29MOL   C327 9903   6.545   2.700   3.134 -0.1276  0.1577  0.4415
   29MOL   C328 9904   6.553   2.708   3.271  0.1509 -0.0138 -0.3676
   29MOL   C329 9905   6.681   2.723   3.333  0.2580  0.5315  0.0044
   29MOL   C330 9906   6.799   2.745   3.255  0.2022  0.4273 -0.0261
   29MOL   C331 9907   6.786   2.734   3.115 -0.1048  0.5653 -0.0783
   29MOL   C332 9908   6.664   2.714   3.055  0.0646  0.0889 -0.1160
   29MOL   O333 9909   6.407   2.673   2.919  0.5083  0.3652 -0.7517
   29MOL   H334 9910   6.299   2.558   3.223  1.2779 -2.6060  0.3709
   29MOL   H335 9911   6.238   2.545   3.076 -0.6991  0.4843  2.0165
   29MOL   H336 9912   6.367   2.776   3.090  1.8068  0.4174  0.0972
   29MOL   H337 9913   6.468   2.691   3.335 -0.2081 -0.9382 -1.0803
   29MOL   H338 9914   6.688   2.716   3.441  0.2441 -0.7179 -0.0725
   29MOL   H339 9915   6.890   2.770   3.307 -0.5582 -1.6247  2.3641
   29MOL   H340 9916   6.868   2.753   3.048 -1.4730  1.6795 -1.4828
   29MOL   H341 9917   6.658   2.722   2.948  1.4888  1.4679 -0.1089
   29MOL   H342 9918   6.428   2.583   2.901  0.9168  0.2234  0.3849
   30MOL     C1 9919   5.717   5.776   2.879  0.1438  0.4349  0.6354
   30MOL     C2 9920   5.665   5.694   2.997  0.1674 -0.0291 -0.2159
   30MOL     C3 9921   5.516   5.704   3.002  0.6660  0.5309 -0.5297
   30MOL     C4 9922   5.434   5.596   2.953  0.5962  0.6348 -0.0529
   30MOL     C5 9923   5.294   5.618   2.963 -0.4526 -0.2934  0.1741
   30MOL     C6 9924   5.241   5.743   3.004  0.6921  0.2957 -0.3690
   30MOL     C7 9925   5.331   5.840   3.058 -0.0614  0.6681 -0.0499
   30MOL     C8 9926   5.465   5.824   3.050 -0.3929  0.1586 -0.1059
   30MOL     O9 9927   5.726   5.745   3.109  0.6869  0.0952 -0.0299
   30MOL    H10 9928   5.690   5.880   2.899  0.3155  0.6280 -0.1414
   30MOL    H11 9929   5.823   5.763   2.856  0.3517  2.9877 -0.0085
   30MOL    H12 9930   5.685   5.587   2.989 -1.8297 -0.6756  2.4437
   30MOL    H13 9931   5.489   5.509   2.920  1.2572  0.4203  1.5489
   30MOL    H14 9932   5.223   5.542   2.932  0.5382 -0.9379 -0.5364
   30MOL    H15 9933   5.134   5.739   3.016  0.9083 -1.8842  1.1680
   30MOL    H16 9934   5.286   5.930   3.098  2.2716  1.3845  1.0458
   30MOL    H17 9935   5.530   5.906   3.078 -0.3148 -0.4017  1.3659
   30MOL    H18 9936   5.669   5.742   2.787 -1.1860  1.5048  0.9107
   30MOL    C19 9937   5.690   5.701   3.242  0.1307 -0.0139  0.1160
   30MOL    C20 9938   5.777   5.761   3.357 -0.4519 -0.2866 -0.4944
   30MOL    C21 9939   5.747   5.685   3.495  0.2651 -0.0883  0.0862
   30MOL    C22 9940   5.632   5.719   3.572 -0.4541  0.2137  0.1978
   30MOL    C23 9941   5.602   5.650   3.692 -0.7584  0.2690 -0.2485
   30MOL    C24 9942   5.685   5.550   3.736  0.1872 -0.3434  0.3566
   30MOL    C25 9943   5.801   5.515   3.662  0.1593 -0.2417 -0.3382
   30MOL    C26 9944   5.832   5.583   3.540 -0.3488  0.4727  0.2567
   30MOL    O27 9945   5.754   5.903   3.365 -0.3631 -0.3376  0.3649
   30MOL    H28 9946   5.585   5.714   3.268  0.7282  0.9490  2.1673
   30MOL    H29 9947   5.707   5.593   3.236 -1.2217 -0.3209  1.6897
   30MOL    H30 9948   5.882   5.742   3.333 -0.5694 -0.8736 -0.5518
   30MOL    H31 9949   5.569   5.799   3.537 -1.6608 -0.8912 -0.1893
   30MOL    H32 9950   5.515   5.676   3.751  0.6794 -0.0055  2.0550
   30MOL    H33 9951   5.664   5.496   3.828  0.0743 -0.1417  0.4497
   30MOL    H34 9952   5.871   5.451   3.713 -0.9653  0.7205  2.4996
   30MOL    H35 9953   5.920   5.556   3.482 -0.0557  1.4436  0.2520
   30MOL    C36 9954   5.871   5.970   3.416  0.1343 -0.2097  0.0819
   30MOL    C37 9955   5.854   6.117   3.454  0.1099 -0.0707  0.1351
   30MOL    C38 9956   5.985   6.178   3.503  0.5408  0.0872  0.1263
   30MOL    C39 9957   6.031   6.139   3.631 -0.1435 -0.0729 -0.0383
   30MOL    C40 9958   6.157   6.192   3.673  0.1597  0.1715 -0.5048
   30MOL    C41 9959   6.224   6.290   3.596  0.0468 -0.3274  0.0972
   30MOL    C42 9960   6.173   6.332   3.472  0.7425  0.4322  0.1116
   30MOL    C43 9961   6.050   6.277   3.423 -1.0749  0.8571 -0.4616
   30MOL    O44 9962   5.761   6.131   3.565  0.4171 -0.0591  0.3197
   30MOL    H45 9963   5.905   5.918   3.506  0.6174 -1.8045 -1.0045
   30MOL    H46 9964   5.956   5.960   3.348  0.5393  1.3686  0.3359
   30MOL    H47 9965   5.812   6.172   3.370 -2.0322  1.9750  2.4482
   30MOL    H48 9966   5.980   6.067   3.694  0.0505  0.7244  1.0444
   30MOL    H49 9967   6.203   6.159   3.764  0.3722 -1.2242 -1.1073
   30MOL    H50 9968   6.321   6.327   3.624  0.3247 -0.2750 -0.9217
   30MOL    H51 9969   6.242   6.390   3.412 -0.1189  0.8205 -0.5120
   30MOL    H52 9970   6.014   6.307   3.325 -0.8763  2.9488  0.0683
   30MOL    C53 9971   5.631   6.185   3.542  0.8751 -0.1332  1.2220
   30MOL    C54 9972   5.629   6.337   3.535  0.1901  0.2016 -0.5208
   30MOL    C55 9973   5.690   6.397   3.657 -0.8853  0.1546 -0.6673
   30MOL    C56 9974   5.613   6.395   3.773  0.1074  0.3785  0.3630
   30MOL    C57 9975   5.665   6.445   3.896  0.3058 -0.2697  0.3813
   30MOL    C58 9976   5.774   6.538   3.884  0.2805 -0.2541  0.5096
   30MOL    C59 9977   5.846   6.550   3.760 -0.4998 -0.9156  0.3897
   30MOL    C60 9978   5.810   6.467   3.653 -0.0378 -0.5844  0.2108
   30MOL    O61 9979   5.685   6.380   3.409  0.2751 -0.0866 -0.2100
   30MOL    H62 9980   5.596   6.130   3.454  1.2955  0.9047  0.3840
   30MOL    H63 9981   5.581   6.148   3.631  0.7796 -1.3599  0.6689
   30MOL    H64 9982   5.523   6.358   3.523  0.0432  1.1146  2.0341
   30MOL    H65 9983   5.520   6.341   3.778  1.3980 -1.8527  1.0229
   30MOL    H66 9984   5.625   6.427   3.994 -1.1088  0.3402 -0.0674
   30MOL    H67 9985   5.805   6.596   3.969  0.6358  1.1238 -0.5312
   30MOL    H68 9986   5.913   6.633   3.749 -1.2801 -0.3751 -0.3200
   30MOL    H69 9987   5.861   6.463   3.557  0.1628  0.0876  0.2823
   30MOL    C70 9988   5.654   6.508   3.369  0.2023  0.1429 -0.3644
   30MOL    C71 9989   5.648   6.525   3.219  0.6390 -0.1282 -0.2551
   30MOL    C72 9990   5.566   6.422   3.144 -0.1959 -0.6423  0.5289
   30MOL    C73 9991   5.626   6.313   3.078 -0.1611  0.0762 -0.0041
   30MOL    C74 9992   5.548   6.224   3.001  1.2779 -0.2497  0.3576
   30MOL    C75 9993   5.408   6.246   2.979  0.0588  0.3396 -0.6057
   30MOL    C76 9994   5.352   6.364   3.031  0.6988 -0.0572 -0.0182
   30MOL    C77 9995   5.429   6.446   3.113  0.5413 -0.0066  0.0106
   30MOL    O78 9996   5.785   6.522   3.177 -0.3818  0.5852 -0.6098
   30MOL    H79 9997   5.562   6.541   3.418  1.4481  0.4546  1.8509
   30MOL    H80 9998   5.739   6.565   3.405  2.5789 -1.3387 -3.4200
   30MOL    H81 9999   5.595   6.620   3.209  0.4761 -0.4508 -2.8544
   30MOL    H8210000   5.731   6.293   3.088 -0.1815 -0.4612 -0.7599
   30MOL    H8310001   5.594   6.140   2.952  1.4588  0.4955 -0.7860
   30MOL    H8410002   5.347   6.179   2.919 -0.6590 -0.4308  0.9524
   30MOL    H8510003   5.245   6.377   3.017  0.8468  0.8420 -0.2875
   30MOL    H8610004   5.391   6.538   3.156  0.4429 -0.3887  0.7526
   30MOL    C8710005   5.811   6.580   3.051 -0.2148  0.1010 -0.5490
   30MOL    C8810006   5.870   6.720   3.069  0.9843  0.6533  0.8176
   30MOL    C8910007   6.005   6.706   3.129  0.1253 -0.0855  0.0571
   30MOL    C9010008   6.012   6.683   3.266 -0.0478  0.4057  0.3860
   30MOL    C9110009   6.138   6.654   3.322 -0.1889  0.1738 -0.0916
   30MOL    C9210010   6.260   6.646   3.248 -0.9188  0.5996 -1.1298
   30MOL    C9310011   6.251   6.676   3.114  0.4022 -0.2851  1.0331
   30MOL    C9410012   6.125   6.706   3.055 -1.1726 -0.5483  0.0148
   30MOL    O9510013   5.777   6.797   3.143 -0.7552  0.4632 -0.1848
   30MOL    H9610014   5.714   6.575   3.000 -0.9648  1.3374  0.7159
   30MOL    H9710015   5.872   6.514   2.991 -0.3742  0.3738 -1.0136
   30MOL    H9810016   5.874   6.767   2.971  1.2697  2.1507  1.5307
   30MOL    H9910017   5.919   6.686   3.322 -0.8511 -2.0840 -0.7672
   30MOL   H10010018   6.132   6.628   3.427 -4.3399  2.6414  0.4355
   30MOL   H10110019   6.355   6.623   3.294 -0.5037  2.1060 -1.1843
   30MOL   H10210020   6.337   6.666   3.048 -0.0444  0.7076  0.2860
   30MOL   H10310021   6.116   6.725   2.949  0.4038 -1.6931 -0.3429
   30MOL   C10410022   5.817   6.927   3.180 -0.3373  0.9718 -0.4496
   30MOL   C10510023   5.717   6.997   3.272  0.7215  0.1344  0.1721
   30MOL   C10610024   5.670   6.902   3.386 -0.3219 -0.5566 -0.3510
   30MOL   C10710025   5.747   6.874   3.501  0.0751 -0.0399  0.3994
   30MOL   C10810026   5.696   6.793   3.603 -0.3612 -0.5858  0.0446
   30MOL   C10910027   5.563   6.744   3.595  0.0030  0.1823 -0.4861
   30MOL   C11010028   5.481   6.772   3.485  0.1093 -0.4430  0.1745
   30MOL   C11110029   5.536   6.852   3.378 -0.1620 -0.2140  0.3140
   30MOL   O11210030   5.782   7.120   3.318 -0.4855 -0.3689  0.5168
   30MOL   H11310031   5.916   6.925   3.223  0.5447 -0.5176 -2.4488
   30MOL   H11410032   5.832   6.989   3.092  2.6465  1.0244  0.0632
   30MOL   H11510033   5.626   7.034   3.223 -0.6168 -1.4503  1.3848
   30MOL   H11610034   5.840   6.920   3.530 -1.2143  2.2644  1.0071
   30MOL   H11710035   5.756   6.778   3.692 -0.9981  3.0711  1.1681
   30MOL   H11810036   5.522   6.692   3.680  2.8575 -1.2877  0.0493
   30MOL   H11910037   5.377   6.745   3.479  0.4682 -2.1780  1.3684
   30MOL   H12010038   5.476   6.867   3.289  0.8722 -0.1522 -0.3941
   30MOL   C12110039   5.722   7.205   3.418 -0.1187 -0.7017 -0.0772
   30MOL   C12210040   5.608   7.292   3.365 -1.0557  0.5229  0.3160
   30MOL   C12310041   5.531   7.353   3.482 -0.4571 -0.4331 -0.2378
   30MOL   C12410042   5.558   7.477   3.539  0.4125 -0.3170  0.4293
   30MOL   C12510043   5.493   7.523   3.653 -0.1131  0.4314 -0.3806
   30MOL   C12610044   5.391   7.442   3.705 -0.3536 -0.4839 -0.3615
   30MOL   C12710045   5.360   7.315   3.651 -0.0863 -0.2359  0.2022
   30MOL   C12810046   5.431   7.271   3.536  0.3543 -0.1793 -0.4879
   30MOL   O12910047   5.673   7.395   3.284 -0.0282  0.7321  0.3419
   30MOL   H13010048   5.800   7.269   3.461  0.7570 -1.9636  0.2321
   30MOL   H13110049   5.684   7.144   3.500  1.6072 -1.9435 -0.1842
   30MOL   H13210050   5.544   7.231   3.302  1.4787 -1.1460 -0.6948
   30MOL   H13310051   5.636   7.538   3.495 -3.2977  2.7897 -2.2253
   30MOL   H13410052   5.530   7.610   3.706 -1.1999  0.0498  1.0450
   30MOL   H13510053   5.340   7.466   3.797  0.2000  0.6452 -0.3372
   30MOL   H13610054   5.288   7.253   3.702  0.5902 -0.8673  0.3949
   30MOL   H13710055   5.415   7.171   3.499  2.0844 -1.2842  1.6413
   30MOL   C13810056   5.576   7.458   3.200 -0.2934  0.0565 -0.3288
   30MOL   C13910057   5.652   7.561   3.112 -0.8754  0.0440  0.0388
   30MOL   C14010058   5.579   7.621   2.993 -0.1759  0.3519  0.3923
   30MOL   C14110059   5.651   7.635   2.875 -0.1306  0.3618  0.1105
   30MOL   C14210060   5.597   7.711   2.765  0.0032 -0.1657  0.5731
   30MOL   C14310061   5.466   7.768   2.780 -0.1873 -0.7971 -0.2605
   30MOL   C14410062   5.392   7.755   2.896 -0.5869  0.5695 -0.3296
   30MOL   C14510063   5.459   7.692   3.005  0.0459  0.6891 -0.3411
   30MOL   O14610064   5.694   7.662   3.211  0.5832 -0.3467 -0.9745
   30MOL   H14710065   5.516   7.514   3.272 -1.7495 -0.7161 -0.9402
   30MOL   H14810066   5.515   7.396   3.135 -0.1810 -1.0773  0.6216
   30MOL   H14910067   5.738   7.511   3.068  1.0000  2.1196  1.2255
   30MOL   H15010068   5.752   7.599   2.860 -0.1518  0.3421  0.0157
   30MOL   H15110069   5.656   7.723   2.676  0.3519  0.6890  0.9184
   30MOL   H15210070   5.419   7.822   2.699  1.7543 -1.5205 -1.9219
   30MOL   H15310071   5.301   7.810   2.911  0.5157  2.6176 -0.9541
   30MOL   H15410072   5.412   7.672   3.100 -1.2082 -0.0664 -1.1047
   30MOL   C15510073   5.787   7.750   3.158 -0.2246 -0.4833 -0.1216
   30MOL   C15610074   5.822   7.821   3.292 -0.2977  0.1925  0.3416
   30MOL   C15710075   5.940   7.910   3.256 -0.3077  0.4744 -0.0453
   30MOL   C15810076   5.930   8.044   3.283 -0.2445  0.0983 -0.2361
   30MOL   C15910077   6.050   0.038   3.286 -0.7604  0.1239  0.3191
   30MOL   C16010078   6.174   8.068   3.245  0.0360 -0.3742 -0.6186
   30MOL   C16110079   6.175   7.929   3.205  0.2775  0.1522  0.3962
   30MOL   C16210080   6.062   7.850   3.210 -0.6459  0.0366 -0.1480
   30MOL   O16310081   5.703   7.887   3.342  0.3147  0.0462 -0.5792
   30MOL   H16410082   5.734   7.814   3.088 -0.3665  0.2248  0.6169
   30MOL   H16510083   5.870   7.692   3.117 -0.0933  1.2535 -2.3900
   30MOL   H16610084   5.857   7.741   3.358  1.9299  0.0642 -0.9398
   30MOL   H16710085   5.840   0.013   3.319  0.8129  0.6869  1.6473
   30MOL   H16810086   6.039   0.142   3.313 -4.0197  0.4301 -1.8643
   30MOL   H16910087   6.260   0.054   3.251  1.1422 -1.9441  1.4377
   30MOL   H17010088   6.271   7.886   3.179  0.3110 -0.5127  1.5882
   30MOL   H17110089   6.066   7.742   3.202  2.4203  0.0326  0.6689
   30MOL   C17210090   5.709   7.903   3.482 -0.1291  0.0193 -0.5966
   30MOL   C17310091   5.593   7.986   3.534  0.6488  0.9214  0.2943
   30MOL   C17410092   5.626   8.052   3.664  0.1590 -0.3982 -0.3111
   30MOL   C17510093   5.704   0.091   3.672  0.5761 -0.8184  0.9093
   30MOL   C17610094   5.739   0.142   3.795  0.3003 -0.0199 -0.6904
   30MOL   C17710095   5.690   0.080   3.910  0.1547  0.8363  0.3330
   30MOL   C17810096   5.615   8.038   3.904  0.2361 -0.2601 -0.0086
   30MOL   C17910097   5.587   7.979   3.781 -0.3412  0.8843  0.4006
   30MOL   O18010098   5.479   7.896   3.547  0.2429  0.1077 -0.0781
   30MOL   H18110099   5.696   7.807   3.532 -0.1367  1.4040  2.1941
   30MOL   H18210100   5.801   7.954   3.511 -0.4407  1.0343 -1.3813
   30MOL   H18310101   5.571   8.057   3.454  0.6854 -0.6936 -1.1827
   30MOL   H18410102   5.746   0.137   3.584 -0.9440 -0.4484  0.3504
   30MOL   H18510103   5.802   0.230   3.800 -0.8494  0.7322  0.6602
   30MOL   H18610104   5.693   0.128   4.006 -1.2580 -0.0321  0.8297
   30MOL   H18710105   5.574   7.993   3.993  0.0102 -0.6523 -0.3061
   30MOL   H18810106   5.543   7.880   3.774  1.5220  0.0476  0.1820
   30MOL   C18910107   5.420   7.846   3.426 -0.0017 -0.6128 -0.1330
   30MOL   C19010108   5.271   7.800   3.455 -0.8890 -0.6623  0.3923
   30MOL   C19110109   5.218   7.707   3.345 -0.5865 -0.2294  0.6723
   30MOL   C19210110   5.206   7.569   3.364 -0.2201  0.7679 -0.4898
   30MOL   C19310111   5.145   7.489   3.262 -0.3037  0.1039  0.8051
   30MOL   C19410112   5.091   7.548   3.148  0.6660  0.1501 -0.2218
   30MOL   C19510113   5.105   7.687   3.127 -0.0279 -0.3677  0.1225
   30MOL   C19610114   5.167   7.769   3.226  0.3912 -0.4868 -0.7016
   30MOL   O19710115   5.182   7.909   3.466  0.8662 -0.0636 -0.6207
   30MOL   H19810116   5.419   7.913   3.340  2.9206 -1.1222 -0.6077
   30MOL   H19910117   5.478   7.755   3.411  0.1662 -0.9200  2.1419
   30MOL   H20010118   5.281   7.736   3.543  2.9746 -1.4282 -0.4941
   30MOL   H20110119   5.249   7.522   3.451 -0.9765  2.3699  0.7780
   30MOL   H20210120   5.138   7.383   3.279  1.2117  0.2649  2.5386
   30MOL   H20310121   5.056   7.479   3.072 -2.5009 -0.1901  1.4757
   30MOL   H20410122   5.059   7.733   3.041 -1.6270 -0.7931  0.7405
   30MOL   H20510123   5.178   7.876   3.215  0.0556 -0.4769 -0.9749
   30MOL   C20610124   5.162   7.948   3.604  0.4391  0.3877 -0.0657
   30MOL   C20710125   5.036   8.025   3.623 -0.3829 -0.0204  0.1909
   30MOL   C20810126   5.015   8.074   3.764 -0.2160  0.5153 -0.0400
   30MOL   C20910127   4.906   8.038   3.838 -0.3723  0.2948 -0.3025
   30MOL   C21010128   4.895   0.002   3.975  0.5002  0.3383 -0.6196
   30MOL   C21110129   4.988   0.094   4.029  0.5039  0.0720 -0.1531
   30MOL   C21210130   5.097   0.138   3.947 -0.8065  0.3798  0.1155
   30MOL   C21310131   5.114   0.080   3.818  0.6038  0.5558 -0.3318
   30MOL   O21410132   4.932   7.934   3.578 -0.4077 -0.2515 -0.3039
   30MOL   H21510133   5.145   7.856   3.660  2.9700 -0.7422 -1.0818
   30MOL   H21610134   5.251   7.996   3.642  0.6057  0.5087 -0.6145
   30MOL   H21710135   5.046   0.032   3.558 -0.2753 -0.7045 -0.7142
   30MOL   H21810136   4.840   7.961   3.801 -0.8458  1.2844 -1.5454
   30MOL   H21910137   4.810   8.045   4.030  1.0983 -4.6727 -2.8535
   30MOL   H22010138   4.974   0.130   4.129  0.9731  0.5057 -0.2378
   30MOL   H22110139   5.174   0.205   3.983  0.6676 -0.3771 -1.6103
   30MOL   H22210140   5.202   0.097   3.758 -1.3705  1.5358 -3.0973
   30MOL   C22310141   4.881   7.947   3.447 -0.6871  0.3436 -0.4307
   30MOL   C22410142   4.793   7.832   3.408 -1.3343 -0.4897 -0.2859
   30MOL   C22510143   4.673   7.813   3.497 -0.2681  0.7568  0.2698
   30MOL   C22610144   4.680   7.735   3.615  0.2234 -0.4043  0.3483
   30MOL   C22710145   4.569   7.722   3.704 -0.9397 -0.9599  0.2551
   30MOL   C22810146   4.446   7.779   3.667  0.5024  0.3169 -0.2215
   30MOL   C22910147   4.437   7.856   3.547  0.6043  0.4569  0.1432
   30MOL   C23010148   4.548   7.871   3.463 -0.8113  0.0128  0.0786
   30MOL   O23110149   4.754   7.853   3.276 -0.0964 -0.1265 -0.0811
   30MOL   H23210150   4.844   8.050   3.441  1.3402  1.1179 -0.1305
   30MOL   H23310151   4.957   7.945   3.368  0.3547  0.8263  0.5492
   30MOL   H23410152   4.846   7.737   3.418  0.5815  0.7024  1.2183
   30MOL   H23510153   4.776   7.696   3.646  0.7573  1.0262  0.5062
   30MOL   H23610154   4.563   7.657   3.790  2.4018  0.4122  1.6154
   30MOL   H23710155   4.360   7.760   3.730 -0.7502 -1.2134 -2.3099
   30MOL   H23810156   4.339   7.896   3.524  0.1388 -0.1984  1.0004
   30MOL   H23910157   4.534   7.936   3.378 -2.3872 -0.3822  0.0224
   30MOL   C24010158   4.718   7.725   3.211 -0.5159 -0.2451  0.1283
   30MOL   C24110159   4.642   7.758   3.080  0.6221  0.2601  0.4653
   30MOL   C24210160   4.741   7.813   2.975 -0.5437  0.6645  0.1631
   30MOL   C24310161   4.789   7.735   2.868  0.3613 -0.1551 -0.1755
   30MOL   C24410162   4.883   7.793   2.775 -0.4192  0.2049 -0.2872
   30MOL   C24510163   4.931   7.927   2.798  0.6195  0.3511 -0.2546
   30MOL   C24610164   4.883   8.004   2.900  0.2376  0.2769 -0.6722
   30MOL   C24710165   4.789   7.945   2.992  0.4054 -0.4894  0.6787
   30MOL   O24810166   4.587   7.642   3.024 -0.4797 -0.1656  0.5038
   30MOL   H24910167   4.813   7.677   3.188 -0.1852  1.4311 -2.1737
   30MOL   H25010168   4.658   7.668   3.282 -0.0950  0.3407  0.9655
   30MOL   H25110169   4.559   7.827   3.095 -1.1986 -1.6186 -0.7103
   30MOL   H25210170   4.759   7.632   2.859  3.8097 -1.5207  2.8758
   30MOL   H25310171   4.903   7.735   2.685 -2.1044 -1.6615  0.4814
   30MOL   H25410172   4.999   7.973   2.728  4.2077 -2.0771  1.4931
   30MOL   H25510173   4.915   0.027   2.903 -1.5889  0.8579 -0.2727
   30MOL   H25610174   4.770   8.014   3.073 -0.0149  0.4043 -0.1755
   30MOL   C25710175   4.463   7.608   3.078  0.3039 -0.8413 -0.4971
   30MOL   C25810176   4.352   7.654   2.976 -0.3360 -0.0619 -0.2356
   30MOL   C25910177   4.384   7.598   2.834  0.3202 -0.3381 -0.1882
   30MOL   C26010178   4.347   7.464   2.808  0.5254 -0.2498  0.3011
   30MOL   C26110179   4.378   7.404   2.684  0.3269  0.1584  0.5375
   30MOL   C26210180   4.429   7.483   2.579 -0.7951  0.3461 -0.2299
   30MOL   C26310181   4.462   7.617   2.604 -0.9023  0.0181  0.1137
   30MOL   C26410182   4.441   7.674   2.731  0.4529  0.1647  0.7373
   30MOL   O26510183   4.340   7.794   2.972 -0.4724 -0.1827  0.1540
   30MOL   H26610184   4.452   7.658   3.174 -2.1165  1.0442 -1.6968
   30MOL   H26710185   4.451   7.502   3.100 -1.6007 -0.8961 -1.6399
   30MOL   H26810186   4.253   7.620   3.006  0.2632 -1.1383  0.5677
   30MOL   H26910187   4.300   7.410   2.889 -1.0192  0.9217  0.2288
   30MOL   H27010188   4.353   7.301   2.662  3.5391 -0.4517 -0.5618
   30MOL   H27110189   4.447   7.434   2.484  1.2598  0.9425 -0.1533
   30MOL   H27210190   4.503   7.669   2.520  0.8682 -0.8702  0.4025
   30MOL   H27310191   4.461   7.779   2.748 -2.0822  0.5256  1.8564
   30MOL   C27410192   4.236   7.845   3.047  0.5357 -0.3550 -0.0642
   30MOL   C27510193   4.219   7.996   3.021  0.9111 -0.6170 -0.1906
   30MOL   C27610194   4.305   8.075   3.125 -0.3782 -0.2683 -0.2964
   30MOL   C27710195   4.238   0.058   3.231  0.7092  0.1923 -0.2223
   30MOL   C27810196   4.308   0.133   3.323 -0.4197  0.1846  0.0414
   30MOL   C27910197   4.452   0.143   3.311 -0.7881 -0.1591 -0.3650
   30MOL   C28010198   4.520   0.081   3.207  0.2700 -0.2379 -0.7065
   30MOL   C28110199   4.446   0.009   3.109 -0.9421 -0.1693  0.1312
   30MOL   O28210200   4.082   8.020   3.046 -0.5180 -0.1507  0.1609
   30MOL   H28310201   4.140   7.804   3.015  0.4655 -1.7030  1.8050
   30MOL   H28410202   4.243   7.818   3.153  1.3664 -0.8428 -0.2365
   30MOL   H28510203   4.245   8.025   2.919 -0.5773 -0.1461 -0.4442
   30MOL   H28610204   4.132   0.040   3.247  0.8593 -0.8511 -0.3965
   30MOL   H28710205   4.261   0.182   3.407  0.4609  2.3965 -0.6959
   30MOL   H28810206   4.509   0.205   3.378 -1.0620 -1.3525  1.0011
   30MOL   H28910207   4.627   0.096   3.205  0.5764 -1.8417  1.3546
   30MOL   H29010208   4.500   8.048   3.025 -1.1127 -0.9372  0.3938
   30MOL   C29110209   4.036   0.047   2.953  0.3021  0.0589  0.2818
   30MOL   C29210210   3.924   8.069   2.857 -0.5607  0.0189  0.5907
   30MOL   C29310211   3.975   7.949   2.775 -0.2329  0.9825 -0.9822
   30MOL   C29410212   4.097   7.949   2.702  1.2811 -0.1970  0.0259
   30MOL   C29510213   4.133   7.839   2.622 -0.4380  0.2902  0.0808
   30MOL   C29610214   4.053   7.729   2.613  0.3449  0.6701  0.0951
   30MOL   C29710215   3.930   7.730   2.679  0.1258  0.0923  0.2992
   30MOL   C29810216   3.891   7.837   2.766 -0.4610  0.4969 -0.3570
   30MOL   O29910217   3.800   8.052   2.930 -0.1952 -0.1015  0.0524
   30MOL   H30010218   4.120   0.100   2.908  0.2665  1.0392  1.3571
   30MOL   H30110219   3.995   0.124   3.018  0.5921  0.2751  0.2082
   30MOL   H30210220   3.913   0.066   2.780  0.3738 -3.7747 -3.5131
   30MOL   H30310221   4.167   8.031   2.708  2.0554 -0.8028 -0.5904
   30MOL   H30410222   4.228   7.832   2.571  0.2258 -1.7609  1.5502
   30MOL   H30510223   4.089   7.637   2.571  0.1089 -0.4166  2.1691
   30MOL   H30610224   3.862   7.646   2.671 -1.0417  0.6799  3.5016
   30MOL   H30710225   3.801   7.824   2.823 -0.0881  1.2552  0.4136
   30MOL   C30810226   3.700   0.072   2.899 -0.4158  0.1216 -0.3128
   30MOL   C30910227   3.561   0.029   2.940 -0.5952  0.0713  0.5278
   30MOL   C31010228   3.522   7.973   2.878  0.3063 -0.5604  0.4645
   30MOL   C31110229   3.480   7.963   2.740 -0.4911  0.1464  0.3943
   30MOL   C31210230   3.448   7.837   2.679 -0.2116 -0.1896 -0.5946
   30MOL   C31310231   3.477   7.721   2.750  0.1229  0.0632 -0.5161
   30MOL   C31410232   3.510   7.732   2.889  0.2371 -0.3411 -0.2232
   30MOL   C31510233   3.534   7.854   2.954 -0.1312 -0.4111  0.3021
   30MOL   O31610234   3.546   0.018   3.084 -0.1500  0.3801  0.1341
   30MOL   H31710235   3.684   0.095   2.793  0.1705  2.0208 -0.0052
   30MOL   H31810236   3.744   0.156   2.952  0.1610 -1.3770  1.6607
   30MOL   H31910237   3.487   0.099   2.902  1.3270  2.0545  0.3133
   30MOL   H32010238   3.477   8.057   2.686  0.4225  0.2572  0.5248
   30MOL   H32110239   3.402   7.814   2.584 -0.1334 -0.0085 -0.6766
   30MOL   H32210240   3.466   7.624   2.704  0.2336 -1.2611  2.0926
   30MOL   H32310241   3.506   7.644   2.951 -1.8603  0.2440  0.5074
   30MOL   H32410242   3.557   7.852   3.059 -2.4220 -1.5647  0.8241
   30MOL   C32510243   3.545   0.139   3.148  0.1860  1.0695 -0.7776
   30MOL   C32610244   3.424   0.139   3.247  0.7226 -0.7241 -0.1047
   30MOL   C32710245   3.434   0.252   3.347 -0.4195 -0.3784 -0.5978
   30MOL   C32810246   3.481   0.224   3.478  0.4528  0.2536  0.0097
   30MOL   C32910247   3.518   0.340   3.557 -0.1353  0.2768  0.1216
   30MOL   C33010248   3.498   0.472   3.516 -0.7687 -0.2878  0.0389
   30MOL   C33110249   3.434   0.493   3.399 -0.0957  0.0014 -0.4210
   30MOL   C33210250   3.411   0.387   3.313  0.5061 -0.3721 -0.4064
   30MOL   O33310251   3.296   0.151   3.175 -0.2318 -0.1398 -0.0150
   30MOL   H33410252   3.542   0.233   3.093  1.9240  1.7463  0.2382
   30MOL   H33510253   3.639   0.144   3.204  0.5939 -0.5402 -1.3050
   30MOL   H33610254   3.417   0.048   3.306 -1.4234 -0.5310 -0.0218
   30MOL   H33710255   3.504   0.126   3.517 -0.8259  1.0178  2.8942
   30MOL   H33810256   3.563   0.320   3.653 -0.3899 -3.0741 -0.3912
   30MOL   H33910257   3.527   0.555   3.578 -0.3744 -0.2259 -0.2256
   30MOL   H34010258   3.407   0.593   3.370  2.6853  0.7047 -0.6908
   30MOL   H34110259   3.358   0.412   3.223 -2.4701  1.3913  1.7199
   30MOL   H34210260   3.301   0.087   3.105 -3.1465 -0.6033  0.1471
   31MOL     C110261   5.139   2.721   4.691 -0.1551  0.1001 -0.2757
   31MOL     C210262   5.048   2.773   4.791 -0.1470 -0.1394  0.0543
   31MOL     C310263   5.068   2.918   4.820 -0.0349  0.2067  0.5602
   31MOL     C410264   5.128   2.962   4.941 -0.1419 -0.6911 -0.2726
   31MOL     C510265   5.131   3.098   4.970  0.1496 -0.0167  0.1235
   31MOL     C610266   5.116   3.191   4.872 -0.5632 -0.3716  0.6116
   31MOL     C710267   5.081   3.151   4.741 -0.2094 -0.7981  0.1971
   31MOL     C810268   5.051   3.013   4.714 -0.6023 -0.0101  0.1269
   31MOL     O910269   5.074   2.692   4.903 -0.9673 -0.0869  0.0961
   31MOL    H1010270   5.135   2.787   4.604 -0.9480 -0.1287 -0.4104
   31MOL    H1110271   5.242   2.721   4.727  0.6198  0.8949 -2.3766
   31MOL    H1210272   4.944   2.772   4.758  0.1321  1.0418 -0.8917
   31MOL    H1310273   5.146   2.890   5.020  1.1876  0.0084  0.0622
   31MOL    H1410274   5.164   3.134   5.067 -0.6508  0.6839  0.1473
   31MOL    H1510275   5.138   3.294   4.894 -0.4133 -0.2478 -0.0946
   31MOL    H1610276   5.075   3.227   4.665 -1.5499 -2.3872 -1.3249
   31MOL    H1710277   5.000   2.986   4.623 -1.9361 -0.8914  1.1094
   31MOL    H1810278   5.116   2.616   4.671  1.1633 -0.2421 -0.0330
   31MOL    C1910279   4.975   2.671   5.000  0.2013 -0.3807 -0.2874
   31MOL    C2010280   5.008   2.555   5.093  0.5720 -0.1794 -0.4723
   31MOL    C2110281   4.887   2.462   5.120  0.0764  0.0610 -0.3834
   31MOL    C2210282   4.836   2.449   5.254  1.2677 -0.2196 -0.1764
   31MOL    C2310283   4.708   2.389   5.279 -0.0826  0.5668 -0.6192
   31MOL    C2410284   4.635   2.335   5.171 -0.0629 -0.0320  0.1922
   31MOL    C2510285   4.698   2.326   5.041  0.2161  0.0228 -0.1834
   31MOL    C2610286   4.820   2.396   5.014  0.1055  0.0824  0.3273
   31MOL    O2710287   5.057   2.598   5.214  0.2190 -0.5011 -0.0195
   31MOL    H2810288   4.975   2.759   5.064 -1.6562 -0.2871 -0.3838
   31MOL    H2910289   4.876   2.663   4.955  0.5598  0.1343 -1.1906
   31MOL    H3010290   5.088   2.497   5.047  1.1475  0.6747 -0.5565
   31MOL    H3110291   4.888   2.501   5.333  0.9132 -1.0767  0.6267
   31MOL    H3210292   4.665   2.387   5.378 -1.3505  0.6092 -1.1613
   31MOL    H3310293   4.537   2.291   5.177 -0.9461  1.6878 -1.3098
   31MOL    H3410294   4.642   2.279   4.961 -1.5974  0.1578  0.9734
   31MOL    H3510295   4.848   2.415   4.911 -1.1023 -2.2363 -0.4593
   31MOL    C3610296   5.192   2.635   5.203  0.1888  0.1061  0.1172
   31MOL    C3710297   5.238   2.707   5.331  0.8858  0.4127  0.2687
   31MOL    C3810298   5.176   2.849   5.345  0.0521 -0.0312 -0.0982
   31MOL    C3910299   5.258   2.956   5.292  0.0480  0.0707  0.4489
   31MOL    C4010300   5.227   3.086   5.342  0.1634 -0.3123  0.2858
   31MOL    C4110301   5.100   3.115   5.401  0.5042  0.1198  0.2892
   31MOL    C4210302   5.010   3.007   5.431 -0.2866  0.1536 -0.5045
   31MOL    C4310303   5.051   2.872   5.407 -0.3015 -0.4021 -0.2530
   31MOL    O4410304   5.380   2.706   5.310 -0.1245 -0.0694 -0.7148
   31MOL    H4510305   5.243   2.539   5.191 -1.2092 -0.4776 -1.3361
   31MOL    H4610306   5.209   2.698   5.116  1.5650  0.6653  0.7724
   31MOL    H4710307   5.201   2.644   5.412 -0.5382 -0.1245 -0.7689
   31MOL    H4810308   5.356   2.936   5.251  0.2749 -1.9458  1.9324
   31MOL    H4910309   5.296   3.165   5.314 -1.8723  1.3061 -0.3036
   31MOL    H5010310   5.078   3.216   5.432  2.4073  0.8937 -0.8327
   31MOL    H5110311   4.917   3.028   5.480 -1.4660  2.7976 -3.6816
   31MOL    H5210312   4.969   2.804   5.421  0.8220 -1.3760  1.7850
   31MOL    C5310313   5.454   2.618   5.391 -0.5579  0.3774  0.1137
   31MOL    C5410314   5.590   2.612   5.325 -0.8010 -0.5258 -0.7246
   31MOL    C5510315   5.568   2.563   5.186 -0.2579 -0.5539 -0.3744
   31MOL    C5610316   5.576   2.426   5.158 -0.4460  0.2225  0.1284
   31MOL    C5710317   5.554   2.380   5.025 -0.5475  0.0379  0.2878
   31MOL    C5810318   5.527   2.472   4.924 -0.1038 -0.9523  0.5020
   31MOL    C5910319   5.520   2.611   4.948  0.3534 -0.6094 -0.1489
   31MOL    C6010320   5.536   2.657   5.079 -0.2033  0.5486 -0.1557
   31MOL    O6110321   5.660   2.736   5.335 -0.6313  0.3959  0.0137
   31MOL    H6210322   5.468   2.647   5.495 -0.4395 -1.2833  0.5602
   31MOL    H6310323   5.414   2.518   5.374 -0.3036  0.7304 -2.8411
   31MOL    H6410324   5.639   2.532   5.381 -3.1692 -0.2408  1.8362
   31MOL    H6510325   5.599   2.368   5.246  0.5877  3.6984  2.2564
   31MOL    H6610326   5.560   2.274   5.002  1.1487 -0.1985  1.7058
   31MOL    H6710327   5.531   2.434   4.823  1.5829  0.7333 -0.0858
   31MOL    H6810328   5.509   2.685   4.870  0.9355 -1.1428 -0.7420
   31MOL    H6910329   5.526   2.764   5.091 -0.0007  0.6188 -0.5976
   31MOL    C7010330   5.789   2.745   5.269  0.0850  0.3002  0.4045
   31MOL    C7110331   5.825   2.900   5.243 -0.0547  0.3564  0.8662
   31MOL    C7210332   5.758   2.956   5.124  0.5410 -0.6210 -0.1200
   31MOL    C7310333   5.832   2.965   5.007 -0.3331  0.5792 -0.1303
   31MOL    C7410334   5.772   3.035   4.897  0.3173 -0.2069  0.6518
   31MOL    C7510335   5.643   3.083   4.900  0.2970 -0.1425 -0.1801
   31MOL    C7610336   5.571   3.064   5.021 -0.4707  0.0126 -0.0600
   31MOL    C7710337   5.627   3.006   5.130 -0.8435 -0.5552 -0.3990
   31MOL    O7810338   5.966   2.911   5.227  0.5014  0.6612  0.0898
   31MOL    H7910339   5.846   2.698   5.349  0.7232 -0.7027 -0.6288
   31MOL    H8010340   5.793   2.682   5.181  1.6712  0.6458  0.2202
   31MOL    H8110341   5.799   2.962   5.328 -2.1194 -1.8807  1.9294
   31MOL    H8210342   5.936   2.936   5.001 -0.1595  0.7396  1.7458
   31MOL    H8310343   5.833   3.058   4.811 -2.1561  0.9678 -0.8138
   31MOL    H8410344   5.612   3.153   4.823 -0.7033  0.8817  1.1293
   31MOL    H8510345   5.473   3.104   5.040  0.0073  1.2197 -0.0622
   31MOL    H8610346   5.579   3.001   5.227  0.5715 -1.3260  0.2862
   31MOL    C8710347   6.026   3.018   5.300  0.0321 -0.3329  0.1826
   31MOL    C8810348   6.167   3.017   5.253  0.4302 -0.6469 -0.3290
   31MOL    C8910349   6.184   3.034   5.107  0.1665 -0.1264  0.0323
   31MOL    C9010350   6.186   2.919   5.025  0.0057 -0.5615  0.1548
   31MOL    C9110351   6.198   2.930   4.886  0.1615 -0.4496 -0.0808
   31MOL    C9210352   6.204   3.056   4.824  0.7126 -0.4194 -0.6086
   31MOL    C9310353   6.194   3.168   4.910  0.0285 -0.4738  0.3050
   31MOL    C9410354   6.178   3.160   5.051 -0.6152  0.4953 -0.0041
   31MOL    O9510355   6.233   2.914   5.309  0.1153 -0.0416 -0.0644
   31MOL    H9610356   6.021   3.004   5.407 -0.5301 -1.9770 -0.0452
   31MOL    H9710357   5.991   3.119   5.277 -1.5108 -1.0473 -0.7366
   31MOL    H9810358   6.212   3.107   5.295 -0.0254 -0.6185  0.1131
   31MOL    H9910359   6.183   2.817   5.060 -0.7514 -1.4724 -2.4271
   31MOL   H10010360   6.201   2.838   4.829 -1.2633 -0.8567  0.4779
   31MOL   H10110361   6.214   3.081   4.719  2.2794 -2.6684 -1.0118
   31MOL   H10210362   6.193   3.267   4.867  1.1643  0.2248  1.8180
   31MOL   H10310363   6.165   3.245   5.116  3.5194  0.8351  0.5366
   31MOL   C10410364   6.374   2.914   5.307 -0.6338 -0.4179 -0.5321
   31MOL   C10510365   6.427   2.791   5.386  0.4232  0.7623  0.6414
   31MOL   C10610366   6.438   2.671   5.294 -0.2445  0.0528  1.0074
   31MOL   C10710367   6.565   2.620   5.260  0.3607 -0.1366 -0.4792
   31MOL   C10810368   6.579   2.508   5.171  0.3453 -0.2825 -0.6381
   31MOL   C10910369   6.458   2.453   5.121 -0.1724  0.5235  0.4406
   31MOL   C11010370   6.332   2.505   5.146 -0.3182  0.0179  0.3013
   31MOL   C11110371   6.322   2.607   5.237 -0.4785  0.0614 -0.0956
   31MOL   O11210372   6.557   2.816   5.441 -0.2437 -0.2809 -0.1188
   31MOL   H11310373   6.421   2.921   5.209  0.9652 -0.3370  0.2361
   31MOL   H11410374   6.406   3.002   5.362  1.4269 -1.8740  0.6695
   31MOL   H11510375   6.348   2.767   5.457 -1.7661  1.2226 -1.5933
   31MOL   H11610376   6.656   2.655   5.308  0.7552  1.1342 -2.1041
   31MOL   H11710377   6.664   2.453   5.133 -0.2551 -1.5063 -0.2301
   31MOL   H11810378   6.463   2.365   5.057 -2.4001  1.2043 -0.7286
   31MOL   H11910379   6.244   2.461   5.101 -0.3861  0.3828  0.0760
   31MOL   H12010380   6.223   2.647   5.254 -0.3217 -0.7017  2.9767
   31MOL   C12110381   6.556   2.894   5.556 -0.2100 -0.2357  0.1805
   31MOL   C12210382   6.657   3.015   5.539  0.2532  0.7654  0.4193
   31MOL   C12310383   6.787   2.974   5.463  0.3418 -0.1875  0.2650
   31MOL   C12410384   6.780   2.941   5.329 -0.1660  0.0147  0.1496
   31MOL   C12510385   6.886   2.868   5.271  0.4624  0.3264  0.1996
   31MOL   C12610386   7.004   2.845   5.346  0.1592  0.4388  0.0395
   31MOL   C12710387   7.010   2.880   5.479  0.2722 -0.6627  0.4093
   31MOL   C12810388   6.906   2.952   5.539 -0.0602  0.5452 -0.0847
   31MOL   O12910389   6.596   3.131   5.487 -0.3639 -0.2164 -0.1285
   31MOL   H13010390   6.578   2.824   5.637 -0.7207  0.5484  1.0134
   31MOL   H13110391   6.452   2.919   5.579 -0.1390 -0.9216  1.3010
   31MOL   H13210392   6.676   3.043   5.642 -1.4823 -0.7235  1.1750
   31MOL   H13310393   6.686   2.947   5.276 -0.2906 -0.9678  0.2476
   31MOL   H13410394   6.889   2.826   5.172  1.1862 -0.7860  0.6737
   31MOL   H13510395   7.091   2.804   5.297 -1.0577 -1.9474 -0.1706
   31MOL   H13610396   7.094   2.852   5.541 -0.4716 -0.6047  1.4481
   31MOL   H13710397   6.912   2.989   5.640  1.5597  0.0977 -0.0040
   31MOL   C13810398   6.665   3.251   5.511  0.1916  1.1438 -0.2572
   31MOL   C13910399   6.581   3.375   5.478  0.0417  0.8127 -0.2385
   31MOL   C14010400   6.445   3.372   5.545  0.4732 -0.0551 -0.2755
   31MOL   C14110401   6.335   3.341   5.460 -1.1750  0.4846  0.7823
   31MOL   C14210402   6.206   3.358   5.511 -0.1234  0.0696  0.0997
   31MOL   C14310403   6.190   3.381   5.649  0.4313 -0.3505 -0.0403
   31MOL   C14410404   6.296   3.408   5.738  0.0300  0.0565 -0.0065
   31MOL   C14510405   6.430   3.411   5.677 -0.0991 -0.1956  0.1499
   31MOL   O14610406   6.652   3.496   5.510 -0.3738 -0.0915 -0.5780
   31MOL   H14710407   6.758   3.250   5.455  0.6300 -0.0338  0.4798
   31MOL   H14810408   6.693   3.256   5.617 -0.4032  1.3291 -0.1009
   31MOL   H14910409   6.567   3.370   5.370  2.6832 -0.4728 -0.5574
   31MOL   H15010410   6.348   3.312   5.357 -2.2163  1.9574  0.2162
   31MOL   H15110411   6.115   3.335   5.457 -1.4367  1.0815  1.8374
   31MOL   H15210412   6.087   3.381   5.680  0.3647 -1.1407 -0.2259
   31MOL   H15310413   6.279   3.417   5.844  0.4292 -2.6688  0.3240
   31MOL   H15410414   6.523   3.437   5.725 -0.1714 -0.8644  0.6704
   31MOL   C15510415   6.618   3.617   5.439  0.7903  0.4948 -0.4871
   31MOL   C15610416   6.694   3.729   5.518 -0.5619 -0.4270 -0.0955
   31MOL   C15710417   6.721   3.842   5.425 -0.0301  0.1779  0.0943
   31MOL   C15810418   6.610   3.923   5.386 -0.0056  0.6002  0.0774
   31MOL   C15910419   6.626   4.028   5.298 -0.0226 -0.1289 -0.0151
   31MOL   C16010420   6.751   4.042   5.230 -0.2294 -0.0259 -0.1859
   31MOL   C16110421   6.862   3.963   5.272 -0.4143  0.3763  0.2547
   31MOL   C16210422   6.848   3.866   5.374 -1.4088 -0.1242 -1.3285
   31MOL   O16310423   6.621   3.755   5.641 -0.1739 -0.2312  0.5074
   31MOL   H16410424   6.512   3.637   5.425  0.7604  0.2646 -0.6009
   31MOL   H16510425   6.653   3.599   5.337  1.5386  1.8195 -0.4769
   31MOL   H16610426   6.793   3.689   5.540 -1.6313 -2.4670  1.2229
   31MOL   H16710427   6.508   3.896   5.412  0.1009  0.0506 -0.0717
   31MOL   H16810428   6.535   4.077   5.268 -2.0493 -2.6827  1.6551
   31MOL   H16910429   6.759   4.116   5.152  0.6945  0.6711  0.5471
   31MOL   H17010430   6.964   3.972   5.237 -0.7365  0.7936 -0.6007
   31MOL   H17110431   6.932   3.807   5.406 -1.0876 -0.0087 -1.9489
   31MOL   C17210432   6.683   3.848   5.729 -0.8807  0.9375 -0.4308
   31MOL   C17310433   6.595   3.866   5.863  0.4529 -0.8423 -0.1802
   31MOL   C17410434   6.606   4.014   5.902  0.3327 -0.1015 -0.3470
   31MOL   C17510435   6.720   4.055   5.974 -0.1836 -0.1867 -0.3628
   31MOL   C17610436   6.741   4.191   6.001  0.4938  0.0405  0.3234
   31MOL   C17710437   6.643   4.285   5.968  0.0389  0.4172 -0.1289
   31MOL   C17810438   6.521   4.244   5.912  0.1536  0.3546  0.1492
   31MOL   C17910439   6.506   4.107   5.874 -0.0575 -0.7129  0.0864
   31MOL   O18010440   6.646   3.786   5.962 -0.3215 -0.1866  0.0633
   31MOL   H18110441   6.789   3.826   5.743 -1.3032 -1.1808 -0.4405
   31MOL   H18210442   6.678   3.946   5.683 -3.0008  1.7741  1.4713
   31MOL   H18310443   6.491   3.840   5.843  0.7781 -2.2367 -0.0888
   31MOL   H18410444   6.799   3.989   6.005 -0.1365 -1.2925 -2.7176
   31MOL   H18510445   6.827   4.220   6.060 -0.8487  0.4279  2.1210
   31MOL   H18610446   6.662   4.387   5.998 -0.5374  0.0173  1.6384
   31MOL   H18710447   6.444   4.318   5.897  0.3192  0.6240  0.6132
   31MOL   H18810448   6.423   4.055   5.828  0.6305 -2.1809  0.4658
   31MOL   C18910449   6.593   3.657   5.964  0.2701 -0.5889 -0.1111
   31MOL   C19010450   6.658   3.563   6.065  0.1914  0.3416  0.2469
   31MOL   C19110451   6.694   3.627   6.200 -0.2778 -0.6821  0.6229
   31MOL   C19210452   6.618   3.617   6.315  0.3104  0.1011 -0.1093
   31MOL   C19310453   6.652   3.673   6.439 -0.0760  0.0076 -0.4117
   31MOL   C19410454   6.773   3.746   6.441 -0.2123  0.0678  0.4685
   31MOL   C19510455   6.858   3.756   6.322 -0.4641 -0.4844  0.9374
   31MOL   C19610456   6.820   3.695   6.203  0.4312 -0.3148 -0.4999
   31MOL   O19710457   6.772   3.506   5.997 -0.3175  0.0293 -0.1506
   31MOL   H19810458   6.494   3.672   6.007  0.7004 -0.8183  0.9727
   31MOL   H19910459   6.583   3.618   5.862  0.3016 -0.6842 -0.0780
   31MOL   H20010460   6.590   3.482   6.093 -0.7468  1.0214 -0.0372
   31MOL   H20110461   6.523   3.566   6.304  0.9043 -1.3909  1.4663
   31MOL   H20210462   6.597   3.667   6.532 -0.5138  2.6096 -0.4514
   31MOL   H20310463   6.815   3.786   6.533  1.3449 -0.4789  0.0210
   31MOL   H20410464   6.948   3.817   6.317 -0.6909 -0.3589 -2.1855
   31MOL   H20510465   6.873   3.712   6.110  1.5342  0.1461  0.2153
   31MOL   C20610466   6.836   3.401   6.069 -0.1187  0.5930 -0.2277
   31MOL   C20710467   6.845   3.281   5.976 -0.2044  0.8435  0.2557
   31MOL   C20810468   6.718   3.191   5.981  0.1307 -0.3501 -0.2256
   31MOL   C20910469   6.590   3.248   5.957  0.3802 -0.1479  0.1626
   31MOL   C21010470   6.477   3.164   5.949 -0.1737  0.4563  0.3333
   31MOL   C21110471   6.491   3.027   5.993  0.6278 -0.4023 -0.0608
   31MOL   C21210472   6.619   2.968   6.027 -0.5203 -0.4933  0.5466
   31MOL   C21310473   6.730   3.048   6.011  0.0317 -0.0563 -0.2966
   31MOL   O21410474   6.968   3.209   6.001 -0.0897  0.1688 -0.6638
   31MOL   H21510475   6.932   3.435   6.107 -0.0443 -1.3079  1.3562
   31MOL   H21610476   6.776   3.367   6.153 -0.8874 -0.5042 -1.2071
   31MOL   H21710477   6.853   3.319   5.874 -0.2810 -1.2065 -0.5359
   31MOL   H21810478   6.582   3.350   5.924  0.1917 -0.2825 -0.2136
   31MOL   H21910479   6.383   3.198   5.910  0.0991  0.2421 -0.5316
   31MOL   H22010480   6.403   2.964   5.995 -0.1931  0.7433  0.4172
   31MOL   H22110481   6.635   2.867   6.063  1.1456 -0.9762 -1.4119
   31MOL   H22210482   6.825   3.001   6.029  0.5039  0.8596 -0.3957
   31MOL   C22310483   7.022   3.134   5.897 -0.4000 -0.1527 -0.1836
   31MOL   C22410484   7.166   3.090   5.928  0.6878  0.0503 -0.2801
   31MOL   C22510485   7.172   2.971   6.026  0.2305 -0.1327 -0.2832
   31MOL   C22610486   7.111   2.991   6.149  0.5311 -0.5534  0.0908
   31MOL   C22710487   7.123   2.887   6.249  0.7401  0.4758  1.2031
   31MOL   C22810488   7.186   2.761   6.222 -0.4257  0.4330  0.3849
   31MOL   C22910489   7.247   2.745   6.102  0.0207 -0.5050  0.3531
   31MOL   C23010490   7.244   2.851   6.008  0.2542  0.4376 -0.2042
   31MOL   O23110491   7.234   3.053   5.799  0.0263 -0.1960 -0.2353
   31MOL   H23210492   6.960   3.056   5.852 -0.4792 -0.6295  0.7416
   31MOL   H23310493   7.034   3.203   5.813  1.2736  0.5461  0.5994
   31MOL   H23410494   7.211   3.176   5.978 -0.5892  0.4635  0.1832
   31MOL   H23510495   7.054   3.078   6.176  0.4753  0.2377 -2.4826
   31MOL   H23610496   7.082   2.901   6.347 -0.5748  0.1867  0.7102
   31MOL   H23710497   7.207   2.691   6.302 -0.8087 -0.1961 -0.0625
   31MOL   H23810498   7.301   2.652   6.088  1.9480  0.3680  1.7837
   31MOL   H23910499   7.306   2.833   5.921  1.2495 -2.6944  1.0724
   31MOL   C24010500   7.373   3.092   5.798  0.2009  0.6660 -0.2331
   31MOL   C24110501   7.390   3.220   5.723 -0.1257  0.7697 -0.2218
   31MOL   C24210502   7.321   3.217   5.589 -0.0085  0.6003  0.0542
   31MOL   C24310503   7.188   3.268   5.567  0.6677 -0.0968  0.0248
   31MOL   C24410504   7.130   3.250   5.432 -0.0845  0.1382  0.3824
   31MOL   C24510505   7.195   3.173   5.333  0.4473  0.9274 -0.3266
   31MOL   C24610506   7.324   3.126   5.351  0.3932  0.3746 -0.2232
   31MOL   C24710507   7.387   3.146   5.478 -0.0444 -0.4154 -0.0761
   31MOL   O24810508   7.346   3.323   5.803 -0.7505  0.6727  0.9888
   31MOL   H24910509   7.416   3.096   5.898  0.3411 -0.8700 -0.2265
   31MOL   H25010510   7.426   3.012   5.747  3.0809 -0.1871  3.7959
   31MOL   H25110511   7.497   3.221   5.700 -0.0247 -0.6825  0.1038
   31MOL   H25210512   7.150   3.333   5.645  1.6716  1.7173 -0.9467
   31MOL   H25310513   7.035   3.294   5.408 -1.4864 -2.4831  0.9225
   31MOL   H25410514   7.146   3.157   5.238 -0.8911 -1.9626  0.8012
   31MOL   H25510515   7.383   3.080   5.274  0.5918  0.9260 -0.4032
   31MOL   H25610516   7.490   3.114   5.478 -0.1309 -0.7248  1.8754
   31MOL   C25710517   7.383   3.455   5.761 -0.3332  0.5882  0.4461
   31MOL   C25810518   7.534   3.490   5.757  0.2571 -0.4034  0.5654
   31MOL   C25910519   7.555   3.633   5.736  1.1401 -0.0743  0.2414
   31MOL   C26010520   7.591   3.679   5.609 -0.3475  0.0222  0.3248
   31MOL   C26110521   7.621   3.817   5.590  0.5648 -0.1934  0.5722
   31MOL   C26210522   7.627   3.902   5.702 -0.7496 -0.0130  0.2349
   31MOL   C26310523   7.602   3.858   5.832  0.1802 -0.0376  0.7253
   31MOL   C26410524   7.559   3.722   5.849 -0.1123 -0.0531  0.2640
   31MOL   O26510525   7.602   3.417   5.653  0.8120  0.1276 -0.4137
   31MOL   H26610526   7.332   3.521   5.831  0.3698  3.0131 -1.2793
   31MOL   H26710527   7.342   3.473   5.661 -0.2630  0.9551  0.4835
   31MOL   H26810528   7.572   3.467   5.856 -0.4465  2.7878  1.6279
   31MOL   H26910529   7.584   3.609   5.528 -2.3725  0.1054  0.3908
   31MOL   H27010530   7.619   3.856   5.490 -1.4671  0.0392  0.6851
   31MOL   H27110531   7.651   4.007   5.695 -1.4252  0.0963 -0.4598
   31MOL   H27210532   7.619   3.916   5.921  2.5339 -2.3396  1.8220
   31MOL   H27310533   7.542   3.680   5.947 -0.6590 -2.1595 -0.6941
   31MOL   C27410534   7.746   3.400   5.671  0.1694 -0.3584  0.2048
   31MOL   C27510535   7.798   3.303   5.566  0.2996  0.6070 -0.1933
   31MOL   C27610536   7.792   3.364   5.424 -0.4285 -0.2262  0.3800
   31MOL   C27710537   7.672   3.385   5.346 -0.1362  1.1649 -0.2784
   31MOL   C27810538   7.677   3.449   5.225  0.5119  0.1953 -0.0502
   31MOL   C27910539   7.802   3.506   5.186  0.4001  1.5148 -0.1596
   31MOL   C28010540   7.923   3.485   5.254  0.6377  0.6345  0.1145
   31MOL   C28110541   7.913   3.407   5.371 -0.1307  0.1372  0.2557
   31MOL   O28210542   7.725   3.183   5.582  0.1181  0.4208 -0.6015
   31MOL   H28310543   7.785   3.502   5.671 -1.4538  0.2873  1.4722
   31MOL   H28410544   7.762   3.356   5.770  1.1385  1.9233  1.1072
   31MOL   H28510545   7.903   3.290   5.590  0.0884  0.0814  0.4739
   31MOL   H28610546   7.575   3.360   5.386 -0.2518  0.2096 -1.1506
   31MOL   H28710547   7.593   3.472   5.160 -1.3253  1.3166  2.5878
   31MOL   H28810548   7.815   3.572   5.101  3.1143 -1.1600 -1.9463
   31MOL   H28910549   8.019   3.532   5.234  1.4658 -0.0373  2.3339
   31MOL   H29010550   8.004   3.398   5.427 -0.1439 -0.6721  0.1464
   31MOL   C29110551   7.780   3.070   5.519  0.5885  1.3927 -0.0274
   31MOL   C29210552   7.747   2.950   5.609  0.0767  0.7356  0.2654
   31MOL   C29310553   7.774   2.816   5.540 -0.5776 -0.4758 -0.2282
   31MOL   C29410554   7.881   2.736   5.588 -0.0833 -0.3869 -0.2390
   31MOL   C29510555   7.909   2.610   5.536  0.3089 -0.2596  0.6842
   31MOL   C29610556   7.829   2.563   5.434 -0.3358 -0.0243 -0.1908
   31MOL   C29710557   7.726   2.642   5.381  0.5207  0.3323  0.4671
   31MOL   C29810558   7.699   2.773   5.430  0.6564  0.5676  0.1649
   31MOL   O29910559   7.814   2.974   5.731  0.1791 -0.3502 -0.1269
   31MOL   H30010560   7.888   3.077   5.504  0.7082  0.4729  0.3426
   31MOL   H30110561   7.725   3.053   5.427 -0.9762 -2.2138  1.4499
   31MOL   H30210562   7.640   2.946   5.627  0.0296  1.5240  0.1925
   31MOL   H30310563   7.936   2.758   5.678  1.2701 -1.5377 -0.7656
   31MOL   H30410564   7.984   2.542   5.573  0.7660  0.8471  1.7885
   31MOL   H30510565   7.845   2.462   5.401 -1.0968  0.2765 -1.5293
   31MOL   H30610566   7.674   2.594   5.300  2.4994 -0.5755 -0.2944
   31MOL   H30710567   7.616   2.824   5.384  0.8659  0.4264 -0.3820
   31MOL   C30810568   7.755   2.931   5.851 -0.1583  0.7397  0.2769
   31MOL   C30910569   7.853   2.908   5.961  0.0350  0.3855  0.2613
   31MOL   C31010570   7.795   2.952   6.085 -0.5170 -0.2829  0.1157
   31MOL   C31110571   7.686   2.883   6.141 -0.1768  0.8553 -0.8466
   31MOL   C31210572   7.622   2.923   6.262 -0.1699 -0.5044 -0.0605
   31MOL   C31310573   7.683   3.037   6.327  0.4777  0.5748 -0.5352
   31MOL   C31410574   7.784   3.116   6.267 -0.0131  0.4282 -0.5592
   31MOL   C31510575   7.844   3.069   6.148  0.4029 -0.8698  0.2575
   31MOL   O31610576   7.866   2.766   5.965 -0.3646  0.0427  0.3502
   31MOL   H31710577   7.681   2.853   5.833 -2.4304  2.6554  1.1057
   31MOL   H31810578   7.683   3.011   5.869 -2.1439 -0.5334 -1.7942
   31MOL   H31910579   7.947   2.961   5.946  1.5173 -1.8989  1.2062
   31MOL   H32010580   7.648   2.793   6.095 -1.1918  1.3860 -1.0680
   31MOL   H32110581   7.549   2.863   6.314 -0.7275 -0.1027 -0.3711
   31MOL   H32210582   7.643   3.072   6.421 -0.4455  1.1668 -1.1447
   31MOL   H32310583   7.805   3.213   6.310 -1.3216  0.6554 -0.4120
   31MOL   H32410584   7.933   3.118   6.111 -0.2195  2.1474  2.5765
   31MOL   C32510585   7.979   2.725   6.030 -0.3263 -0.0106  0.0811
   31MOL   C32610586   7.980   2.576   6.061 -0.0194 -0.5279  0.1994
   31MOL   C32710587   7.870   2.553   6.163  0.2300  0.1557 -0.4311
   31MOL   C32810588   7.734   2.522   6.126 -0.1586 -0.9888  0.2771
   31MOL   C32910589   7.630   2.516   6.220  0.9025  0.1769  0.1180
   31MOL   C33010590   7.659   2.518   6.360  0.6879  0.2208 -1.2620
   31MOL   C33110591   7.787   2.553   6.395  0.1998 -0.9609  0.2923
   31MOL   C33210592   7.890   2.565   6.302 -0.6099  0.4250 -0.1142
   31MOL   O33310593   7.958   2.523   5.936 -0.2000  0.0661 -0.3063
   31MOL   H33410594   7.972   2.779   6.124  0.4827 -0.9406  0.6876
   31MOL   H33510595   8.079   2.750   5.993 -0.8573  0.6348 -0.9526
   31MOL   H33610596   8.073   2.533   6.098 -0.6057 -1.5138  0.5354
   31MOL   H33710597   7.708   2.520   6.021 -0.3299  0.4866  0.2826
   31MOL   H33810598   7.536   2.484   6.179  1.0652 -1.2981  0.8635
   31MOL   H33910599   7.585   2.513   6.439 -1.3258 -1.6797 -3.2016
   31MOL   H34010600   7.817   2.562   6.498  1.5333 -0.3059 -0.1392
   31MOL   H34110601   7.986   2.591   6.342  0.3316 -2.6183 -0.2709
   31MOL   H34210602   7.899   2.583   5.893  0.0251  1.6416  1.5647
   32MOL     C110603   7.218   3.572   1.263 -0.4268 -0.2633 -0.6834
   32MOL     C210604   7.354   3.659   1.277  0.2734 -0.6674  0.0994
   32MOL     C310605   7.363   3.771   1.172  0.4282  0.5117 -0.1769
   32MOL     C410606   7.364   3.905   1.214  0.0325  0.2433 -0.2980
   32MOL     C510607   7.354   4.011   1.121  0.0179 -0.3077  0.3128
   32MOL     C610608   7.340   3.988   0.983 -0.2096 -0.4878 -0.4959
   32MOL     C710609   7.352   3.854   0.948  0.1033  0.0471  0.1427
   32MOL     C810610   7.359   3.745   1.033 -0.1004  0.7878  0.8742
   32MOL     O910611   7.458   3.572   1.256  0.3770  0.5745 -0.6037
   32MOL    H1010612   7.127   3.632   1.259 -1.7903 -2.3738 -2.7748
   32MOL    H1110613   7.222   3.522   1.166 -0.3502 -1.5392 -0.0388
   32MOL    H1210614   7.358   3.714   1.371  1.8592 -0.0409 -0.3177
   32MOL    H1310615   7.351   3.940   1.315  0.0920 -2.5952  0.7263
   32MOL    H1410616   7.352   4.110   1.164  0.6817 -0.9805  1.9273
   32MOL    H1510617   7.342   4.074   0.917  0.4347  1.5657  2.0826
   32MOL    H1610618   7.344   3.836   0.842 -3.1223 -1.9086  0.6527
   32MOL    H1710619   7.367   3.646   0.992  0.6359  1.8094 -1.4957
   32MOL    H1810620   7.209   3.490   1.335 -0.1239  0.9487  0.7612
   32MOL    C1910621   7.515   3.517   1.370  0.6300  0.5914 -0.1311
   32MOL    C2010622   7.617   3.409   1.349 -0.2271 -1.1948  0.3378
   32MOL    C2110623   7.541   3.275   1.335 -0.2060 -0.3403 -0.5380
   32MOL    C2210624   7.490   3.242   1.213 -0.0516  0.4764 -0.5009
   32MOL    C2310625   7.398   3.132   1.201  0.5244  0.2918  0.3067
   32MOL    C2410626   7.361   3.060   1.317  0.0247  0.1440 -0.3658
   32MOL    C2510627   7.420   3.091   1.436  0.9763 -0.0846 -0.2646
   32MOL    C2610628   7.512   3.197   1.446 -0.8056 -0.1118  0.5880
   32MOL    O2710629   7.690   3.414   1.472 -0.4762  0.8124 -0.1957
   32MOL    H2810630   7.549   3.605   1.425 -1.1767  2.2665 -1.6152
   32MOL    H2910631   7.435   3.476   1.432  0.1833 -0.6777 -1.5136
   32MOL    H3010632   7.673   3.425   1.257  0.2947 -1.4099  0.6144
   32MOL    H3110633   7.516   3.305   1.129  0.4429  1.3100  0.2770
   32MOL    H3210634   7.362   3.105   1.103  1.0568 -3.3428  1.0546
   32MOL    H3310635   7.298   2.973   1.306 -0.2507  0.2989 -0.0239
   32MOL    H3410636   7.376   3.036   1.518 -0.6821  0.2607 -0.8824
   32MOL    H3510637   7.570   3.207   1.537  2.0014 -2.3645 -0.8605
   32MOL    C3610638   7.829   3.456   1.447  0.0665 -0.0382  0.1196
   32MOL    C3710639   7.896   3.524   1.565 -0.3045  0.1521  0.3232
   32MOL    C3810640   7.809   3.638   1.622 -0.3306  0.4139 -0.2840
   32MOL    C3910641   7.754   3.617   1.749  0.0673  0.3504 -0.2239
   32MOL    C4010642   7.669   3.716   1.808  0.1946 -0.5633 -0.5909
   32MOL    C4110643   7.646   3.839   1.740 -0.2468  0.0963 -0.8778
   32MOL    C4210644   7.700   3.857   1.613 -0.3494 -0.3479 -0.6232
   32MOL    C4310645   7.781   3.759   1.557 -0.4297 -0.1495  0.2056
   32MOL    O4410646   8.010   3.576   1.504 -0.3124  0.5870 -0.0129
   32MOL    H4510647   7.879   3.367   1.410 -0.8363 -1.2179  1.6999
   32MOL    H4610648   7.829   3.521   1.359 -2.5263 -2.9704 -2.1518
   32MOL    H4710649   7.938   3.452   1.635  0.3914  0.2310 -0.0003
   32MOL    H4810650   7.755   3.522   1.800  0.9495 -1.2348 -3.0450
   32MOL    H4910651   7.643   3.699   1.911 -0.5463 -0.1670 -0.7133
   32MOL    H5010652   7.589   3.920   1.782  0.2156 -0.1601  0.2733
   32MOL    H5110653   7.686   3.951   1.562  1.9505  1.1452  1.3969
   32MOL    H5210654   7.832   3.801   1.472 -0.0657  1.9171  1.4145
   32MOL    C5310655   0.035   3.616   1.592  0.5030  0.2566  0.5095
   32MOL    C5410656   0.092   3.748   1.545 -0.1689  1.1332 -0.8281
   32MOL    C5510657   0.155   3.823   1.664 -0.6659 -0.6815  0.3052
   32MOL    C5610658   0.283   3.784   1.702 -0.0157 -0.1080  0.4060
   32MOL    C5710659   0.341   3.834   1.818  0.5581  0.6114 -0.4914
   32MOL    C5810660   0.275   3.936   1.892  0.2626 -0.5092 -0.2359
   32MOL    C5910661   0.146   3.982   1.844 -0.0500  0.9664  0.1247
   32MOL    C6010662   0.086   3.920   1.733 -0.2438 -0.2778  0.2293
   32MOL    O6110663   0.192   3.715   1.451 -1.0976  0.1091  0.4762
   32MOL    H6210664   8.072   3.644   1.688  0.4798  0.7582  0.3531
   32MOL    H6310665   0.104   3.534   1.613  1.1092  0.6107 -0.0540
   32MOL    H6410666   0.001   3.795   1.508  0.2276 -0.3846 -3.8603
   32MOL    H6510667   0.331   3.710   1.640  0.0606  0.1043  0.2109
   32MOL    H6610668   0.428   3.789   1.864 -2.0629 -1.0110  3.0979
   32MOL    H6710669   0.326   3.979   1.977  0.1095 -0.5720 -0.1108
   32MOL    H6810670   0.090   4.053   1.903  1.0320 -0.2330  2.6476
   32MOL    H6910671   8.065   3.929   1.695  0.1466 -0.9286 -1.0045
   32MOL    C7010672   0.232   3.819   1.367 -0.4793  0.3858  0.6484
   32MOL    C7110673   0.351   3.771   1.287 -0.0023  0.3776  0.5076
   32MOL    C7210674   0.458   3.706   1.375 -0.5481  0.4898 -0.1336
   32MOL    C7310675   0.487   3.567   1.368  0.6909  0.7924  0.0558
   32MOL    C7410676   0.581   3.511   1.457  0.5226 -0.8514  0.4814
   32MOL    C7510677   0.659   3.592   1.539 -0.3016  0.3534  0.6783
   32MOL    C7610678   0.641   3.733   1.539  0.2308 -0.4932 -0.4226
   32MOL    C7710679   0.532   3.788   1.460  0.3556  0.3907 -0.6324
   32MOL    O7810680   0.401   3.872   1.206 -0.0654 -0.0852 -0.2231
   32MOL    H7910681   0.158   3.860   1.298  2.5629  0.7717 -2.5552
   32MOL    H8010682   0.264   3.904   1.428 -0.4651 -0.4628  1.8222
   32MOL    H8110683   0.310   3.695   1.220  0.6448  2.0078 -1.8090
   32MOL    H8210684   0.423   3.507   1.306 -1.5269  1.8463  1.2692
   32MOL    H8310685   0.586   3.403   1.460 -2.7384 -1.0720 -0.6430
   32MOL    H8410686   0.726   3.543   1.608  0.3114  2.2933  1.5222
   32MOL    H8510687   0.697   3.801   1.602 -0.5799 -0.2507  0.0435
   32MOL    H8610688   0.511   3.894   1.464 -2.2747 -0.1918  2.1765
   32MOL    C8710689   0.496   3.838   1.102  0.0161 -0.1719 -0.5209
   32MOL    C8810690   0.524   3.937   0.979 -0.5288 -0.3961 -0.0820
   32MOL    C8910691   0.568   4.081   1.022  0.8331  0.0951  0.5032
   32MOL    C9010692   0.532   4.182   0.929 -0.4347  0.1832 -0.9585
   32MOL    C9110693   0.570   4.313   0.964 -0.7567  0.1917  0.1116
   32MOL    C9210694   0.648   4.342   1.079 -0.3258  0.0409 -0.6656
   32MOL    C9310695   0.693   4.233   1.162 -0.1889 -0.3916  0.3274
   32MOL    C9410696   0.646   4.105   1.134  0.9832  0.2798  0.1804
   32MOL    O9510697   0.415   3.945   0.893 -0.0351  0.2248  0.3936
   32MOL    H9610698   0.472   3.737   1.069 -2.0673 -0.0356  0.4705
   32MOL    H9710699   0.592   3.826   1.151  0.1864 -0.1743 -0.8552
   32MOL    H9810700   0.608   3.895   0.924 -0.9350 -0.2319 -0.8363
   32MOL    H9910701   0.451   4.163   0.860 -0.3108  0.3274 -1.1450
   32MOL   H10010702   0.540   4.399   0.908 -1.7523  2.0826  3.3823
   32MOL   H10110703   0.671   4.447   1.084 -1.7844  0.3253  0.3439
   32MOL   H10210704   0.755   4.244   1.249  1.0152  1.8866 -0.7618
   32MOL   H10310705   0.667   4.022   1.200 -1.3675  0.2042  0.8994
   32MOL   C10410706   0.415   3.862   0.777  0.0369  0.0074  0.0510
   32MOL   C10510707   0.516   3.883   0.662 -0.1635 -0.9198  0.0767
   32MOL   C10610708   0.500   3.778   0.550 -0.1427  0.3633  0.8900
   32MOL   C10710709   0.543   3.648   0.571 -0.5461 -0.3486  0.2274
   32MOL   C10810710   0.529   3.556   0.465  0.1189  0.3200 -0.4595
   32MOL   C10910711   0.454   3.581   0.349  0.6965 -0.6108  0.0232
   32MOL   C11010712   0.398   3.708   0.336 -0.1113  0.3325  0.2044
   32MOL   C11110713   0.428   3.808   0.433 -0.6714  1.0514  0.1962
   32MOL   O11210714   0.493   4.015   0.618 -0.6158  0.0991  0.5630
   32MOL   H11310715   0.435   3.762   0.814  0.8762 -0.9357 -2.8194
   32MOL   H11410716   0.311   3.860   0.744  0.1624  2.3677 -0.5948
   32MOL   H11510717   0.617   3.877   0.702  0.7749  1.3888 -1.7946
   32MOL   H11610718   0.600   3.632   0.661 -0.0332  2.0518  0.3729
   32MOL   H11710719   0.569   3.456   0.474 -0.9947 -0.0871  0.0073
   32MOL   H11810720   0.428   3.517   0.266 -0.3995 -1.1373  0.7455
   32MOL   H11910721   0.327   3.734   0.258 -1.5071 -0.7869  1.1025
   32MOL   H12010722   0.380   3.903   0.413 -3.0480 -0.6094 -2.2345
   32MOL   C12110723   0.609   4.093   0.591 -0.3598 -0.0623  0.2091
   32MOL   C12210724   0.589   4.216   0.505 -0.0808  0.3189 -0.5942
   32MOL   C12310725   0.497   4.320   0.574 -0.0455 -0.7777 -0.7041
   32MOL   C12410726   0.535   4.456   0.596  0.8027 -0.3697  0.3181
   32MOL   C12510727   0.452   4.543   0.661  0.7580 -1.1743  0.5578
   32MOL   C12610728   0.319   4.522   0.688 -0.0890  0.9772  0.0573
   32MOL   C12710729   0.281   4.385   0.678 -0.4288 -0.2840 -0.3616
   32MOL   C12810730   0.364   4.287   0.619 -0.7940  0.6288  0.6228
   32MOL   O12910731   0.717   4.279   0.476  0.1232 -0.5015  0.2074
   32MOL   H13010732   0.674   4.025   0.536  2.9052  0.4842  3.1557
   32MOL   H13110733   0.659   4.107   0.687 -1.2217 -1.2438  0.8394
   32MOL   H13210734   0.539   4.184   0.414 -0.2136 -0.6188 -0.1978
   32MOL   H13310735   0.633   4.491   0.566  0.8164  0.1770  0.9884
   32MOL   H13410736   0.499   4.640   0.672 -1.2263  0.2990 -3.3220
   32MOL   H13510737   0.247   4.591   0.728 -0.3579  1.6433 -1.5352
   32MOL   H13610738   0.183   4.345   0.703 -0.5950 -0.6006 -1.4853
   32MOL   H13710739   0.334   4.183   0.615 -0.7731  0.6791 -2.0894
   32MOL   C13810740   0.794   4.214   0.378  0.4938 -0.1845 -0.1190
   32MOL   C13910741   0.884   4.309   0.304 -0.1937  0.6467 -0.3613
   32MOL   C14010742   1.002   4.372   0.372 -0.5929  0.1727 -0.4435
   32MOL   C14110743   0.985   4.453   0.488 -0.7275 -0.4047  0.1928
   32MOL   C14210744   1.090   4.530   0.543 -0.3672  0.0419  0.0551
   32MOL   C14310745   1.212   4.537   0.478  0.3487  0.1306  0.0604
   32MOL   C14410746   1.232   4.457   0.362 -0.4491 -0.6043 -0.1237
   32MOL   C14510747   1.130   4.369   0.317  0.4672  0.4269  0.1479
   32MOL   O14610748   0.915   4.245   0.180  0.1641 -0.1486  0.1129
   32MOL   H14710749   0.722   4.192   0.299 -1.8178  1.1675  1.5571
   32MOL   H14810750   0.834   4.116   0.407 -2.0777 -1.6495 -1.3026
   32MOL   H14910751   0.820   4.396   0.289  1.1617  1.4817 -1.5377
   32MOL   H15010752   0.895   4.450   0.548 -3.0234 -1.2124 -3.1423
   32MOL   H15110753   1.073   4.581   0.636  0.5249 -1.1535  0.8856
   32MOL   H15210754   1.304   4.583   0.513  1.1915  0.2540 -2.2294
   32MOL   H15310755   1.327   4.458   0.311 -0.5426 -0.6468 -0.2992
   32MOL   H15410756   1.139   4.296   0.238  0.8553  1.7370 -1.0516
   32MOL   C15510757   0.904   4.321   0.062 -0.1645  0.0351 -0.3464
   32MOL   C15610758   0.847   4.219   8.036  0.7236 -0.8797 -1.1495
   32MOL   C15710759   0.725   4.165   0.018  0.3195 -0.2004  0.5778
   32MOL   C15810760   0.706   4.027   0.040  0.5643  0.2197 -0.4703
   32MOL   C15910761   0.583   3.981   0.093  0.0692 -0.2129  0.9768
   32MOL   C16010762   0.475   4.075   0.125 -0.0070 -0.4380 -0.9097
   32MOL   C16110763   0.495   4.213   0.103  0.2200 -0.1283  0.4089
   32MOL   C16210764   0.619   4.254   0.046  0.4280  0.1329 -0.8139
   32MOL   O16310765   0.818   4.291   7.922 -0.2926  0.1377  0.1789
   32MOL   H16410766   0.997   4.374   0.038 -0.7482  1.2779  0.0920
   32MOL   H16510767   0.835   4.403   0.081 -0.2027 -0.1403  0.2999
   32MOL   H16610768   0.919   4.143   8.007 -0.0936 -1.9925 -0.3066
   32MOL   H16710769   0.788   3.957   0.031  1.8861  1.4192  1.7813
   32MOL   H16810770   0.567   3.875   0.105  0.7544 -0.3527  0.6574
   32MOL   H16910771   0.378   4.042   0.160  0.1078  2.2100  2.0754
   32MOL   H17010772   0.411   4.279   0.117  1.0857  1.6736 -2.3061
   32MOL   H17110773   0.618   4.351   8.079 -0.0592  0.7643  0.4786
   32MOL   C17210774   0.781   4.202   7.815 -0.0886 -0.1664 -0.2317
   32MOL   C17310775   0.731   4.288   7.694  0.7555  0.0876  0.9239
   32MOL   C17410776   0.590   4.342   7.707 -0.1223 -0.1159  0.0413
   32MOL   C17510777   0.484   4.291   7.630 -0.0849  0.2197  0.5147
   32MOL   C17610778   0.349   4.329   7.657  0.5009 -0.4669  0.2541
   32MOL   C17710779   0.323   4.428   7.757 -0.1161 -0.0136  0.2179
   32MOL   C17810780   0.429   4.483   7.833 -0.0183 -0.1598  0.0562
   32MOL   C17910781   0.557   4.437   7.807 -0.7263  0.2664 -0.8900
   32MOL   O18010782   0.755   4.202   7.581 -0.4843 -0.3427  0.6639
   32MOL   H18110783   0.867   4.137   7.798 -0.7217 -0.9652 -0.4508
   32MOL   H18210784   0.699   4.136   7.846 -0.1101  0.5590  1.3313
   32MOL   H18310785   0.787   4.381   7.706  0.8924 -0.0095  1.0404
   32MOL   H18410786   0.506   4.208   7.564 -4.5538  0.8191 -1.9235
   32MOL   H18510787   0.260   4.288   7.612  0.4214 -0.6096  0.5405
   32MOL   H18610788   0.230   4.470   7.791  0.6586  1.9819 -0.0628
   32MOL   H18710789   0.430   4.551   7.916  0.4944  0.3000 -0.3159
   32MOL   H18810790   0.631   4.460   7.882  0.1219 -0.4278 -1.4919
   32MOL   C18910791   0.800   4.270   7.466 -0.2027  0.6321 -0.0239
   32MOL   C19010792   0.772   4.196   7.330  0.0014 -0.4816 -0.1267
   32MOL   C19110793   0.622   4.168   7.294  0.1504 -0.1281 -0.3241
   32MOL   C19210794   0.559   4.053   7.345 -0.3947 -0.8709 -0.6012
   32MOL   C19310795   0.428   4.029   7.320  0.1107 -0.3335  0.3205
   32MOL   C19410796   0.356   4.112   7.233 -0.1650 -0.6292  0.5634
   32MOL   C19510797   0.414   4.226   7.179  0.5371 -0.1209  0.5356
   32MOL   C19610798   0.544   4.259   7.220 -0.6895 -0.4774  0.2655
   32MOL   O19710799   0.850   4.075   7.347  0.2601  0.1343 -0.7470
   32MOL   H19810800   0.756   4.369   7.457  0.9563  1.1590  0.0777
   32MOL   H19910801   0.906   4.290   7.481  0.1841 -1.1196 -0.2714
   32MOL   H20010802   0.819   4.260   7.256 -0.5275  0.0985  0.0362
   32MOL   H20110803   0.608   3.984   7.412  0.2930 -0.5602 -0.7871
   32MOL   H20210804   0.392   3.937   7.365 -0.7794 -1.6618 -2.9881
   32MOL   H20310805   0.252   4.093   7.211  0.0488 -3.6061  1.7783
   32MOL   H20410806   0.356   4.291   7.116  0.4848 -0.4199  0.2739
   32MOL   H20510807   0.587   4.354   7.191 -2.1474 -0.2866 -1.3883
   32MOL   C20610808   0.888   4.013   7.224  0.0984  0.8776  0.1496
   32MOL   C20710809   1.035   4.052   7.199  0.6525 -0.2861 -0.0893
   32MOL   C20810810   1.125   4.024   7.317 -0.6426  0.1698 -0.4103
   32MOL   C20910811   1.178   4.133   7.395 -0.4062  0.5481  0.3754
   32MOL   C21010812   1.261   4.110   7.505 -0.1684  0.2001 -0.1945
   32MOL   C21110813   1.291   3.980   7.543  0.8978  0.3106 -0.1305
   32MOL   C21210814   1.237   3.873   7.460  0.1431  0.2052  0.0144
   32MOL   C21310815   1.151   3.889   7.352  0.2123 -0.4728  0.6015
   32MOL   O21410816   1.046   4.191   7.161  0.0435  0.3472 -0.5250
   32MOL   H21510817   0.870   3.905   7.226 -1.1119  1.0713  0.0989
   32MOL   H21610818   0.826   4.049   7.143 -1.5689  0.6174  1.2762
   32MOL   H21710819   1.086   4.004   7.115  2.3151  2.0261 -0.4335
   32MOL   H21810820   1.148   4.233   7.367  2.1828  0.9247 -1.2225
   32MOL   H21910821   1.298   4.189   7.569  1.3454  0.0891 -0.9144
   32MOL   H22010822   1.357   3.960   7.626 -0.8767 -0.2748  1.1547
   32MOL   H22110823   1.258   3.772   7.493 -0.8104 -0.9845 -2.8711
   32MOL   H22210824   1.106   3.806   7.299 -2.8175 -0.4244  2.9279
   32MOL   C22310825   1.058   4.215   7.022 -0.2788 -0.1146 -0.5241
   32MOL   C22410826   1.052   4.362   6.981 -0.4455 -0.8412 -1.5644
   32MOL   C22510827   0.946   4.442   7.054 -0.3318 -0.1203 -0.5504
   32MOL   C22610828   0.826   4.479   6.990 -0.0524  0.1424 -0.1754
   32MOL   C22710829   0.727   4.551   7.055  0.3107 -1.0599 -0.1438
   32MOL   C22810830   0.741   4.585   7.196 -0.1932  0.0548  0.0250
   32MOL   C22910831   0.858   4.547   7.261 -0.1442  0.0485 -0.0168
   32MOL   C23010832   0.962   4.479   7.189 -0.3399 -0.2236 -0.2993
   32MOL   O23110833   1.181   4.415   6.988 -0.5433 -0.5661 -0.3756
   32MOL   H23210834   1.146   4.167   6.977  0.5173 -0.5734  1.4567
   32MOL   H23310835   0.981   4.156   6.972  0.7816 -0.4189 -1.8298
   32MOL   H23410836   1.011   4.360   6.880 -0.6454 -0.2427 -1.4980
   32MOL   H23510837   0.805   4.441   6.891 -2.6335  1.5700 -0.2257
   32MOL   H23610838   0.633   4.563   7.004  1.2280  2.6966 -1.1219
   32MOL   H23710839   0.658   4.638   7.241 -1.7921 -1.7036 -0.7961
   32MOL   H23810840   0.863   4.571   7.366  0.4019  0.0016 -0.0302
   32MOL   H23910841   1.058   4.448   7.229 -0.0366 -0.4185 -1.1605
   32MOL   C24010842   1.235   4.463   6.868 -0.4323 -0.2897  0.4961
   32MOL   C24110843   1.223   4.612   6.841  0.2203  0.1740  0.3239
   32MOL   C24210844   1.292   4.642   6.706 -1.2402  0.0295 -0.3802
   32MOL   C24310845   1.226   4.687   6.594  0.2040  0.9042  0.1448
   32MOL   C24410846   1.291   4.695   6.469 -0.0186  0.6849  0.3254
   32MOL   C24510847   1.428   4.667   6.465  0.3318  1.0405  0.2112
   32MOL   C24610848   1.497   4.650   6.586  0.1403  0.4221 -0.0855
   32MOL   C24710849   1.427   4.626   6.704 -0.0474  0.1905  0.0371
   32MOL   O24810850   1.081   4.633   6.837 -0.1322 -0.3318 -0.0627
   32MOL   H24910851   1.338   4.428   6.871 -0.5962 -0.7470  0.9569
   32MOL   H25010852   1.186   4.418   6.781 -0.0494  0.0631  0.0941
   32MOL   H25110853   1.273   4.670   6.919 -1.5322  2.2047 -0.0349
   32MOL   H25210854   1.120   4.707   6.593 -0.2607 -1.3093 -2.8539
   32MOL   H25310855   1.240   4.722   6.378  1.4986  1.2274 -0.3798
   32MOL   H25410856   1.486   4.672   6.374  0.5760  1.2652  0.3801
   32MOL   H25510857   1.605   4.641   6.584  0.1250  0.4411 -1.1939
   32MOL   H25610858   1.487   4.597   6.789 -0.7790  1.5333  1.0330
   32MOL   C25710859   1.035   4.765   6.873 -0.5712 -0.7849  1.2825
   32MOL   C25810860   1.078   4.825   7.004  0.2171 -0.8046  0.0373
   32MOL   C25910861   0.979   4.937   7.049  0.4187 -0.2510  0.0396
   32MOL   C26010862   0.998   5.070   7.000  0.0079 -0.3016 -1.0134
   32MOL   C26110863   0.915   5.172   7.043  0.5646 -0.0675 -0.4123
   32MOL   C26210864   0.804   5.139   7.124 -0.3782  0.1928 -0.6327
   32MOL   C26310865   0.784   5.007   7.163 -0.2644  0.8111 -0.0675
   32MOL   C26410866   0.868   4.902   7.129 -0.6038  0.3490  0.1996
   32MOL   O26510867   1.206   4.871   6.979  0.3279 -0.2099 -0.0252
   32MOL   H26610868   0.928   4.751   6.888 -0.9463 -0.4321 -0.8239
   32MOL   H26710869   1.063   4.822   6.785 -2.0584 -0.0446  1.2695
   32MOL   H26810870   1.082   4.752   7.085 -1.4200  1.9665  2.7775
   32MOL   H26910871   1.085   5.095   6.941 -0.0573  0.7896 -0.6545
   32MOL   H27010872   0.936   5.275   7.015 -3.0344  1.1557  1.0158
   32MOL   H27110873   0.736   5.222   7.139 -0.7228 -0.1704 -0.1860
   32MOL   H27210874   0.706   4.978   7.232 -2.2264 -0.7702 -2.7957
   32MOL   H27310875   0.862   4.805   7.178  0.3957 -0.0380 -0.4144
   32MOL   C27410876   1.278   4.911   7.104  0.8137 -0.2522 -0.1474
   32MOL   C27510877   1.435   4.897   7.088 -0.3045  0.3450  0.0421
   32MOL   C27610878   1.475   5.006   6.987  0.4004 -0.0435 -0.9905
   32MOL   C27710879   1.462   4.975   6.850 -0.1100 -0.2045 -0.2137
   32MOL   C27810880   1.498   5.075   6.757 -0.3137  1.0219  0.4278
   32MOL   C27910881   1.543   5.204   6.799  0.3051 -0.3485 -0.0713
   32MOL   C28010882   1.554   5.235   6.940  1.1350  0.0365  0.0795
   32MOL   C28110883   1.528   5.130   7.030  0.0603 -0.3926  0.8629
   32MOL   O28210884   1.470   4.770   7.039  0.2194 -0.4931  0.6072
   32MOL   H28310885   1.250   5.013   7.131 -0.1023 -0.3785 -0.6115
   32MOL   H28410886   1.254   4.846   7.188 -1.7105  0.3243 -0.3892
   32MOL   H28510887   1.482   4.907   7.186 -1.1387 -0.5343  0.5314
   32MOL   H28610888   1.445   4.872   6.822  0.3824 -0.9136  1.9609
   32MOL   H28710889   1.491   5.053   6.652 -0.5577  0.9399  0.4619
   32MOL   H28810890   1.577   5.272   6.723 -0.4016 -1.8057 -1.7364
   32MOL   H28910891   1.592   5.334   6.961 -0.4788  1.4869 -3.3828
   32MOL   H29010892   1.535   5.169   7.130  0.2758  1.4340  0.1406
   32MOL   C29110893   1.523   4.670   7.125 -0.4665  0.2095 -0.0477
   32MOL   C29210894   1.423   4.604   7.218  0.4271 -0.3578 -0.3052
   32MOL   C29310895   1.476   4.478   7.269  0.2169 -0.0209  0.1367
   32MOL   C29410896   1.580   4.481   7.364 -0.3610 -0.0710 -0.0891
   32MOL   C29510897   1.623   4.360   7.422  0.3062  0.1558  0.0553
   32MOL   C29610898   1.564   4.242   7.379 -0.0001 -0.7239 -0.5481
   32MOL   C29710899   1.464   4.237   7.284 -0.4971 -0.1941  0.1422
   32MOL   C29810900   1.412   4.358   7.229 -0.0466  0.3359 -1.0314
   32MOL   O29910901   1.378   4.695   7.325  0.0195 -0.0568 -0.3120
   32MOL   H30010902   1.624   4.693   7.161 -0.2367 -0.6694 -0.1048
   32MOL   H30110903   1.545   4.590   7.054 -0.1072 -0.8502  1.2385
   32MOL   H30210904   1.334   4.583   7.158  0.6812  1.4371 -1.3504
   32MOL   H30310905   1.623   4.577   7.389 -0.4611 -0.3571  1.2189
   32MOL   H30410906   1.701   4.352   7.496  0.4605  0.3045 -0.0899
   32MOL   H30510907   1.594   4.151   7.428  0.3672  0.1022  0.8296
   32MOL   H30610908   1.418   4.145   7.253  1.2590 -0.2284 -2.5133
   32MOL   H30710909   1.330   4.365   7.159 -0.7951 -0.6671 -0.2576
   32MOL   C30810910   1.261   4.648   7.398 -0.0563 -0.9067  0.4130
   32MOL   C30910911   1.220   4.752   7.505  0.1456  0.9162  0.2872
   32MOL   C31010912   1.238   4.900   7.464 -0.0056 -0.7778  0.7981
   32MOL   C31110913   1.125   4.974   7.425  0.0905 -0.3697 -0.4547
   32MOL   C31210914   1.133   5.104   7.384 -0.5479  0.1478  0.3057
   32MOL   C31310915   1.262   5.170   7.382 -0.0342 -0.7042 -0.8276
   32MOL   C31410916   1.372   5.104   7.425  0.1684 -0.1389  0.3837
   32MOL   C31510917   1.361   4.969   7.470  0.2076 -0.1243 -0.0930
   32MOL   O31610918   1.089   4.718   7.546 -0.3842 -0.0776  0.1898
   32MOL   H31710919   1.273   4.552   7.448 -0.1506 -1.2239 -0.1607
   32MOL   H31810920   1.185   4.621   7.324 -3.1011  1.1660  2.7149
   32MOL   H31910921   1.287   4.740   7.590  1.5313 -0.8612 -1.0129
   32MOL   H32010922   1.030   4.925   7.414  0.1585 -0.3922 -0.9501
   32MOL   H32110923   1.040   5.153   7.357 -1.3911 -0.1483  2.5472
   32MOL   H32210924   1.265   5.269   7.340 -1.8837  0.5913  1.9490
   32MOL   H32310925   1.469   5.153   7.426  0.8101 -1.3202 -1.0930
   32MOL   H32410926   1.446   4.911   7.503  0.1140 -0.5833 -0.6570
   32MOL   C32510927   1.057   4.771   7.670  0.2751  0.3988 -0.8464
   32MOL   C32610928   0.909   4.723   7.702  0.1657 -0.0564  0.5108
   32MOL   C32710929   0.869   4.765   7.843  0.2350  0.3465 -0.0471
   32MOL   C32810930   0.846   4.902   7.867  0.4011  0.5929 -0.1490
   32MOL   C32910931   0.815   4.945   7.991  0.1796 -0.6189  0.1357
   32MOL   C33010932   0.801   4.853   0.017 -0.4584 -1.0390  0.0200
   32MOL   C33110933   0.830   4.716   8.071 -0.7709  0.5337 -0.4320
   32MOL   C33210934   0.857   4.671   7.944 -0.9537 -1.0723 -0.1010
   32MOL   O33310935   0.827   4.781   7.600  0.0866  0.2939 -0.2044
   32MOL   H33410936   1.078   4.877   7.679 -1.2397  0.5957  0.9575
   32MOL   H33510937   1.132   4.729   7.737  2.2488  1.2382 -2.4818
   32MOL   H33610938   0.918   4.616   7.682  0.0551  0.0005  0.1593
   32MOL   H33710939   0.838   4.970   7.783 -0.3583 -1.3389 -1.6806
   32MOL   H33810940   0.790   5.046   8.020  2.4600 -0.1600  0.5875
   32MOL   H33910941   0.774   4.893   0.114  0.6378  0.4370 -0.2662
   32MOL   H34010942   0.820   4.645   0.071 -1.2021  1.2075  0.1187
   32MOL   H34110943   0.872   4.565   7.927  0.1175 -1.0999  0.9968
   32MOL   H34210944   0.874   4.771   7.518 -0.9531 -2.4881 -0.5037
   33MOL     C110945   5.355   2.440   3.476  0.2059  0.0439 -0.0032
   33MOL     C210946   5.366   2.292   3.488 -0.8223  0.0991 -0.6891
   33MOL     C310947   5.341   2.230   3.620  0.5404 -0.0636  0.5694
   33MOL     C410948   5.441   2.213   3.720 -0.1539  0.2723  0.2993
   33MOL     C510949   5.412   2.162   3.845 -0.4639 -0.8369 -0.1408
   33MOL     C610950   5.281   2.120   3.877  0.1471 -0.7996  0.3482
   33MOL     C710951   5.176   2.126   3.780 -0.7515  0.2446  0.0772
   33MOL     C810952   5.212   2.169   3.646 -0.3140 -0.0442 -0.4991
   33MOL     O910953   5.503   2.257   3.438 -0.2985  0.0981  0.4541
   33MOL    H1010954   5.424   2.483   3.548 -0.5518  0.8106  0.2619
   33MOL    H1110955   5.379   2.484   3.379  0.1699 -1.6515 -0.8089
   33MOL    H1210956   5.297   2.256   3.412 -0.7194  1.2496 -1.3470
   33MOL    H1310957   5.542   2.247   3.701  0.6873 -0.9741  2.3941
   33MOL    H1410958   5.488   2.168   3.922 -1.2184  0.0543  0.5412
   33MOL    H1510959   5.247   2.092   3.975  0.4092 -0.9867  0.3854
   33MOL    H1610960   5.083   2.073   3.795 -1.4968  1.0076 -1.6111
   33MOL    H1710961   5.136   2.161   3.570  1.0189  2.1489 -2.1132
   33MOL    H1810962   5.256   2.477   3.501 -0.1235 -0.5272 -0.4483
   33MOL    C1910963   5.541   2.125   3.411  0.2160  0.1688  0.2202
   33MOL    C2010964   5.467   2.053   3.302  0.1354  0.6849  0.1452
   33MOL    C2110965   5.458   2.142   3.172  0.6475 -0.4828 -0.0107
   33MOL    C2210966   5.337   2.203   3.135  0.0257 -0.9188  0.1897
   33MOL    C2310967   5.312   2.267   3.008 -0.2721  0.4847  0.6906
   33MOL    C2410968   5.422   2.267   2.918  0.4114  1.2448  0.2820
   33MOL    C2510969   5.545   2.206   2.950  0.2327 -0.3736  0.4210
   33MOL    C2610970   5.569   2.147   3.075  0.4303  0.0786  0.1589
   33MOL    O2710971   5.340   2.012   3.357  0.6581  0.1756  0.6311
   33MOL    H2810972   5.647   2.124   3.385  0.1709  0.5797  0.0189
   33MOL    H2910973   5.532   2.076   3.508 -0.0172  3.2239  1.7836
   33MOL    H3010974   5.516   1.961   3.271  0.2093 -0.5810  3.7500
   33MOL    H3110975   5.259   2.205   3.209 -0.6948  0.1467 -0.5884
   33MOL    H3210976   5.224   2.324   2.983 -1.1748 -1.1376  0.0994
   33MOL    H3310977   5.422   2.302   2.815 -2.2385  1.6850  0.3877
   33MOL    H3410978   5.635   2.205   2.890 -0.8616 -1.3566 -1.2582
   33MOL    H3510979   5.657   2.092   3.104 -0.4309 -1.4980 -0.1705
   33MOL    C3610980   5.350   1.894   3.437 -0.0221 -0.3527 -0.5447
   33MOL    C3710981   5.204   1.849   3.444 -1.2025  0.6080 -0.5163
   33MOL    C3810982   5.170   1.729   3.532  0.1571 -0.1811  0.6313
   33MOL    C3910983   5.197   1.593   3.497 -0.1545  0.1312  0.1454
   33MOL    C4010984   5.161   1.491   3.583  0.1214  0.3803  0.7836
   33MOL    C4110985   5.076   1.517   3.694 -0.4240 -0.4032 -0.1834
   33MOL    C4210986   5.042   1.651   3.730  0.4605  0.9514  0.4064
   33MOL    C4310987   5.098   1.755   3.654 -0.2378 -0.4095 -0.0318
   33MOL    O4410988   5.164   1.818   3.316  0.0633 -0.6606  0.2122
   33MOL    H4510989   5.408   1.814   3.391  1.7914  0.2947  0.5680
   33MOL    H4610990   5.394   1.917   3.534  0.1905 -1.2952 -0.4138
   33MOL    H4710991   5.149   1.931   3.490 -1.3245 -0.6358  1.6342
   33MOL    H4810992   5.246   1.577   3.402 -1.8557  1.0852 -0.9163
   33MOL    H4910993   5.183   1.386   3.565 -1.6791 -0.1974  1.7903
   33MOL    H5010994   5.044   1.433   3.755  1.7254 -0.5651  0.7916
   33MOL    H5110995   4.972   1.671   3.810 -1.5463 -0.2755 -1.0082
   33MOL    H5210996   5.070   1.856   3.678 -1.0963 -0.5268 -0.5276
   33MOL    C5310997   5.034   1.860   3.271  0.1376 -0.2867 -0.0684
   33MOL    C5410998   4.996   1.782   3.138  0.8462  0.0876 -0.4509
   33MOL    C5510999   5.093   1.811   3.023 -0.1913  0.0901  0.5105
   33MOL    C5611000   5.218   1.869   3.037 -0.2375 -0.2516 -0.1971
   33MOL    C5711001   5.305   1.894   2.932  0.1382 -0.1960 -0.0279
   33MOL    C5811002   5.265   1.868   2.801 -0.3099  0.8147 -0.1311
   33MOL    C5911003   5.141   1.811   2.772  0.0786 -0.7599 -0.4550
   33MOL    C6011004   5.058   1.787   2.886 -0.2246  0.8991 -0.0117
   33MOL    O6111005   4.988   1.647   3.164 -0.5241  0.5858  0.1640
   33MOL    H6211006   4.967   1.845   3.355 -0.1384  1.1535 -0.0204
   33MOL    H6311007   5.042   1.969   3.264 -1.2200 -0.0071  2.1998
   33MOL    H6411008   4.900   1.810   3.093  0.8975  0.2474 -0.4610
   33MOL    H6511009   5.261   1.892   3.134 -0.6041  2.5420 -0.6573
   33MOL    H6611010   5.404   1.933   2.948  0.2666 -0.0323 -1.2002
   33MOL    H6711011   5.334   1.902   2.726 -0.6282  1.2771 -0.2158
   33MOL    H6811012   5.102   1.781   2.675  0.0035 -0.1024 -0.6321
   33MOL    H6911013   4.968   1.739   2.853  1.9569 -2.4522 -1.3832
   33MOL    C7011014   4.868   1.609   3.244  0.4947  0.4120 -0.0190
   33MOL    C7111015   4.887   1.486   3.328 -0.0382  0.6343 -0.7173
   33MOL    C7211016   4.910   1.363   3.236 -0.5156 -0.0258  0.2372
   33MOL    C7311017   4.802   1.310   3.165 -0.0846 -0.4436 -0.7178
   33MOL    C7411018   4.827   1.208   3.069 -0.0255 -0.0079 -0.5406
   33MOL    C7511019   4.955   1.166   3.047  0.5805 -0.0299 -0.0806
   33MOL    C7611020   5.061   1.219   3.125  0.5272 -0.5601 -0.0073
   33MOL    C7711021   5.044   1.331   3.206  0.1679 -0.4496  0.1561
   33MOL    O7811022   4.777   1.474   3.415 -0.0578  0.0001  0.0260
   33MOL    H7911023   4.835   1.687   3.313  0.6070  1.8832 -1.5908
   33MOL    H8011024   4.785   1.598   3.174 -0.3526 -0.6058  1.1322
   33MOL    H8111025   4.980   1.501   3.384 -0.0941  0.3213 -0.5427
   33MOL    H8211026   4.702   1.344   3.187  1.0245  0.6581  3.0016
   33MOL    H8311027   4.743   1.158   3.023  0.5423  0.5888 -2.2924
   33MOL    H8411028   4.970   1.086   2.976 -0.0658 -0.4740  0.2825
   33MOL    H8511029   5.159   1.177   3.107  0.2241 -1.6583  0.8799
   33MOL    H8611030   5.127   1.381   3.253 -0.3906 -0.5524  1.2641
   33MOL    C8711031   4.811   1.396   3.534  0.2904 -0.6754  0.5029
   33MOL    C8811032   4.684   1.372   3.616  1.0342  0.1192 -0.1831
   33MOL    C8911033   4.569   1.287   3.560 -0.1185 -0.7581 -0.4102
   33MOL    C9011034   4.483   1.222   3.656  0.4275 -0.2647 -0.2956
   33MOL    C9111035   4.374   1.142   3.616  0.1575 -0.7946  0.1523
   33MOL    C9211036   4.341   1.139   3.486  0.3888 -0.6487 -0.6616
   33MOL    C9311037   4.413   1.219   3.393 -0.3191 -0.7094  0.1035
   33MOL    C9411038   4.527   1.292   3.428  0.6506  0.2698  1.0828
   33MOL    O9511039   4.651   1.493   3.681  0.5475 -0.0376 -0.4950
   33MOL    H9611040   4.869   1.461   3.599  0.0776 -0.2063  0.2251
   33MOL    H9711041   4.854   1.300   3.506  0.7418 -0.2297 -0.3517
   33MOL    H9811042   4.724   1.318   3.702 -0.2886  1.8632  1.5510
   33MOL    H9911043   4.505   1.229   3.762 -0.1511 -2.2096 -0.0135
   33MOL   H10011044   4.304   1.090   3.680 -0.0871 -0.8042 -0.1219
   33MOL   H10111045   4.259   1.077   3.455 -1.2270  0.2158  1.7299
   33MOL   H10211046   4.385   1.214   3.289 -0.1920 -0.4179  0.0551
   33MOL   H10311047   4.566   1.357   3.351  1.5646 -1.8906 -0.3094
   33MOL   C10411048   4.561   1.574   3.610 -0.2374  0.5395  0.1979
   33MOL   C10511049   4.609   1.711   3.644 -0.2270 -0.5028  0.2591
   33MOL   C10611050   4.530   1.820   3.576 -0.7519 -0.4512 -0.4101
   33MOL   C10711051   4.440   1.910   3.638 -0.1582 -0.1419 -0.7429
   33MOL   C10811052   4.382   2.006   3.560 -0.6756 -0.0740 -0.7257
   33MOL   C10911053   4.406   2.016   3.422 -0.2607  0.6816 -0.1120
   33MOL   C11011054   4.496   1.926   3.358  0.0864  0.2425  0.4278
   33MOL   C11111055   4.550   1.831   3.436 -0.8983 -0.3782  0.6617
   33MOL   O11211056   4.608   1.721   3.786  0.0079 -0.2295  0.1009
   33MOL   H11311057   4.575   1.555   3.504  3.0066 -1.3075  0.8996
   33MOL   H11411058   4.461   1.554   3.649 -0.6164  0.7654 -0.6526
   33MOL   H11511059   4.712   1.708   3.607  0.0948  0.9698  1.0095
   33MOL   H11611060   4.427   1.898   3.744 -2.6541  4.4393 -0.3931
   33MOL   H11711061   4.311   2.072   3.609 -0.0158  0.6561 -0.7559
   33MOL   H11811062   4.338   2.069   3.358 -1.8158 -1.5916 -0.3952
   33MOL   H11911063   4.522   1.924   3.253 -3.0658 -1.9541 -0.3564
   33MOL   H12011064   4.618   1.759   3.392 -1.6266 -0.4043 -0.4241
   33MOL   C12111065   4.688   1.825   3.845  0.1268 -0.1469  0.1690
   33MOL   C12211066   4.690   1.820   3.999  0.6617 -0.4031 -0.7893
   33MOL   C12311067   4.795   1.921   4.060  0.2684  1.1018 -0.2738
   33MOL   C12411068   4.775   2.059   4.042 -0.0785 -0.7576  0.0634
   33MOL   C12511069   4.876   2.149   4.090 -0.2446 -0.3920 -0.3091
   33MOL   C12611070   4.991   2.097   4.164 -0.2162 -0.0745 -0.1148
   33MOL   C12711071   5.011   1.959   4.170 -0.2914  0.7639  0.1603
   33MOL   C12811072   4.911   1.877   4.120 -0.4996  0.9861 -0.7854
   33MOL   O12911073   4.561   1.853   4.045 -0.6503 -0.2615  0.1055
   33MOL   H13011074   4.638   1.919   3.822  0.5278  0.6171  2.2708
   33MOL   H13111075   4.788   1.832   3.803 -0.1144  1.1166 -0.2277
   33MOL   H13211076   4.706   1.716   4.026 -1.7093 -0.3882  0.8101
   33MOL   H13311077   4.697   2.098   3.979  0.5483 -1.2839 -1.0559
   33MOL   H13411078   4.864   2.256   4.085 -0.4699 -0.4386 -0.9333
   33MOL   H13511079   5.060   2.167   4.208 -0.6449  0.0127  0.4309
   33MOL   H13611080   5.102   1.908   4.197  0.5351  2.2705  0.2588
   33MOL   H13711081   4.936   1.772   4.125  2.4805  1.7005  0.3377
   33MOL   C13811082   4.536   1.825   4.182  0.0686 -1.1449 -0.4178
   33MOL   C13911083   4.392   1.858   4.209  0.3541  0.8344 -0.0381
   33MOL   C14011084   4.347   1.795   4.339  0.5019  0.2717  0.2064
   33MOL   C14111085   4.324   1.873   4.456  0.1731 -0.0744 -0.2369
   33MOL   C14211086   4.298   1.808   4.577 -0.0580  0.4047  0.2869
   33MOL   C14311087   4.280   1.667   4.576 -0.5415 -0.1511 -0.5070
   33MOL   C14411088   4.286   1.594   4.459 -0.3103 -0.3727 -0.1191
   33MOL   C14511089   4.324   1.654   4.339 -0.0778 -0.2495 -0.4187
   33MOL   O14611090   4.370   2.000   4.210  0.0660 -0.1304  0.1787
   33MOL   H14711091   4.606   1.879   4.246  0.8433 -0.2002 -2.0134
   33MOL   H14811092   4.539   1.718   4.203 -3.2243 -0.5443  3.7884
   33MOL   H14911093   4.329   1.817   4.130  0.2544  0.8573  0.0290
   33MOL   H15011094   4.324   1.981   4.454 -2.4248 -0.0579 -1.1954
   33MOL   H15111095   4.294   1.862   4.670 -0.6654  1.0506 -0.1085
   33MOL   H15211096   4.267   1.621   4.673  1.0808 -1.7495 -1.0057
   33MOL   H15311097   4.266   1.488   4.467  0.4063 -0.8536 -3.5600
   33MOL   H15411098   4.341   1.590   4.253  1.5841 -1.2431  0.6166
   33MOL   C15511099   4.363   2.065   4.084  0.0158  0.2469  0.0084
   33MOL   C15611100   4.300   2.197   4.099  0.2885 -0.3243 -0.1955
   33MOL   C15711101   4.401   2.302   4.148 -0.6040 -0.1930  0.7065
   33MOL   C15811102   4.490   2.367   4.054  0.8427 -0.0788 -0.0084
   33MOL   C15911103   4.583   2.459   4.097 -0.2179 -0.2203 -0.2433
   33MOL   C16011104   4.572   2.507   4.230 -0.4453  0.5800  0.2303
   33MOL   C16111105   4.484   2.454   4.325 -0.0130 -0.3996 -0.4637
   33MOL   C16211106   4.396   2.348   4.284 -0.1054 -0.1413  0.4648
   33MOL   O16311107   4.229   2.252   3.978  0.4348 -0.1849 -0.4243
   33MOL   H16411108   4.294   2.002   4.027  0.9485  0.5390 -1.4624
   33MOL   H16511109   4.451   2.073   4.021 -0.9754  0.5972 -1.3547
   33MOL   H16611110   4.224   2.192   4.176  1.8519 -1.3066  1.3274
   33MOL   H16711111   4.499   2.337   3.951 -1.9147 -0.9237 -0.0328
   33MOL   H16811112   4.655   2.509   4.034 -1.2100 -1.0923 -2.0867
   33MOL   H16911113   4.646   2.580   4.260 -0.4025 -0.2285  2.1727
   33MOL   H17011114   4.485   2.499   4.423  0.7269  0.6107 -0.9115
   33MOL   H17111115   4.326   2.302   4.352 -0.8187 -1.7160 -1.2933
   33MOL   C17211116   4.152   2.366   3.984 -0.5708 -0.0737 -0.3112
   33MOL   C17311117   4.220   2.481   3.899  0.9368 -0.1687  0.2190
   33MOL   C17411118   4.137   2.607   3.897 -0.4485 -0.3889  0.3383
   33MOL   C17511119   4.024   2.616   3.822 -0.2047  0.1602 -0.1321
   33MOL   C17611120   3.935   2.724   3.835 -0.1382  0.1401 -0.6545
   33MOL   C17711121   3.959   2.824   3.931 -0.4247 -0.3530  0.4849
   33MOL   C17811122   4.076   2.806   4.009  0.2180 -0.1352 -0.3192
   33MOL   C17911123   4.163   2.702   3.997 -0.6700 -0.4394  0.5962
   33MOL   O18011124   4.231   2.429   3.763 -0.0522  0.0730  0.3489
   33MOL   H18111125   4.051   2.343   3.949 -1.4496  0.0546  2.0841
   33MOL   H18211126   4.152   2.394   4.089  2.0157 -1.9294  0.2320
   33MOL   H18311127   4.319   2.508   3.937  1.0642 -0.0286 -0.2120
   33MOL   H18411128   4.006   2.543   3.744 -1.1572  2.2096 -1.9090
   33MOL   H18511129   3.847   2.731   3.773 -0.9636  1.7827  0.6673
   33MOL   H18611130   3.896   2.911   3.946  0.3140  0.5864 -1.6729
   33MOL   H18711131   4.091   2.886   4.081 -1.8633 -0.6097  0.6845
   33MOL   H18811132   4.252   2.696   4.058 -1.9600  1.8564  2.8108
   33MOL   C18911133   4.327   2.500   3.687  0.0049 -0.5309 -0.0324
   33MOL   C19011134   4.291   2.477   3.535  0.1821 -0.2700 -0.3964
   33MOL   C19111135   4.383   2.566   3.443  0.5476 -0.1275  0.5005
   33MOL   C19211136   4.389   2.707   3.452  0.4379  0.1993  0.2841
   33MOL   C19311137   4.494   2.774   3.388 -1.0018 -0.3339 -0.1413
   33MOL   C19411138   4.590   2.709   3.309  0.0550 -0.1715 -0.1685
   33MOL   C19511139   4.577   2.570   3.291 -0.9040  0.4025  0.3449
   33MOL   C19611140   4.476   2.496   3.358  0.7391 -0.3160 -0.0252
   33MOL   O19711141   4.158   2.525   3.533  0.2125  0.2751  0.2581
   33MOL   H19811142   4.328   2.607   3.709 -0.5155 -1.0571  2.7471
   33MOL   H19911143   4.426   2.465   3.713  1.4745  2.3588 -1.4954
   33MOL   H20011144   4.303   2.370   3.515 -1.4682 -0.7950  1.3077
   33MOL   H20111145   4.320   2.763   3.513  0.7460  1.5568 -0.5961
   33MOL   H20211146   4.502   2.882   3.394 -0.2282 -0.5089  2.6676
   33MOL   H20311147   4.658   2.775   3.257  0.8500 -1.9200 -1.4396
   33MOL   H20411148   4.655   2.525   3.232 -1.3899 -0.7005  0.5437
   33MOL   H20511149   4.470   2.388   3.352 -1.6271 -0.3116  1.5796
   33MOL   C20611150   4.093   2.504   3.415  0.3473 -0.5041 -0.5485
   33MOL   C20711151   3.955   2.568   3.421 -0.0277  0.0657 -0.4458
   33MOL   C20811152   3.955   2.726   3.443 -0.0217  0.7866  0.5959
   33MOL   C20911153   3.841   2.795   3.484  0.3792  0.2371 -1.1010
   33MOL   C21011154   3.829   2.938   3.462  0.2894  0.2080  0.1392
   33MOL   C21111155   3.937   3.012   3.424  0.5047  0.0506 -0.3492
   33MOL   C21211156   4.058   2.948   3.398  0.3817  0.0846  0.4583
   33MOL   C21311157   4.067   2.806   3.404 -0.4263 -0.9540 -0.3357
   33MOL   O21411158   3.861   2.494   3.498  0.3844  0.1161 -0.9683
   33MOL   H21511159   4.153   2.539   3.330 -0.8025 -1.4508 -1.7668
   33MOL   H21611160   4.082   2.398   3.392 -1.4309 -0.4028 -0.2140
   33MOL   H21711161   3.904   2.546   3.327 -0.7217  1.6824 -0.4629
   33MOL   H21811162   3.759   2.741   3.528  0.6981  1.1368  0.6588
   33MOL   H21911163   3.733   2.986   3.474  0.7972  0.6619  2.4556
   33MOL   H22011164   3.925   3.118   3.403  2.4148  0.1929 -0.8046
   33MOL   H22111165   4.134   3.007   3.350  0.3982  0.3131  0.7669
   33MOL   H22211166   4.151   2.753   3.363 -0.8078 -1.0968 -0.9356
   33MOL   C22311167   3.879   2.354   3.527  0.6336 -1.0381 -0.3506
   33MOL   C22411168   3.754   2.299   3.592 -0.2755  0.2286 -0.6011
   33MOL   C22511169   3.715   2.385   3.713  0.1325  0.1136 -0.0766
   33MOL   C22611170   3.628   2.488   3.701  0.1099 -0.1383 -0.6675
   33MOL   C22711171   3.606   2.577   3.812  0.0646 -0.2708  0.0580
   33MOL   C22811172   3.662   2.547   3.935 -0.8028 -0.3460  0.1505
   33MOL   C22911173   3.758   2.446   3.948  0.8197  0.5232  0.6165
   33MOL   C23011174   3.781   2.362   3.838  0.1678  0.5900  0.0837
   33MOL   O23111175   3.662   2.275   3.485  0.2635 -0.1058 -0.4450
   33MOL   H23211176   3.888   2.304   3.431 -2.8099 -0.0991 -1.2254
   33MOL   H23311177   3.968   2.340   3.588  1.3913  0.1673 -1.1528
   33MOL   H23411178   3.770   2.197   3.625  0.2949  0.7684  0.8344
   33MOL   H23511179   3.573   2.510   3.611 -2.6371  0.5222  1.1156
   33MOL   H23611180   3.550   2.669   3.811 -1.8020 -1.3462  2.1507
   33MOL   H23711181   3.647   2.614   4.019  0.1194 -0.4458  0.3936
   33MOL   H23811182   3.818   2.437   4.037  0.0343  0.5011  1.1485
   33MOL   H23911183   3.851   2.281   3.849  1.4572  1.2744 -2.7421
   33MOL   C24011184   3.550   2.197   3.526 -0.3305 -0.3239 -0.8391
   33MOL   C24111185   3.431   2.202   3.431 -0.2242  0.6404  0.0457
   33MOL   C24211186   3.367   2.338   3.406 -0.3418  0.4628 -0.0689
   33MOL   C24311187   3.427   2.426   3.321 -0.0529 -0.3217 -0.6087
   33MOL   C24411188   3.380   2.564   3.316 -0.0301  0.2963 -0.1674
   33MOL   C24511189   3.272   2.607   3.392  0.1602 -0.2900 -0.0328
   33MOL   C24611190   3.202   2.509   3.461  0.3429  0.0037 -0.5995
   33MOL   C24711191   3.250   2.380   3.471 -0.0455  0.3733 -0.3804
   33MOL   O24811192   3.460   2.136   3.302  0.2751 -0.8311 -0.1008
   33MOL   H24911193   3.581   2.096   3.553 -1.3525 -0.2923  0.4914
   33MOL   H25011194   3.506   2.240   3.615  0.7495 -0.5427 -0.1878
   33MOL   H25111195   3.358   2.143   3.485 -2.0189  3.1196  0.4016
   33MOL   H25211196   3.507   2.386   3.260  2.1582  1.6175  0.9604
   33MOL   H25311197   3.425   2.630   3.243  0.4054  0.5840  0.3574
   33MOL   H25411198   3.218   2.698   3.371 -4.1847 -2.4827  1.0235
   33MOL   H25511199   3.106   2.533   3.505  1.3232  1.2433  0.9205
   33MOL   H25611200   3.199   2.301   3.524 -1.2145  1.2443 -0.1678
   33MOL   C25711201   3.336   2.108   3.229 -0.6840 -0.0332  0.2946
   33MOL   C25811202   3.349   1.990   3.139  0.3891 -0.4935  0.6390
   33MOL   C25911203   3.262   2.024   3.014 -0.6924  0.7394 -0.9276
   33MOL   C26011204   3.311   2.092   2.897 -0.4520  0.3352 -0.2722
   33MOL   C26111205   3.227   2.111   2.788  0.3798 -0.0103 -0.1663
   33MOL   C26211206   3.090   2.087   2.796  0.4371  0.6067 -0.7027
   33MOL   C26311207   3.041   2.025   2.915 -0.4308  0.5651  0.3549
   33MOL   C26411208   3.124   1.997   3.023 -0.6045 -0.3429 -0.6682
   33MOL   O26511209   3.296   1.878   3.222  0.0267  0.5244  0.4485
   33MOL   H26611210   3.323   2.197   3.167 -0.1601  1.7674  2.7202
   33MOL   H26711211   3.252   2.101   3.297  0.9430 -0.0835  2.3317
   33MOL   H26811212   3.454   1.967   3.117  0.0765 -0.6585 -0.7408
   33MOL   H26911213   3.413   2.126   2.891 -0.0556 -0.5370  1.2721
   33MOL   H27011214   3.264   2.159   2.698  0.2548  1.0857  0.3597
   33MOL   H27111215   3.029   2.096   2.707 -0.2022 -2.6476 -0.6769
   33MOL   H27211216   2.934   2.018   2.910 -0.2592 -1.3202 -0.7947
   33MOL   H27311217   3.087   1.960   3.117 -2.6001 -0.3943 -1.4626
   33MOL   C27411218   3.313   1.749   3.159 -0.5199 -0.2635 -0.5282
   33MOL   C27511219   3.232   1.644   3.236  0.4071 -0.2554  0.5374
   33MOL   C27611220   3.244   1.498   3.189 -0.0397 -0.2104  0.2999
   33MOL   C27711221   3.167   1.446   3.082 -0.0041 -0.1621 -0.5426
   33MOL   C27811222   3.191   1.316   3.043  0.1599  1.0026 -0.1024
   33MOL   C27911223   3.293   1.243   3.104 -0.9298  0.7093 -0.6890
   33MOL   C28011224   3.383   1.304   3.190 -0.5596  0.2665 -0.2382
   33MOL   C28111225   3.357   1.429   3.242  0.5151 -0.0740  0.3928
   33MOL   O28211226   3.089   1.688   3.239 -0.6141 -0.0998 -0.7942
   33MOL   H28311227   3.283   1.741   3.055 -0.3082 -0.2548 -0.5920
   33MOL   H28411228   3.420   1.726   3.163 -0.8165 -1.9173 -1.7840
   33MOL   H28511229   3.264   1.648   3.340 -1.5522  2.1962  1.0779
   33MOL   H28611230   3.088   1.502   3.035  0.0083 -0.1795 -0.5845
   33MOL   H28711231   3.121   1.271   2.975 -1.1458  1.4434  0.9265
   33MOL   H28811232   3.300   1.137   3.084 -0.2446  0.8389 -1.1485
   33MOL   H28911233   3.480   1.258   3.206 -0.3404  0.1701 -1.7234
   33MOL   H29011234   3.431   1.482   3.301 -1.1633  2.5802  0.1629
   33MOL   C29111235   3.010   1.631   3.349  0.2700 -0.0162 -0.2195
   33MOL   C29211236   3.017   1.694   3.489  0.0451  0.4098  0.2324
   33MOL   C29311237   2.959   1.834   3.506  0.1290 -0.3122  0.3089
   33MOL   C29411238   3.000   1.937   3.422  0.1773 -0.4903  0.0641
   33MOL   C29511239   2.955   2.070   3.443 -1.1740 -0.3595 -0.1824
   33MOL   C29611240   2.857   2.097   3.540 -0.4530 -0.0392  0.7287
   33MOL   C29711241   2.817   1.991   3.626  0.4764 -0.5201  0.9680
   33MOL   C29811242   2.870   1.864   3.609 -0.1689  0.9438  0.2728
   33MOL   O29911243   2.987   1.607   3.602  0.1155 -0.0623 -0.2723
   33MOL   H30011244   3.049   1.530   3.358  1.7399  0.6599  1.2457
   33MOL   H30111245   2.903   1.630   3.327  0.4636  0.4228 -1.2080
   33MOL   H30211246   3.124   1.702   3.506 -0.3253  0.7276  2.6025
   33MOL   H30311247   3.063   1.921   3.336  0.3958  1.5843 -0.1887
   33MOL   H30411248   2.982   2.149   3.375 -2.1450  0.5066  0.4119
   33MOL   H30511249   2.817   2.196   3.560  0.9576  0.7511 -0.2843
   33MOL   H30611250   2.759   2.012   3.714 -0.2713 -1.4699  0.7100
   33MOL   H30711251   2.834   1.788   3.677  0.1155  1.6104  1.1849
   33MOL   C30811252   3.081   1.504   3.623  0.4615  0.3426  0.7691
   33MOL   C30911253   3.184   1.543   3.727 -0.0801  1.1782  0.4323
   33MOL   C31011254   3.117   1.579   3.861 -0.0597 -0.4890 -0.0918
   33MOL   C31111255   3.089   1.473   3.957 -0.1878 -0.2751  0.0118
   33MOL   C31211256   3.029   1.504   4.084 -0.4427 -0.1267 -0.5891
   33MOL   C31311257   2.977   1.638   4.105  0.6255  0.7746  0.2743
   33MOL   C31411258   2.988   1.733   4.000 -0.2603  0.3146 -0.0169
   33MOL   C31511259   3.060   1.706   3.883 -0.5949  0.5510  0.3571
   33MOL   O31611260   3.278   1.434   3.729 -0.5821 -0.8000  0.2740
   33MOL   H31711261   3.150   1.491   3.540  0.4790 -1.1129  1.0026
   33MOL   H31811262   3.021   1.417   3.648 -2.2481  1.3888 -1.8409
   33MOL   H31911263   3.234   1.632   3.689  0.6331  0.6467  0.1047
   33MOL   H32011264   3.115   1.373   3.926  0.3755  0.7676 -3.0491
   33MOL   H32111265   3.044   1.443   4.172 -1.7278 -0.6454 -0.7186
   33MOL   H32211266   2.918   1.659   4.194  0.0201  0.2947 -0.0087
   33MOL   H32311267   2.955   1.835   4.014 -0.8415  0.1753 -0.3315
   33MOL   H32411268   3.079   1.784   3.811 -0.8715  0.1282 -0.1773
   33MOL   C32511269   3.389   1.435   3.816  0.3629  0.0236  0.2535
   33MOL   C32611270   3.467   1.300   3.807 -0.5200 -0.0593 -0.5554
   33MOL   C32711271   3.381   1.191   3.867  0.4248  0.4584 -0.3069
   33MOL   C32811272   3.282   1.125   3.800 -0.1855  0.4169 -0.0232
   33MOL   C32911273   3.202   1.027   3.866 -0.2187  0.1183  0.1227
   33MOL   C33011274   3.227   0.995   4.002 -0.1667 -0.2661 -0.2125
   33MOL   C33111275   3.321   1.066   4.073  0.5693  0.2644 -0.2173
   33MOL   C33211276   3.397   1.159   4.003  0.1184  0.3147 -0.0292
   33MOL   O33311277   3.490   1.291   3.669 -0.1371  0.0101  0.4023
   33MOL   H33411278   3.351   1.448   3.917  1.2699 -0.2002  0.6304
   33MOL   H33511279   3.434   1.531   3.790 -0.8400  1.5678  3.5394
   33MOL   H33611280   3.560   1.309   3.863  0.8746  1.7917 -3.0183
   33MOL   H33711281   3.256   1.139   3.696 -0.5401  0.4222  0.0646
   33MOL   H33811282   3.126   0.975   3.810 -0.1719  1.6695 -1.4524
   33MOL   H33911283   3.165   0.918   4.046 -0.9544  0.5118  0.0387
   33MOL   H34011284   3.326   1.054   4.180  0.0807  0.5372 -0.1640
   33MOL   H34111285   3.468   1.221   4.055  1.4587 -0.4197 -0.9766
   33MOL   H34211286   3.409   1.314   3.628  0.5289  3.1174  0.7306
   34MOL     C111287   7.073   3.866   0.448 -0.2356  0.1657  0.0678
   34MOL     C211288   6.970   3.837   0.565  0.1774  0.2120 -0.2515
   34MOL     C311289   6.853   3.758   0.514  0.0634  0.1150 -0.1016
   34MOL     C411290   6.729   3.817   0.492  0.1252 -0.0937  0.1696
   34MOL     C511291   6.625   3.737   0.427 -0.2354  0.4302 -0.1127
   34MOL     C611292   6.646   3.600   0.398 -0.1838 -0.5423 -0.1658
   34MOL     C711293   6.772   3.537   0.427  0.2023 -0.3904  0.1631
   34MOL     C811294   6.875   3.615   0.481  0.2347  0.4277 -0.1077
   34MOL     O911295   6.936   3.944   0.644 -0.1503 -0.2632  0.2722
   34MOL    H1011296   7.083   3.782   0.378  0.2438  0.3472 -0.0812
   34MOL    H1111297   7.042   3.947   0.382  0.4354 -0.0953 -0.5713
   34MOL    H1211298   7.033   3.773   0.628  1.3302  2.7194  1.2071
   34MOL    H1311299   6.716   3.922   0.513  0.4779 -0.1381  0.6187
   34MOL    H1411300   6.533   3.791   0.411 -0.3482  1.1832  2.8644
   34MOL    H1511301   6.574   3.541   0.343 -1.1479  1.0008 -0.6193
   34MOL    H1611302   6.785   3.436   0.391 -4.0431 -1.5979  1.6759
   34MOL    H1711303   6.971   3.566   0.482 -0.5299 -1.1325 -0.5652
   34MOL    H1811304   7.169   3.884   0.496 -0.9217  1.0021  1.1295
   34MOL    C1911305   7.050   4.013   0.706 -0.1151  0.0261  0.4443
   34MOL    C2011306   7.091   4.138   0.626 -0.3746 -0.6734  0.1940
   34MOL    C2111307   7.232   4.191   0.656  0.2968  0.4160  0.2307
   34MOL    C2211308   7.345   4.105   0.641 -0.4116 -0.4144  0.1751
   34MOL    C2311309   7.478   4.161   0.668  0.7703  0.0426 -0.2919
   34MOL    C2411310   7.493   4.291   0.718  0.0567  0.2409 -0.2841
   34MOL    C2511311   7.377   4.370   0.729 -0.5426 -0.3432 -0.5217
   34MOL    C2611312   7.252   4.322   0.699  1.1713  0.8657  0.1075
   34MOL    O2711313   6.997   4.235   0.664  0.4016 -0.5932 -0.1095
   34MOL    H2811314   7.017   4.037   0.807  1.0399 -0.5925  0.9714
   34MOL    H2911315   7.132   3.942   0.716 -1.2920 -1.4149  0.0009
   34MOL    H3011316   7.090   4.118   0.519  0.3018 -0.1947  0.0917
   34MOL    H3111317   7.340   4.001   0.613 -1.9596 -0.5342  0.8254
   34MOL    H3211318   7.563   4.094   0.656  0.8667 -0.1798  1.5889
   34MOL    H3311319   7.593   4.328   0.733  0.0132 -0.3412  1.6389
   34MOL    H3411320   7.387   4.469   0.770  0.9153 -0.0344 -1.5722
   34MOL    H3511321   7.166   4.382   0.726  0.4141 -0.7360  1.3687
   34MOL    C3611322   6.872   4.242   0.592 -0.0479  0.1862 -0.3731
   34MOL    C3711323   6.891   4.309   0.459 -0.1258  0.4360 -0.3533
   34MOL    C3811324   6.911   4.461   0.476  0.5887  0.0103 -0.4305
   34MOL    C3911325   7.044   4.517   0.463  0.7197 -0.1119 -0.5707
   34MOL    C4011326   7.061   4.654   0.487 -0.4868  0.0196 -0.2064
   34MOL    C4111327   6.949   4.734   0.511 -0.9294  0.6974  0.8602
   34MOL    C4211328   6.822   4.679   0.531 -0.2130 -0.3454 -0.5395
   34MOL    C4311329   6.796   4.545   0.506  0.5823  0.3963  0.0394
   34MOL    O4411330   6.784   4.269   0.378 -0.4006  0.5611 -0.2287
   34MOL    H4511331   6.833   4.141   0.580  0.4055  0.1543 -1.6013
   34MOL    H4611332   6.788   4.291   0.642  0.8394 -0.3741  1.7555
   34MOL    H4711333   6.986   4.275   0.420  0.7061  1.4380  0.7622
   34MOL    H4811334   7.128   4.455   0.434  0.8606 -0.8535  1.3565
   34MOL    H4911335   7.156   4.703   0.472 -1.4313  1.4027 -1.6965
   34MOL    H5011336   6.964   4.841   0.511  0.7517  0.4828  1.0426
   34MOL    H5111337   6.736   4.740   0.557  0.5481  0.2176  0.7014
   34MOL    H5211338   6.700   4.498   0.522  0.0846  1.6459  0.7857
   34MOL    C5311339   6.810   4.147   0.310 -0.1239 -0.0942 -0.4188
   34MOL    C5411340   6.687   4.111   0.222  0.1193 -0.4851 -0.4501
   34MOL    C5511341   6.706   4.000   0.118 -0.1723 -0.4451  0.5348
   34MOL    C5611342   6.597   3.923   0.074  0.5791 -0.1921 -0.1706
   34MOL    C5711343   6.609   3.841   8.041  0.0178  0.1578 -0.6236
   34MOL    C5811344   6.730   3.829   7.976  0.6914  0.8824 -0.1854
   34MOL    C5911345   6.842   3.894   8.018 -0.3421 -0.7285  0.3275
   34MOL    C6011346   6.830   3.977   0.054 -0.0524  0.0125  0.6017
   34MOL    O6111347   6.571   4.092   0.300  0.2011 -0.6558  0.3942
   34MOL    H6211348   6.898   4.151   0.246  0.6452  0.3853  0.6574
   34MOL    H6311349   6.817   4.064   0.380 -1.8177 -0.5701 -0.7860
   34MOL    H6411350   6.669   4.197   0.158  2.5368  0.5090  0.1127
   34MOL    H6511351   6.500   3.923   0.120  0.6283  2.4216 -0.0020
   34MOL    H6611352   6.526   3.792   7.993 -0.7021  1.6586 -0.9356
   34MOL    H6711353   6.733   3.770   7.886  1.4182  0.2482  0.2481
   34MOL    H6811354   6.927   3.896   7.952  1.5026  0.2051  2.6461
   34MOL    H6911355   6.918   4.037   0.070  0.7705 -0.7044 -1.0939
   34MOL    C7011356   6.465   4.187   0.295  0.6950 -0.3677 -0.4804
   34MOL    C7111357   6.366   4.160   0.416  0.3771 -0.0904  0.2597
   34MOL    C7211358   6.422   4.196   0.552 -0.6053  0.4556  0.4844
   34MOL    C7311359   6.488   4.095   0.624  0.0793  0.4751  0.1954
   34MOL    C7411360   6.539   4.119   0.749  0.3548  0.5189 -0.2700
   34MOL    C7511361   6.539   4.250   0.803  0.0100  0.4521 -0.1326
   34MOL    C7611362   6.478   4.352   0.726 -0.2407  0.8628  0.9879
   34MOL    C7711363   6.408   4.324   0.608  0.2067  0.1887  0.2371
   34MOL    O7811364   6.311   4.028   0.422  0.4339  0.3145  0.6149
   34MOL    H7911365   6.491   4.293   0.299 -1.8558  0.2889 -0.5749
   34MOL    H8011366   6.408   4.172   0.204 -0.3556 -0.5353  0.1934
   34MOL    H8111367   6.281   4.228   0.405  1.3293  0.9662 -0.6218
   34MOL    H8211368   6.501   3.998   0.580 -2.1216 -0.2510  1.0793
   34MOL    H8311369   6.598   4.050   0.806 -1.5133 -2.4273 -1.7877
   34MOL    H8411370   6.595   4.261   0.895  0.0447 -0.8834  0.0137
   34MOL    H8511371   6.480   4.454   0.762 -0.0241  1.2470 -0.0814
   34MOL    H8611372   6.372   4.412   0.556 -0.6044  1.2459  2.5189
   34MOL    C8711373   6.197   4.011   0.508  0.5574 -0.7349  0.1535
   34MOL    C8811374   6.154   3.857   0.513 -0.0209  0.0882  0.3066
   34MOL    C8911375   6.020   3.837   0.589 -0.6857 -0.1630  0.1239
   34MOL    C9011376   5.909   3.807   0.504 -0.4215  0.3415 -0.0489
   34MOL    C9111377   5.791   3.758   0.564 -0.8490  0.3339 -0.3214
   34MOL    C9211378   5.774   3.760   0.706  0.2682 -0.8904 -0.6116
   34MOL    C9311379   5.885   3.798   0.790  0.9388  0.1682 -0.4196
   34MOL    C9411380   6.006   3.839   0.727 -0.5765  0.7102 -1.6001
   34MOL    O9511381   6.256   3.784   0.590 -0.0472  0.0010 -0.2673
   34MOL    H9611382   6.114   4.056   0.453  1.2952  0.1500 -0.2414
   34MOL    H9711383   6.205   4.063   0.603 -1.6539  0.6449 -0.3825
   34MOL    H9811384   6.166   3.815   0.414 -1.0732 -0.6661  0.4869
   34MOL    H9911385   5.916   3.799   0.397 -1.1672 -0.3807 -0.0554
   34MOL   H10011386   5.702   3.748   0.504 -0.4263  3.2733 -1.5128
   34MOL   H10111387   5.678   3.723   0.740  1.2049 -1.1539  1.8275
   34MOL   H10211388   5.867   3.803   0.897  2.8581  1.8696 -0.1495
   34MOL   H10311389   6.085   3.873   0.792 -0.4446  1.6036 -2.2270
   34MOL   C10411390   6.251   3.641   0.579  0.0179 -0.1408  0.0217
   34MOL   C10511391   6.361   3.569   0.644  0.3018 -0.1134 -0.6470
   34MOL   C10611392   6.368   3.594   0.800 -0.5777  0.0691 -0.3295
   34MOL   C10711393   6.422   3.718   0.842 -0.9540 -0.0693  0.0499
   34MOL   C10811394   6.434   3.754   0.978  0.7766  0.9943  0.8966
   34MOL   C10911395   6.393   3.657   1.077  0.2332 -0.2193  0.2232
   34MOL   C11011396   6.350   3.533   1.039  0.5494  0.4849 -0.3275
   34MOL   C11111397   6.334   3.501   0.899 -0.0877 -0.1628  0.2910
   34MOL   O11211398   6.366   3.433   0.598 -0.4570 -0.6778 -0.1068
   34MOL   H11311399   6.154   3.612   0.620  0.4511  0.5604  1.5856
   34MOL   H11411400   6.249   3.619   0.473  0.7298 -0.7381  0.1296
   34MOL   H11511401   6.448   3.627   0.614 -1.5922  2.1987 -1.7642
   34MOL   H11611402   6.446   3.787   0.763  2.6213 -2.7412 -1.3249
   34MOL   H11711403   6.470   3.853   0.999  0.5225  1.4413 -0.7349
   34MOL   H11811404   6.397   3.680   1.183 -0.2995  0.2078  0.1548
   34MOL   H11911405   6.336   3.464   1.121  0.2473  2.4144  1.2879
   34MOL   H12011406   6.279   3.413   0.872  0.2425 -0.1215 -0.5423
   34MOL   C12111407   6.492   3.368   0.627 -0.2872  0.5924 -0.6434
   34MOL   C12211408   6.494   3.219   0.587  0.0370  0.4792 -0.0133
   34MOL   C12311409   6.637   3.163   0.578 -0.3700 -0.0300 -0.5404
   34MOL   C12411410   6.698   3.166   0.452 -0.7323  0.0427 -0.1008
   34MOL   C12511411   6.837   3.131   0.434  0.0559  0.3844 -0.3237
   34MOL   C12611412   6.906   3.097   0.550  0.0892  1.0746 -0.8417
   34MOL   C12711413   6.845   3.093   0.682 -0.2400 -0.1017  0.0628
   34MOL   C12811414   6.709   3.124   0.693 -0.5630  0.0171 -0.8027
   34MOL   O12911415   6.415   3.156   0.687  0.3758 -0.1719 -0.1057
   34MOL   H13011416   6.525   3.379   0.730 -0.4323 -1.3512 -0.3683
   34MOL   H13111417   6.569   3.410   0.563 -0.9182  0.5163 -1.4705
   34MOL   H13211418   6.451   3.193   0.491 -2.4830 -2.0118  1.7090
   34MOL   H13311419   6.636   3.194   0.368  0.0831 -1.0976 -1.0938
   34MOL   H13411420   6.884   3.119   0.338  1.6516  0.2714  0.4647
   34MOL   H13511421   7.009   3.065   0.540  0.0086  0.9416 -1.2335
   34MOL   H13611422   6.906   3.066   0.767  1.4744 -0.4722 -1.2657
   34MOL   H13711423   6.661   3.114   0.789  3.9429 -1.7480  1.3628
   34MOL   C13811424   6.396   3.022   0.659 -0.3889  0.3796  0.2468
   34MOL   C13911425   6.263   2.973   0.718 -0.2528 -0.0404 -0.2202
   34MOL   C14011426   6.261   2.957   0.867 -0.3020 -0.1199  0.1636
   34MOL   C14111427   6.305   2.835   0.915 -0.0336 -0.3015  0.2238
   34MOL   C14211428   6.307   2.813   1.056 -0.1361 -0.6245 -0.2045
   34MOL   C14311429   6.257   2.924   1.139 -0.6592  0.4471  0.1035
   34MOL   C14411430   6.223   3.050   1.083 -0.4455  0.4762 -0.7490
   34MOL   C14511431   6.233   3.070   0.944  0.9198 -0.5880  0.4533
   34MOL   O14611432   6.165   3.056   0.667  0.3589 -0.4535  0.2260
   34MOL   H14711433   6.477   2.960   0.696 -0.5092  0.4140  0.5685
   34MOL   H14811434   6.384   3.016   0.551  2.1236  1.9488 -0.1697
   34MOL   H14911435   6.239   2.880   0.665  0.7453 -0.4890  0.1016
   34MOL   H15011436   6.315   2.756   0.842 -0.7111 -1.9603  1.8943
   34MOL   H15111437   6.347   2.731   1.113 -3.0404 -0.1418  2.6793
   34MOL   H15211438   6.260   2.918   1.247  0.4018  3.2783  0.2792
   34MOL   H15311439   6.195   3.132   1.147  1.0035 -0.1093  0.6621
   34MOL   H15411440   6.202   3.164   0.902 -0.6346 -0.6358  1.4389
   34MOL   C15511441   6.029   3.025   0.673  0.2718  0.7428  0.4690
   34MOL   C15611442   5.945   3.153   0.688 -0.9662  0.2147 -0.0012
   34MOL   C15711443   5.958   3.253   0.569  0.3516 -0.1613 -0.1126
   34MOL   C15811444   6.078   3.312   0.529 -0.4291 -0.2201 -0.2356
   34MOL   C15911445   6.088   3.396   0.413  0.6673 -0.0565 -0.4242
   34MOL   C16011446   5.971   3.417   0.333 -0.1887  0.0843  0.0799
   34MOL   C16111447   5.844   3.366   0.380 -0.2124 -0.4801 -0.6625
   34MOL   C16211448   5.842   3.277   0.494 -0.1571  0.6189 -0.0044
   34MOL   O16311449   5.806   3.104   0.711  0.1377 -0.2671  0.0611
   34MOL   H16411450   6.019   2.968   0.766  0.0478 -2.5732 -1.5068
   34MOL   H16511451   5.996   2.962   0.590  0.3672 -0.6739  1.4742
   34MOL   H16611452   5.990   3.205   0.773  2.2942  2.1153 -2.7939
   34MOL   H16711453   6.164   3.292   0.591 -1.6235  0.5101  1.6942
   34MOL   H16811454   6.184   3.433   0.379  0.8536  1.7440  1.9551
   34MOL   H16911455   5.968   3.491   0.255 -0.7557 -0.2386 -0.2077
   34MOL   H17011456   5.755   3.399   0.329 -1.0433 -0.5867  0.7020
   34MOL   H17111457   5.751   3.226   0.523  0.5448 -0.6271  0.0333
   34MOL   C17211458   5.724   3.175   0.806 -0.3442 -0.3054 -0.5978
   34MOL   C17311459   5.579   3.132   0.812 -0.3848 -0.5049  0.9880
   34MOL   C17411460   5.505   3.165   0.686  0.2963 -0.3054 -0.1679
   34MOL   C17511461   5.486   3.298   0.651 -0.3017  0.3910 -0.7453
   34MOL   C17611462   5.412   3.335   0.536  0.6495  0.2980  0.0331
   34MOL   C17711463   5.352   3.235   0.454  0.2311 -0.3281  0.0940
   34MOL   C17811464   5.384   3.103   0.482 -0.7066  0.3289 -0.6112
   34MOL   C17911465   5.462   3.067   0.597 -0.3050 -0.2065 -0.4882
   34MOL   O18011466   5.525   3.197   0.927 -0.6945 -0.1406 -0.0530
   34MOL   H18111467   5.764   3.159   0.906  0.4991  0.0220 -0.8820
   34MOL   H18211468   5.726   3.283   0.788 -0.5309 -0.1459  0.2894
   34MOL   H18311469   5.583   3.023   0.819  1.8774 -0.5219 -0.2494
   34MOL   H18411470   5.519   3.373   0.721 -0.4669  0.1272 -0.3800
   34MOL   H18511471   5.408   3.440   0.511  1.1094  0.3975  0.3601
   34MOL   H18611472   5.283   3.263   0.376 -0.0642 -0.8867  0.1513
   34MOL   H18711473   5.343   3.020   0.426  0.8119 -0.3397 -0.7666
   34MOL   H18811474   5.483   2.966   0.630 -0.8346  0.0668  0.7116
   34MOL   C18911475   5.428   3.109   0.980  1.0755  0.3593 -0.0548
   34MOL   C19011476   5.376   3.178   1.110  1.7111 -0.0455 -0.1773
   34MOL   C19111477   5.295   3.073   1.185 -0.5302 -0.7596  0.6007
   34MOL   C19211478   5.349   3.001   1.292  0.0322  0.1312  0.4636
   34MOL   C19311479   5.276   2.900   1.355  0.1926  0.4638 -0.0416
   34MOL   C19411480   5.147   2.868   1.313  0.2778  0.3284 -0.1540
   34MOL   C19511481   5.089   2.945   1.202 -0.4918 -0.1879 -0.6722
   34MOL   C19611482   5.162   3.043   1.132 -1.2468 -1.1405  0.2843
   34MOL   O19711483   5.304   3.295   1.083  0.2739 -0.2966  0.1342
   34MOL   H19811484   5.345   3.085   0.914  1.1014  2.7026 -1.0027
   34MOL   H19911485   5.466   3.009   1.001  1.1495 -0.1840 -2.5890
   34MOL   H20011486   5.462   3.211   1.168  1.3522  0.9234 -0.1774
   34MOL   H20111487   5.445   3.030   1.331 -0.8436  0.4473  2.4439
   34MOL   H20211488   5.333   2.844   1.428 -0.4024 -0.6570 -0.4281
   34MOL   H20311489   5.099   2.778   1.350 -0.7321  0.8308 -0.2261
   34MOL   H20411490   5.001   2.906   1.152  0.0605 -1.1796 -0.8802
   34MOL   H20511491   5.116   3.096   1.050  1.4310  2.4396  0.9512
   34MOL   C20611492   5.310   3.405   1.175  0.1594 -0.1085 -0.4355
   34MOL   C20711493   5.236   3.373   1.310 -0.5773 -0.0893  0.0391
   34MOL   C20811494   5.171   3.499   1.364  0.8573 -0.0025 -0.0447
   34MOL   C20911495   5.257   3.592   1.431 -0.4583 -0.1308  0.8030
   34MOL   C21011496   5.200   3.700   1.502  0.4830 -0.6653  0.2485
   34MOL   C21111497   5.056   3.712   1.500 -0.2795  0.2414  0.1193
   34MOL   C21211498   4.973   3.627   1.426  0.4390  0.1418 -0.6671
   34MOL   C21311499   5.033   3.526   1.351 -0.1529 -0.3391  0.4907
   34MOL   O21411500   5.337   3.313   1.389  0.0282  0.1007 -0.4605
   34MOL   H21511501   5.413   3.436   1.194  0.5460 -1.5350 -0.1359
   34MOL   H21611502   5.261   3.479   1.112  1.3747  0.0708 -1.2016
   34MOL   H21711503   5.157   3.300   1.287 -0.9854  0.1999  0.5155
   34MOL   H21811504   5.363   3.570   1.432 -0.9516 -2.6354  0.6508
   34MOL   H21911505   5.253   3.775   1.559  0.6723  0.7916 -1.7702
   34MOL   H22011506   5.009   3.796   1.549  0.6826  0.9038 -0.0880
   34MOL   H22111507   4.868   3.649   1.434  0.2896 -0.7737  0.0911
   34MOL   H22211508   4.971   3.448   1.308  0.9617 -3.1018  3.6884
   34MOL   C22311509   5.287   3.248   1.507  0.1702  0.6685 -0.1871
   34MOL   C22411510   5.405   3.216   1.600  0.5319 -0.2906 -0.2177
   34MOL   C22511511   5.480   3.335   1.655  0.6965 -0.1948  0.1532
   34MOL   C22611512   5.547   3.429   1.575 -0.1872 -0.0971 -0.0256
   34MOL   C22711513   5.594   3.552   1.629 -0.2331  0.3497  0.6633
   34MOL   C22811514   5.586   3.579   1.770 -0.0783 -0.9030  0.3310
   34MOL   C22911515   5.520   3.484   1.847 -0.2554  0.8044 -0.0049
   34MOL   C23011516   5.475   3.365   1.791 -0.2821 -0.2918  0.0358
   34MOL   O23111517   5.354   3.122   1.700  0.5608 -0.1394  0.6031
   34MOL   H23211518   5.214   3.313   1.555 -0.1668 -1.2318  1.9343
   34MOL   H23311519   5.227   3.161   1.482  0.5989 -0.1146  1.4092
   34MOL   H23411520   5.486   3.164   1.548 -1.2024 -3.1292 -0.2339
   34MOL   H23511521   5.551   3.415   1.468  0.3162 -0.6820  0.0706
   34MOL   H23611522   5.640   3.618   1.557  1.7519 -2.3628 -0.6068
   34MOL   H23711523   5.613   3.668   1.825  2.7413 -1.1244 -0.5969
   34MOL   H23811524   5.514   3.489   1.955  0.5009  0.7290  0.0420
   34MOL   H23911525   5.415   3.296   1.849 -0.0208 -0.6695 -0.1387
   34MOL   C24011526   5.423   3.003   1.710 -0.3021 -0.5469  0.4586
   34MOL   C24111527   5.370   2.926   1.830  0.1071  0.4199  1.2806
   34MOL   C24211528   5.436   2.782   1.842  0.2586 -0.6557  0.6196
   34MOL   C24311529   5.362   2.663   1.807 -0.4382 -0.3924 -0.4816
   34MOL   C24411530   5.418   2.532   1.815 -0.3514 -0.3368  0.1761
   34MOL   C24511531   5.548   2.525   1.862  0.2598 -0.4090 -0.1432
   34MOL   C24611532   5.627   2.638   1.890  0.2746 -0.9575 -0.5409
   34MOL   C24711533   5.575   2.768   1.881  0.0861 -0.3484 -0.4306
   34MOL   O24811534   5.388   3.000   1.947  0.1749 -0.0504 -0.1414
   34MOL   H24911535   5.416   2.942   1.619 -0.3975  1.6870 -1.0711
   34MOL   H25011536   5.531   3.020   1.719 -0.2949  0.0733 -0.6733
   34MOL   H25111537   5.263   2.915   1.817  0.3429 -1.1119  0.4688
   34MOL   H25211538   5.256   2.667   1.789 -0.7966  0.6824  1.6553
   34MOL   H25311539   5.357   2.444   1.802  1.2427 -1.7542  2.1144
   34MOL   H25411540   5.591   2.427   1.879  0.6025 -0.4920 -1.4026
   34MOL   H25511541   5.726   2.615   1.928  0.6242  2.2033  0.5525
   34MOL   H25611542   5.639   2.851   1.906 -1.2955  0.3986  0.6716
   34MOL   C25711543   5.300   2.970   2.052  1.1549  0.0276 -1.0556
   34MOL   C25811544   5.307   3.072   2.166 -0.0911  0.4125 -1.0694
   34MOL   C25911545   5.434   3.065   2.247 -0.0239 -0.7162  0.2370
   34MOL   C26011546   5.432   3.014   2.376  0.1345  0.0493 -0.7993
   34MOL   C26111547   5.554   3.001   2.447 -0.1478 -0.0134 -0.2062
   34MOL   C26211548   5.676   3.034   2.395 -0.3744  0.1938 -0.2394
   34MOL   C26311549   5.677   3.072   2.264  0.0296 -0.0458  0.5376
   34MOL   C26411550   5.560   3.080   2.188 -0.6169 -0.6800  0.3449
   34MOL   O26511551   5.184   3.073   2.242  0.1592  0.4725  0.3577
   34MOL   H26611552   5.319   2.870   2.091  0.6098  0.6758  0.9405
   34MOL   H26711553   5.196   2.971   2.019  0.4416 -0.1837  1.0588
   34MOL   H26811554   5.316   3.178   2.140 -0.6485  0.9882  0.9567
   34MOL   H26911555   5.332   2.987   2.405  0.2792  1.8252  1.4706
   34MOL   H27011556   5.544   2.969   2.550  3.2718  1.8525  0.8011
   34MOL   H27111557   5.765   3.008   2.449  0.0831  2.2476  0.0369
   34MOL   H27211558   5.771   3.091   2.215 -0.5773  1.9722  0.0762
   34MOL   H27311559   5.559   3.107   2.083 -1.3299 -0.3864  0.4237
   34MOL   C27411560   5.152   3.188   2.315 -0.2779  0.2372  0.1872
   34MOL   C27511561   5.029   3.166   2.409 -0.2111  0.0855  0.2032
   34MOL   C27611562   4.987   3.295   2.472  0.0788 -0.3961  0.0770
   34MOL   C27711563   5.075   3.390   2.525 -0.0541  0.5295 -0.0181
   34MOL   C27811564   5.038   3.518   2.565 -0.1276  0.0054 -0.3657
   34MOL   C27911565   4.902   3.550   2.571 -0.1783 -0.0111  0.0049
   34MOL   C28011566   4.813   3.455   2.517 -0.0492  0.0408 -0.3663
   34MOL   C28111567   4.852   3.334   2.464 -1.1114  0.2633 -0.5219
   34MOL   O28211568   5.056   3.071   2.513  0.0058  0.4106 -0.3880
   34MOL   H28311569   5.241   3.196   2.377  1.9813 -2.9903 -2.4488
   34MOL   H28411570   5.139   3.275   2.251  0.0272  0.6232  0.6423
   34MOL   H28511571   4.945   3.132   2.348 -1.9841  2.0879  1.4773
   34MOL   H28611572   5.179   3.362   2.522 -0.0760  0.4612 -0.1586
   34MOL   H28711573   5.109   3.590   2.603 -1.9595  1.9934 -0.6133
   34MOL   H28811574   4.877   3.650   2.603  1.6264  0.3797  0.2065
   34MOL   H28911575   4.711   3.490   2.517  0.8402  2.7723  0.1402
   34MOL   H29011576   4.774   3.276   2.418 -0.3617 -1.3707  0.2421
   34MOL   C29111577   4.946   3.003   2.570  0.7848  0.8018 -0.4394
   34MOL   C29211578   5.002   2.881   2.657  0.4289 -0.6253  0.6483
   34MOL   C29311579   4.893   2.827   2.752  0.1669  0.4485 -0.1817
   34MOL   C29411580   4.795   2.738   2.706  0.0453  0.5662 -0.0219
   34MOL   C29511581   4.683   2.705   2.788 -0.1153  0.0972  0.2856
   34MOL   C29611582   4.675   2.754   2.921  0.4034  0.7031  0.0269
   34MOL   C29711583   4.775   2.847   2.961  0.4118  0.0566 -0.1481
   34MOL   C29811584   4.883   2.880   2.879  0.1319 -0.6770  0.2688
   34MOL   O29911585   5.050   2.775   2.576  0.2482  0.1653  0.3140
   34MOL   H30011586   4.868   2.978   2.497  0.6978  0.6686 -0.3000
   34MOL   H30111587   4.899   3.078   2.633 -1.8082 -0.1187 -1.1692
   34MOL   H30211588   5.077   2.923   2.724 -0.7241  0.2017  1.4467
   34MOL   H30311589   4.800   2.689   2.609 -0.4603  0.6822 -0.1090
   34MOL   H30411590   4.608   2.643   2.739 -1.4904  1.4369  0.6619
   34MOL   H30511591   4.588   2.730   2.980  0.4024  1.4919  0.3611
   34MOL   H30611592   4.772   2.883   3.063 -2.5862 -1.4588  0.3437
   34MOL   H30711593   4.955   2.956   2.905 -1.1821  1.0560 -1.0295
   34MOL   C30811594   5.164   2.810   2.501 -0.2122 -0.2679  0.0727
   34MOL   C30911595   5.221   2.675   2.445  0.1381 -0.1405 -0.2849
   34MOL   C31011596   5.126   2.601   2.354 -0.0393 -0.4284  0.3081
   34MOL   C31111597   5.120   2.642   2.221 -0.0141 -0.3341  0.7870
   34MOL   C31211598   5.054   2.558   2.127  0.3598 -0.6276 -0.2160
   34MOL   C31311599   4.966   2.470   2.180 -0.1774 -0.2278 -0.2467
   34MOL   C31411600   4.955   2.441   2.314 -0.4272  0.4924  0.1068
   34MOL   C31511601   5.046   2.504   2.406 -0.2851  0.1962  1.1469
   34MOL   O31611602   5.351   2.707   2.399 -0.7600  0.0342 -0.2927
   34MOL   H31711603   5.241   2.852   2.565 -0.1094 -0.1888 -0.1009
   34MOL   H31811604   5.146   2.868   2.410  0.3329  0.2674  0.3055
   34MOL   H31911605   5.224   2.633   2.545 -1.8687  0.8695  0.2174
   34MOL   H32011606   5.194   2.715   2.192  0.7259 -0.7739  1.5299
   34MOL   H32111607   5.046   2.576   2.021  0.9527 -0.7794 -0.2882
   34MOL   H32211608   4.907   2.416   2.108 -2.8457  0.5574  1.2748
   34MOL   H32311609   4.896   2.356   2.345  0.3092 -1.0400 -2.5785
   34MOL   H32411610   5.038   2.480   2.511 -0.8875  0.1506  1.0881
   34MOL   C32511611   5.441   2.587   2.383 -0.0082 -0.1836 -1.2363
   34MOL   C32611612   5.560   2.627   2.302 -0.2650 -0.7018  0.0258
   34MOL   C32711613   5.673   2.527   2.285  0.2493  1.2756 -0.6052
   34MOL   C32811614   5.787   2.525   2.368  0.7350 -0.1889  0.0815
   34MOL   C32911615   5.900   2.449   2.336  0.1426  0.3328  0.0016
   34MOL   C33011616   5.887   2.357   2.230  0.8470 -0.7208  0.3162
   34MOL   C33111617   5.768   2.345   2.154 -1.0175 -0.0641  0.2217
   34MOL   C33211618   5.662   2.431   2.175  0.2672 -0.1741  0.4542
   34MOL   O33311619   5.532   2.688   2.177 -0.0597 -0.2974 -0.1309
   34MOL   H33411620   5.383   2.518   2.322 -2.8811 -0.0627  1.2166
   34MOL   H33511621   5.468   2.545   2.480 -0.9773 -1.9647 -1.7138
   34MOL   H33611622   5.610   2.708   2.355  0.8564 -0.0675 -1.9362
   34MOL   H33711623   5.780   2.589   2.455 -1.3778 -0.7780  0.3847
   34MOL   H33811624   5.987   2.455   2.400  0.0590 -1.6439  0.3292
   34MOL   H33911625   5.966   2.285   2.212  1.8977  1.2648 -3.4745
   34MOL   H34011626   5.765   2.269   2.078 -0.1650  0.5974 -0.4961
   34MOL   H34111627   5.587   2.433   2.097  0.0160 -0.1619  0.6953
   34MOL   H34211628   5.472   2.759   2.191  3.0331  2.7470 -1.7140
   35MOL     C111629   0.284   1.174   1.321 -0.2126 -0.0369  0.6360
   35MOL     C211630   0.399   1.071   1.309  0.2360  0.8624 -0.0530
   35MOL     C311631   0.463   1.037   1.441  0.2637 -1.3242 -0.4247
   35MOL     C411632   0.544   0.921   1.452  0.5033 -0.0029 -0.0847
   35MOL     C511633   0.615   0.897   1.574  0.6755  0.9535 -0.9406
   35MOL     C611634   0.608   0.987   1.683 -0.3036 -0.7551 -0.2343
   35MOL     C711635   0.513   1.095   1.683 -0.1202 -0.0748  0.6821
   35MOL     C811636   0.451   1.123   1.556 -1.0459 -0.4022  0.0237
   35MOL     O911637   0.497   1.131   1.231 -0.3812  0.5389 -0.1530
   35MOL    H1011638   0.315   1.274   1.350  0.0901  0.1476 -0.3043
   35MOL    H1111639   0.240   1.188   1.222 -0.9198 -2.7892  0.5071
   35MOL    H1211640   0.373   0.976   1.262 -1.7155  0.5327  1.6369
   35MOL    H1311641   0.547   0.848   1.373  0.7139  1.0058 -1.0155
   35MOL    H1411642   0.680   0.812   1.582  0.1827  0.6616  0.0250
   35MOL    H1511643   0.670   0.977   1.771 -1.3655  3.2766  1.0832
   35MOL    H1611644   0.522   1.175   1.756  0.1383 -1.8610  2.6569
   35MOL    H1711645   0.392   1.213   1.548 -0.0183  0.2813  0.0126
   35MOL    H1811646   0.212   1.143   1.397 -0.2458 -2.0215 -0.1601
   35MOL    C1911647   0.465   1.111   1.096  0.2443 -0.3800 -0.1067
   35MOL    C2011648   0.571   1.160   0.996  0.1867  0.6099 -0.6591
   35MOL    C2111649   0.571   1.314   0.988 -0.5592 -0.3056  0.3419
   35MOL    C2211650   0.619   1.382   1.098 -0.1593  0.3945 -0.8587
   35MOL    C2311651   0.623   1.525   1.100 -0.0256  0.0194 -0.2110
   35MOL    C2411652   0.579   1.596   0.992 -0.3917 -0.5282  0.5503
   35MOL    C2511653   0.542   1.526   0.870 -0.7026 -0.2144  0.0190
   35MOL    C2611654   0.536   1.385   0.871 -0.0757 -0.6616 -0.3609
   35MOL    O2711655   0.550   1.097   0.869 -0.4125  0.1341  0.4523
   35MOL    H2811656   0.445   1.008   1.069 -1.3969  0.3636 -1.8338
   35MOL    H2911657   0.370   1.151   1.063  1.4358  1.5285 -1.3335
   35MOL    H3011658   0.668   1.134   1.039 -0.3546 -2.3979 -1.1624
   35MOL    H3111659   0.651   1.329   1.186  0.8081  1.6821 -0.4189
   35MOL    H3211660   0.663   1.582   1.183  0.7239 -0.4647 -0.2324
   35MOL    H3311661   0.574   1.704   0.995  0.6857 -0.4167 -0.7835
   35MOL    H3411662   0.510   1.572   0.778 -1.7388  0.2018  0.5727
   35MOL    H3511663   0.506   1.325   0.786  0.7751  1.1049 -1.9513
   35MOL    C3611664   0.677   1.065   0.813 -0.0375  0.2259 -0.2775
   35MOL    C3711665   0.698   0.916   0.825 -0.0638  0.1803  0.6842
   35MOL    C3811666   0.852   0.883   0.833  0.1949 -0.3133  0.2175
   35MOL    C3911667   0.916   0.812   0.733 -0.1436 -0.6429 -0.4012
   35MOL    C4011668   1.049   0.776   0.735 -0.2571 -0.1989  0.2798
   35MOL    C4111669   1.121   0.811   0.851  0.2919  0.1691 -0.8191
   35MOL    C4211670   1.062   0.889   0.955 -0.2085 -0.2682 -0.1788
   35MOL    C4311671   0.923   0.918   0.949 -0.5112 -0.6988 -0.2012
   35MOL    O4411672   0.639   0.841   0.723 -0.0154  0.0122 -0.2336
   35MOL    H4511673   0.680   1.104   0.712  0.6372  2.2432  0.4965
   35MOL    H4611674   0.753   1.123   0.864  0.9431 -0.1358 -1.3177
   35MOL    H4711675   0.646   0.894   0.918 -0.5688 -0.8113  0.1735
   35MOL    H4811676   0.849   0.782   0.653 -3.2774  1.7477  1.2448
   35MOL    H4911677   1.096   0.720   0.656 -0.6587  0.1525 -0.2173
   35MOL    H5011678   1.221   0.772   0.865 -0.7277 -2.8822 -1.4996
   35MOL    H5111679   1.113   0.909   1.048 -3.1116  0.3890  1.3325
   35MOL    H5211680   0.867   0.971   1.024  1.8495  0.5233  0.7810
   35MOL    C5311681   0.593   0.714   0.772  0.0176  0.4105  0.1730
   35MOL    C5411682   0.512   0.624   0.673 -0.4418  0.0054 -0.7968
   35MOL    C5511683   0.480   0.489   0.736  0.2061  0.4825 -0.2906
   35MOL    C5611684   0.560   0.380   0.715 -0.4348 -0.3976 -0.6416
   35MOL    C5711685   0.541   0.260   0.788  0.7501 -0.1504  0.7193
   35MOL    C5811686   0.436   0.243   0.879  0.4481  0.2804 -0.3625
   35MOL    C5911687   0.362   0.359   0.902  0.6777  0.0600 -0.6044
   35MOL    C6011688   0.378   0.480   0.832 -0.8323 -0.6853  0.0051
   35MOL    O6111689   0.393   0.682   0.639  0.1520 -0.1982 -0.4163
   35MOL    H6211690   0.675   0.655   0.813 -1.7506 -2.8324 -0.7378
   35MOL    H6311691   0.522   0.739   0.851  1.7710  2.2363  1.2231
   35MOL    H6411692   0.579   0.612   0.588  1.6392 -1.0370  0.9571
   35MOL    H6511693   0.641   0.407   0.648 -1.1333 -0.1828 -1.3963
   35MOL    H6611694   0.608   0.177   0.771 -0.3170 -0.7429 -0.7643
   35MOL    H6711695   0.411   0.152   0.931  2.0728  1.3581  2.4020
   35MOL    H6811696   0.282   0.373   0.973  1.4309 -1.0210  0.4592
   35MOL    H6911697   0.314   0.565   0.848 -1.8021 -1.4719  0.3416
   35MOL    C7011698   0.400   0.783   0.531 -0.6150  0.8994 -0.6302
   35MOL    C7111699   0.387   0.717   0.398 -0.1612 -0.0825  0.0811
   35MOL    C7211700   0.256   0.640   0.389 -0.5457 -0.0898  0.8373
   35MOL    C7311701   0.150   0.707   0.332 -0.3377 -0.1433 -0.2804
   35MOL    C7411702   0.025   0.642   0.309 -0.3577  0.0936  0.2014
   35MOL    C7511703   0.013   0.512   0.349 -0.0982 -0.3495  0.1277
   35MOL    C7611704   0.115   0.445   0.423 -0.1717  0.1906 -0.5468
   35MOL    C7711705   0.232   0.511   0.446 -1.0316 -0.3066  0.0387
   35MOL    O7811706   0.506   0.638   0.364 -0.0944 -0.1851  0.4973
   35MOL    H7911707   0.312   0.848   0.535 -1.7595 -0.6086 -0.5625
   35MOL    H8011708   0.493   0.839   0.535  1.2576 -2.0361 -1.6419
   35MOL    H8111709   0.379   0.800   0.328 -1.4674  0.3812  0.7728
   35MOL    H8211710   0.156   0.811   0.304 -1.2691 -0.4090 -1.5228
   35MOL    H8311711   8.013   0.687   0.274 -0.1412 -0.9806 -1.8364
   35MOL    H8411712   8.001   0.457   0.335  0.2146 -0.9258  0.3492
   35MOL    H8511713   0.097   0.346   0.461 -0.8131  0.3985 -0.3009
   35MOL    H8611714   0.306   0.466   0.511 -0.1059  2.3730  0.9604
   35MOL    C8711715   0.504   0.581   0.233  0.5156 -0.1061  0.1289
   35MOL    C8811716   0.640   0.533   0.173  0.1557  0.7858  0.0637
   35MOL    C8911717   0.716   0.473   0.285  0.8662  0.0431 -0.0128
   35MOL    C9011718   0.718   0.328   0.303  0.1736  0.1583 -0.1841
   35MOL    C9111719   0.809   0.273   0.393  0.0395 -0.7416 -0.1884
   35MOL    C9211720   0.885   0.350   0.475  0.0463  0.4774 -0.1886
   35MOL    C9311721   0.872   0.490   0.472 -1.0843  0.3105  0.4222
   35MOL    C9411722   0.784   0.554   0.379 -0.0730  0.0301 -0.2049
   35MOL    O9511723   0.712   0.634   0.105  0.1483 -0.0325  0.2568
   35MOL    H9611724   0.447   0.642   0.162  0.6420 -0.5181 -0.3286
   35MOL    H9711725   0.439   0.494   0.232  0.6302 -0.1851 -1.0065
   35MOL    H9811726   0.624   0.446   0.109  0.4772  1.3011 -0.7092
   35MOL    H9911727   0.667   0.257   0.239  0.0015  0.3085 -0.2147
   35MOL   H10011728   0.819   0.166   0.397  0.5545 -0.7327 -1.2393
   35MOL   H10111729   0.947   0.302   0.549 -0.4468  1.9313  1.1900
   35MOL   H10211730   0.927   0.549   0.543 -0.7224 -0.2359  0.5949
   35MOL   H10311731   0.777   0.661   0.373  0.7815  0.0723 -0.6404
   35MOL   C10411732   0.785   0.595   8.071  0.8370 -0.1088  0.5890
   35MOL   C10511733   0.878   0.713   8.023  0.1073  1.0084 -0.7808
   35MOL   C10611734   1.004   0.725   0.030  0.3439 -0.1769  0.3111
   35MOL   C10711735   1.009   0.784   0.155 -0.2949 -0.7188  0.4934
   35MOL   C10811736   1.124   0.799   0.231 -0.3304 -0.3102 -0.0307
   35MOL   C10911737   1.241   0.736   0.191 -0.0672  0.1682 -0.4359
   35MOL   C11011738   1.242   0.669   0.066  0.9826  0.0141 -0.8197
   35MOL   C11111739   1.128   0.671   8.068 -0.1513  0.2381 -0.2510
   35MOL   O11211740   0.915   0.689   7.887  0.8634  0.1610 -0.2224
   35MOL   H11311741   0.851   0.510   0.010 -1.2054 -2.3411 -1.8509
   35MOL   H11411742   0.718   0.552   7.996  1.1241 -0.1893  0.3733
   35MOL   H11511743   0.817   0.803   8.022 -0.8443  0.4250  2.0678
   35MOL   H11611744   0.927   0.844   0.193  1.7701  3.1102 -0.8390
   35MOL   H11711745   1.121   0.844   0.330  3.4120  0.1791 -0.0853
   35MOL   H11811746   1.331   0.738   0.252  0.9623 -2.6942 -1.7697
   35MOL   H11911747   1.330   0.613   0.035  0.4821  0.3631 -2.9495
   35MOL   H12011748   1.140   0.619   7.974 -0.6329  0.3374 -0.3660
   35MOL   C12111749   0.947   0.801   7.803  0.2252 -1.0213  1.1140
   35MOL   C12211750   0.831   0.888   7.754 -0.9190 -0.5881  0.3514
   35MOL   C12311751   0.719   0.810   7.690  0.3271  0.5571  0.4226
   35MOL   C12411752   0.728   0.783   7.554  0.0780 -0.4319  0.0324
   35MOL   C12511753   0.617   0.718   7.485 -0.3619 -0.2308 -0.2866
   35MOL   C12611754   0.503   0.692   7.567 -0.0656  0.8412  0.3050
   35MOL   C12711755   0.508   0.703   7.707  0.9332  0.4793 -0.1885
   35MOL   C12811756   0.613   0.764   7.768 -0.0202  0.8584 -0.0817
   35MOL   O12911757   0.798   0.984   7.860  0.0178 -0.0508 -0.2245
   35MOL   H13011758   0.985   0.757   7.711 -2.3871  1.4725 -1.2777
   35MOL   H13111759   1.018   0.868   7.850 -0.8866  0.8292  0.2314
   35MOL   H13211760   0.877   0.949   7.676 -2.1789 -0.1222 -0.0451
   35MOL   H13311761   0.817   0.819   7.503  1.0240 -2.5659  0.0892
   35MOL   H13411762   0.636   0.718   7.378  1.9691 -1.8451  0.0971
   35MOL   H13511763   0.413   0.652   7.522 -0.2251 -0.4048  1.6861
   35MOL   H13611764   0.424   0.668   7.765  2.3741  0.4559  1.9804
   35MOL   H13711765   0.615   0.777   7.875  0.8387  2.4448 -0.2788
   35MOL   C13811766   0.721   1.086   7.810  0.2399 -0.7891  0.1075
   35MOL   C13911767   0.659   1.180   7.914 -0.2078 -0.5787 -0.1989
   35MOL   C14011768   0.564   1.101   8.007  0.2468  0.2163  0.1549
   35MOL   C14111769   0.421   1.112   7.985 -0.5052 -0.0409  0.1652
   35MOL   C14211770   0.335   1.033   8.064 -0.1534 -0.5464 -0.0356
   35MOL   C14311771   0.385   0.943   0.081 -0.5710  0.2281  0.3983
   35MOL   C14411772   0.527   0.935   0.106  0.1545  0.6913  0.1662
   35MOL   C14511773   0.615   1.016   0.029  1.0850  0.5372  0.6031
   35MOL   O14611774   0.764   1.240   7.995  0.2385  0.3557 -0.5991
   35MOL   H14711775   0.649   1.046   7.738  0.2407  1.0273 -0.9472
   35MOL   H14811776   0.788   1.147   7.750 -0.0414  0.3672  0.9510
   35MOL   H14911777   0.613   1.265   7.864  1.7051 -0.1327 -1.2559
   35MOL   H15011778   0.389   1.192   7.921 -1.2142  0.2367  0.8672
   35MOL   H15111779   0.228   1.042   8.050 -0.0216  1.7233  0.2627
   35MOL   H15211780   0.307   0.890   0.135 -0.3585  0.0543  0.5379
   35MOL   H15311781   0.565   0.866   0.180 -0.7173  0.9903  0.8953
   35MOL   H15411782   0.723   1.011   0.030  1.2351  1.7649 -2.4558
   35MOL   C15511783   0.823   1.355   7.937  0.0125 -0.1755 -0.1299
   35MOL   C15611784   0.973   1.374   7.974 -0.0109 -1.1086 -0.2410
   35MOL   C15711785   0.992   1.390   0.039 -0.1237 -0.4576  0.0886
   35MOL   C15811786   0.971   1.517   0.107 -0.3540  0.0522  1.0529
   35MOL   C15911787   1.000   1.528   0.249 -0.2808 -0.6490  0.2969
   35MOL   C16011788   1.039   1.411   0.321  0.4179  0.0744 -0.4251
   35MOL   C16111789   1.045   1.287   0.261  0.0762  0.2181  0.7303
   35MOL   C16211790   1.013   1.279   0.122 -0.4751  0.1335 -0.3085
   35MOL   O16311791   1.048   1.262   7.931 -0.3060  0.4321  0.4982
   35MOL   H16411792   0.768   1.444   7.969 -1.4673 -0.5270 -1.5998
   35MOL   H16511793   0.806   1.355   7.829 -0.7790  1.6054 -0.0253
   35MOL   H16611794   0.998   1.471   7.931 -0.9679 -1.1974 -1.0301
   35MOL   H16711795   0.942   1.606   0.053  0.4096 -1.1252 -1.3917
   35MOL   H16811796   1.008   1.626   0.295 -0.6156  0.6987 -2.4038
   35MOL   H16911797   1.081   1.437   0.417 -1.7363 -0.9879  0.8593
   35MOL   H17011798   1.071   1.198   0.316 -0.9774 -0.3920  0.2651
   35MOL   H17111799   1.028   1.181   0.078  0.3484  0.3224 -0.4552
   35MOL   C17211800   1.098   1.269   7.791  1.0153 -0.4505  0.0276
   35MOL   C17311801   1.165   1.132   7.764  1.0532 -0.4107 -0.6792
   35MOL   C17411802   1.283   1.113   7.856  0.6617 -0.8001 -0.0531
   35MOL   C17511803   1.278   1.021   7.961 -0.6230  0.1593  0.0951
   35MOL   C17611804   1.388   1.008   8.043  0.5107 -0.0022  0.1669
   35MOL   C17711805   1.509   1.086   8.030 -0.0062  0.1477  0.3434
   35MOL   C17811806   1.507   1.181   7.925  0.7713  0.0780  0.2799
   35MOL   C17911807   1.396   1.191   7.838  0.3362  0.1873 -0.3707
   35MOL   O18011808   1.197   1.114   7.628 -0.2955 -0.1594  0.2706
   35MOL   H18111809   1.012   1.285   7.726 -0.6497 -3.5400  1.3490
   35MOL   H18211810   1.176   1.340   7.763 -0.2895  1.3262  0.8155
   35MOL   H18311811   1.095   1.054   7.793  1.0425 -0.4893 -0.9105
   35MOL   H18411812   1.190   0.959   7.978 -1.6540  1.2721 -1.0749
   35MOL   H18511813   1.376   0.930   0.036  0.1890  1.0756  1.2891
   35MOL   H18611814   1.593   1.060   0.013 -0.9701 -0.3239  1.4515
   35MOL   H18711815   1.589   1.251   7.911 -0.3338  1.1453 -1.0081
   35MOL   H18811816   1.403   1.266   7.761 -0.5703  0.5203 -0.1397
   35MOL   C18911817   1.214   0.980   7.595  0.0587 -0.6351  0.0233
   35MOL   C19011818   1.273   0.973   7.455 -0.0679  0.0586 -0.6174
   35MOL   C19111819   1.413   1.035   7.453 -0.3325  0.1268  0.2783
   35MOL   C19211820   1.524   0.953   7.485  0.2819  0.5621  0.8470
   35MOL   C19311821   1.652   1.015   7.485 -0.2679  0.0395 -0.1394
   35MOL   C19411822   1.668   1.147   7.452  0.2633 -0.1362  0.2203
   35MOL   C19511823   1.562   1.220   7.401 -0.7435 -0.1732  0.2051
   35MOL   C19611824   1.425   1.168   7.406  0.5666  0.3188  0.4013
   35MOL   O19711825   1.178   1.039   7.367  0.4120  0.1307 -0.4198
   35MOL   H19811826   1.290   0.944   7.665  0.6052 -0.0818 -0.2850
   35MOL   H19911827   1.123   0.923   7.611 -2.1838  2.0097 -2.8192
   35MOL   H20011828   1.291   0.870   7.425  1.6972  0.0603  0.3182
   35MOL   H20111829   1.508   0.854   7.525 -4.7856  0.1764 -1.8174
   35MOL   H20211830   1.742   0.959   7.507 -1.9580 -2.3138  1.1090
   35MOL   H20311831   1.764   1.198   7.457 -1.2516  2.9175 -0.4443
   35MOL   H20411832   1.572   1.322   7.368  1.5554 -0.7423 -0.9352
   35MOL   H20511833   1.338   1.217   7.366  0.0041  1.1039  2.5181
   35MOL   C20611834   1.063   0.967   7.307  0.5775  0.0901 -0.0486
   35MOL   C20711835   0.963   1.075   7.250 -0.2609 -0.6199  0.3362
   35MOL   C20811836   0.895   1.153   7.354 -0.0352 -0.0126 -0.2336
   35MOL   C20911837   0.769   1.120   7.391 -0.1699 -0.5440 -0.0324
   35MOL   C21011838   0.690   1.211   7.468  0.2947 -0.4294  0.7078
   35MOL   C21111839   0.751   1.322   7.526 -0.6402  0.2897  0.5031
   35MOL   C21211840   0.878   1.365   7.488 -0.5731  0.1163 -0.1096
   35MOL   C21311841   0.950   1.276   7.403 -0.2988 -0.2639  0.0201
   35MOL   O21411842   0.866   1.015   7.163 -0.0712 -0.1994 -0.4948
   35MOL   H21511843   1.103   0.917   7.219 -1.0275 -1.2657 -0.0216
   35MOL   H21611844   1.017   0.900   7.379 -0.7500  0.3817 -0.6150
   35MOL   H21711845   1.024   1.148   7.197  0.2471 -0.5515  1.0081
   35MOL   H21811846   0.710   1.042   7.345 -2.0125  2.1550 -2.4028
   35MOL   H21911847   0.586   1.182   7.476  0.1868  0.0240  0.9662
   35MOL   H22011848   0.691   1.389   7.586  1.3046  0.9589  1.7411
   35MOL   H22111849   0.917   1.459   7.524 -0.3010  0.0515 -0.2269
   35MOL   H22211850   1.050   1.302   7.370 -0.3495  0.3017  0.3069
   35MOL   C22311851   0.819   1.108   7.069 -0.1325  0.6433 -0.2285
   35MOL   C22411852   0.702   1.042   6.992 -0.0589 -0.2942  0.5988
   35MOL   C22511853   0.581   1.032   7.079  0.2283  0.5976  0.0949
   35MOL   C22611854   0.497   1.141   7.094 -0.0461 -0.2221  0.1094
   35MOL   C22711855   0.378   1.134   7.170 -0.1821 -0.4738 -0.0706
   35MOL   C22811856   0.360   1.031   7.261  0.8598  0.4073  0.8281
   35MOL   C22911857   0.444   0.920   7.252  0.5490 -0.7295  0.1656
   35MOL   C23011858   0.555   0.919   7.161 -0.6603  0.2649  0.4081
   35MOL   O23111859   0.664   1.120   6.871 -0.0879 -0.5878  0.1363
   35MOL   H23211860   0.780   1.201   7.111  0.2528  0.3416  0.8141
   35MOL   H23311861   0.907   1.129   7.008 -0.5545  0.7871 -0.7977
   35MOL   H23411862   0.733   0.944   6.957  0.8290  1.2160 -2.9977
   35MOL   H23511863   0.508   1.223   7.026  0.7843 -0.1284  0.3574
   35MOL   H23611864   0.314   1.220   7.183 -2.4439 -1.9834 -0.8785
   35MOL   H23711865   0.280   1.040   7.333 -0.9253  0.4029 -1.1192
   35MOL   H23811866   0.422   0.833   7.313  0.0756  0.5277  1.8187
   35MOL   H23911867   0.617   0.830   7.164  0.0322  0.6539 -1.7963
   35MOL   C24011868   0.739   1.096   6.756 -0.2578  0.4131 -0.0838
   35MOL   C24111869   0.722   1.210   6.652  0.4575  0.7368  0.0364
   35MOL   C24211870   0.753   1.349   6.713  0.3414  0.1230  0.0261
   35MOL   C24311871   0.656   1.434   6.777 -0.1885 -0.0396  0.1569
   35MOL   C24411872   0.697   1.557   6.836 -0.0486 -0.0700  0.6453
   35MOL   C24511873   0.830   1.602   6.818 -0.2627  0.0801  0.2609
   35MOL   C24611874   0.928   1.522   6.753  0.2248 -0.2844  0.2263
   35MOL   C24711875   0.884   1.394   6.703  0.6482 -0.4086 -0.6634
   35MOL   O24811876   0.802   1.190   6.540 -0.2546  0.3743  0.2264
   35MOL   H24911877   0.844   1.083   6.784 -0.5834  3.7822  3.1067
   35MOL   H25011878   0.726   0.998   6.710  0.0522  0.5167 -0.4015
   35MOL   H25111879   0.624   1.191   6.610 -1.1049  4.1156  1.9306
   35MOL   H25211880   0.558   1.391   6.796 -0.5535  0.9892  0.6291
   35MOL   H25311881   0.625   1.614   6.892 -2.2585 -1.3458 -0.8149
   35MOL   H25411882   0.858   1.693   6.869 -1.1061  0.5613 -0.1264
   35MOL   H25511883   1.030   1.555   6.734  0.0582 -1.4923 -3.2634
   35MOL   H25611884   0.966   1.337   6.662  2.3708  0.6918  1.0987
   35MOL   C25711885   0.805   1.061   6.479 -0.5135  0.5908 -0.2876
   35MOL   C25811886   0.882   1.067   6.341 -0.2287  0.5458 -0.3834
   35MOL   C25911887   1.019   1.120   6.377 -0.7516 -0.5494 -0.6908
   35MOL   C26011888   1.047   1.255   6.403  0.1323  0.0748  0.1150
   35MOL   C26111889   1.174   1.300   6.442  0.0116  0.5679  0.5568
   35MOL   C26211890   1.269   1.202   6.461  0.2047 -0.3731  0.0867
   35MOL   C26311891   1.248   1.067   6.442  0.7674  0.0894  0.0002
   35MOL   C26411892   1.125   1.025   6.392  0.6325 -0.4137 -0.1578
   35MOL   O26511893   0.798   1.147   6.261 -0.2218  0.2801 -0.1814
   35MOL   H26611894   0.701   1.030   6.466 -0.6683  0.9397  0.1169
   35MOL   H26711895   0.857   0.986   6.539 -1.5429  0.1760  0.0913
   35MOL   H26811896   0.899   0.966   6.304 -1.7875 -0.4531  1.5460
   35MOL   H26911897   0.960   1.318   6.392  0.3838  0.3773 -0.1598
   35MOL   H27011898   1.196   1.405   6.452  1.6198  0.1796  1.2796
   35MOL   H27111899   1.366   1.229   6.499  0.1258 -1.4345  1.0803
   35MOL   H27211900   1.328   0.999   6.468  0.5107 -0.7791 -1.4878
   35MOL   H27311901   1.103   0.921   6.375  0.6590 -0.5816  0.8023
   35MOL   C27411902   0.842   1.187   6.131  0.1723  0.2311  0.4152
   35MOL   C27511903   0.844   1.080   6.022  0.3053 -0.1455  0.0757
   35MOL   C27611904   0.721   0.985   6.004  0.1120 -0.3476 -0.2630
   35MOL   C27711905   0.608   1.026   5.925  0.0552  0.3193  0.0336
   35MOL   C27811906   0.512   0.926   5.893 -0.2827  0.0632 -0.2444
   35MOL   C27911907   0.520   0.793   5.939 -0.0444  0.8877  0.4049
   35MOL   C28011908   0.630   0.755   6.019  0.1500  0.0034 -0.5081
   35MOL   C28111909   0.728   0.857   6.053 -0.4428  0.3551 -0.1056
   35MOL   O28211910   0.968   1.019   6.026 -0.3430 -0.0277 -0.5512
   35MOL   H28311911   0.771   1.268   6.112 -1.2071 -1.1184 -0.3246
   35MOL   H28411912   0.936   1.241   6.139 -0.7135  1.5418  2.4668
   35MOL   H28511913   0.840   1.144   5.934  0.7323 -0.1040  0.0835
   35MOL   H28611914   0.608   1.130   5.896  0.2780  0.5915  1.0136
   35MOL   H28711915   0.422   0.961   5.844 -3.0386 -0.8617  3.8833
   35MOL   H28811916   0.436   0.728   5.920  1.6107 -1.1983  0.0452
   35MOL   H28911917   0.637   0.656   6.062 -1.3155  0.6738  1.3628
   35MOL   H29011918   0.809   0.828   6.118 -2.2251  0.3940  2.2199
   35MOL   C29111919   1.003   0.943   5.911  0.1397 -0.1191 -0.2559
   35MOL   C29211920   1.130   0.862   5.935  0.3633  0.4261 -0.2586
   35MOL   C29311921   1.255   0.946   5.970 -0.3473 -0.0861 -0.0821
   35MOL   C29411922   1.274   0.982   6.104 -0.1591 -0.6794 -0.1962
   35MOL   C29511923   1.383   1.056   6.142 -0.2195  0.1274  0.7493
   35MOL   C29611924   1.483   1.080   6.048 -0.3116  0.2253 -0.1792
   35MOL   C29711925   1.469   1.047   5.910  0.1115  0.8909  0.1076
   35MOL   C29811926   1.353   0.976   5.867  0.2322  0.7093  0.3293
   35MOL   O29911927   1.099   0.759   6.031 -0.3154  0.4443  0.1512
   35MOL   H30011928   1.035   1.002   5.825 -0.2188  0.1093 -0.2342
   35MOL   H30111929   0.925   0.870   5.889 -0.2814  0.2053  0.1682
   35MOL   H30211930   1.157   0.809   5.843  1.7212  1.1853 -0.3102
   35MOL   H30311931   1.196   0.956   6.174  0.1859  1.2327  0.9690
   35MOL   H30411932   1.394   1.080   6.247  0.3177  0.7411  0.5561
   35MOL   H30511933   1.572   1.136   6.074  0.5489 -0.5333 -1.4165
   35MOL   H30611934   1.543   1.071   5.836  0.0323  0.7639 -0.0129
   35MOL   H30711935   1.340   0.943   5.765  0.4855  2.1043 -0.1675
   35MOL   C30811936   1.199   0.653   6.051 -0.3089 -0.0500 -0.3880
   35MOL   C30911937   1.175   0.535   5.944 -0.1688  0.2745 -0.2108
   35MOL   C31011938   1.025   0.485   5.931  0.4983 -0.3989 -0.1050
   35MOL   C31111939   0.931   0.559   5.861 -0.2077  0.5421  0.3581
   35MOL   C31211940   0.799   0.519   5.843  0.1803 -0.2543  0.1384
   35MOL   C31311941   0.764   0.394   5.898  0.5706  0.1596  0.0001
   35MOL   C31411942   0.856   0.315   5.976  1.0707 -0.3122 -0.9068
   35MOL   C31511943   0.987   0.369   5.995  0.4535 -0.1117  0.8564
   35MOL   O31611944   1.218   0.581   5.821  0.0383  0.0933 -0.4204
   35MOL   H31711945   1.186   0.597   6.143  0.1435 -0.1777 -0.4005
   35MOL   H31811946   1.302   0.686   6.060 -0.1542 -0.6938  0.2696
   35MOL   H31911947   1.232   0.446   5.971  0.8894  1.4357  1.5397
   35MOL   H32011948   0.963   0.649   5.810 -1.5150  0.6180 -0.3302
   35MOL   H32111949   0.733   0.584   5.787  2.2909  0.8624 -1.0887
   35MOL   H32211950   0.657   0.375   5.901  0.5966 -0.8323 -3.1702
   35MOL   H32311951   0.824   0.226   6.028 -0.0344  0.6499  0.0780
   35MOL   H32411952   1.049   0.314   6.064 -0.0361 -0.9753  0.6200
   35MOL   C32511953   1.221   0.497   5.700  0.4490 -0.1625  0.0137
   35MOL   C32611954   1.263   0.582   5.580  0.0295 -0.1385 -0.6742
   35MOL   C32711955   1.407   0.608   5.593 -0.0278 -0.0010  0.6920
   35MOL   C32811956   1.498   0.501   5.579 -0.1159 -0.3364  0.8212
   35MOL   C32911957   1.640   0.526   5.568  0.3309 -0.1008 -0.2122
   35MOL   C33011958   1.686   0.654   5.570  0.1625 -0.0136 -0.3283
   35MOL   C33111959   1.592   0.762   5.595  0.0084 -0.3339  0.4776
   35MOL   C33211960   1.458   0.738   5.593 -0.4549  0.4112 -0.7802
   35MOL   O33311961   1.222   0.535   5.454 -0.1230 -0.1137  0.0077
   35MOL   H33411962   1.119   0.462   5.681  0.4812  0.1403 -0.7391
   35MOL   H33511963   1.278   0.405   5.712 -0.3098 -0.4532  1.5708
   35MOL   H33611964   1.215   0.679   5.591  2.0786  0.7692  0.6564
   35MOL   H33711965   1.457   0.401   5.574  3.1795 -1.7597  0.6425
   35MOL   H33811966   1.710   0.447   5.544  2.6517  1.6509  0.6560
   35MOL   H33911967   1.789   0.679   5.549 -0.0859  0.5929 -0.8501
   35MOL   H34011968   1.622   0.865   5.585 -0.1730 -0.4713 -1.8583
   35MOL   H34111969   1.392   0.822   5.595 -1.3389 -0.2944 -0.0201
   35MOL   H34211970   1.245   0.594   5.384  1.2195 -1.0871 -0.3802
   36MOL     C111971   4.071   1.127   5.075 -0.6320  0.6248  0.2908
   36MOL     C211972   4.015   0.977   5.084  0.0619  0.5227 -0.4593
   36MOL     C311973   4.118   0.864   5.048  0.1922 -0.0527  0.0504
   36MOL     C411974   4.113   0.748   5.126  0.3895 -0.4053 -0.4008
   36MOL     C511975   4.203   0.643   5.102 -0.5090  0.2003 -0.2660
   36MOL     C611976   4.299   0.660   5.004 -1.8057 -0.5090  0.1625
   36MOL     C711977   4.304   0.775   4.924 -0.0155 -0.1673  0.1364
   36MOL     C811978   4.210   0.879   4.945 -0.1584 -0.0353  0.1470
   36MOL     O911979   3.898   0.984   5.007 -0.9009 -0.3677  0.0626
   36MOL    H1011980   4.080   1.161   4.972  4.9555  0.6274  0.6341
   36MOL    H1111981   4.012   1.203   5.126 -0.7479 -0.0100  1.1173
   36MOL    H1211982   3.992   0.954   5.188  0.2195 -1.1915 -0.7963
   36MOL    H1311983   4.041   0.737   5.206 -0.0018 -1.3925 -0.8818
   36MOL    H1411984   4.201   0.549   5.155 -0.8138  1.9615  3.0436
   36MOL    H1511985   4.366   0.576   5.000 -0.5345  0.3528  2.2234
   36MOL    H1611986   4.378   0.777   4.846  2.1360  0.9578  2.1425
   36MOL    H1711987   4.202   0.975   4.897 -1.9001  0.0173  0.4867
   36MOL    H1811988   4.173   1.130   5.116 -0.5386 -2.6506  0.4404
   36MOL    C1911989   3.833   0.861   4.995  0.3770  0.9803 -0.1974
   36MOL    C2011990   3.730   0.879   4.892  0.4080 -0.4047  1.5701
   36MOL    C2111991   3.607   0.953   4.942  0.0777 -0.0791  0.2940
   36MOL    C2211992   3.563   1.075   4.884  0.1376 -0.2535  0.4160
   36MOL    C2311993   3.453   1.143   4.934  0.5929 -0.2746  0.1937
   36MOL    C2411994   3.371   1.079   5.029 -0.1402 -0.2955  0.7458
   36MOL    C2511995   3.414   0.958   5.088  0.1585 -0.1449  1.2548
   36MOL    C2611996   3.535   0.899   5.048 -0.0315  0.0947  0.3929
   36MOL    O2711997   3.700   0.750   4.837 -1.2202  0.3338  0.0817
   36MOL    H2811998   3.903   0.793   4.946 -0.9121 -0.1644 -0.4891
   36MOL    H2911999   3.798   0.820   5.090 -0.2785 -1.2890 -1.3918
   36MOL    H3012000   3.783   0.929   4.811 -0.7592 -0.8886  0.4864
   36MOL    H3112001   3.617   1.121   4.803  0.7317  2.6258  2.3458
   36MOL    H3212002   3.412   1.231   4.886 -0.0718 -0.5702  0.2132
   36MOL    H3312003   3.281   1.132   5.054 -1.2128 -1.3108 -0.8582
   36MOL    H3412004   3.362   0.911   5.170 -0.2766  1.0242  1.6537
   36MOL    H3512005   3.565   0.811   5.102  0.9222  0.9853  1.3285
   36MOL    C3612006   3.621   0.743   4.727 -0.2420 -0.0761  0.4405
   36MOL    C3712007   3.696   0.750   4.591 -0.2793 -0.4731 -0.4324
   36MOL    C3812008   3.851   0.724   4.610 -0.2593  0.4941 -0.0935
   36MOL    C3912009   3.889   0.593   4.649 -0.1555  0.4452  0.4247
   36MOL    C4012010   4.027   0.570   4.671  0.7147  0.0259 -1.1717
   36MOL    C4112011   4.125   0.671   4.655 -0.1515 -0.6789 -0.2103
   36MOL    C4212012   4.085   0.801   4.624 -0.9314  0.0773 -0.4520
   36MOL    C4312013   3.950   0.826   4.602  0.5120 -0.5380 -0.0955
   36MOL    O4412014   3.677   0.882   4.540 -0.1055 -0.3309 -0.1192
   36MOL    H4512015   3.579   0.643   4.729 -0.3155 -0.0528  0.1445
   36MOL    H4612016   3.533   0.808   4.730  0.1328  0.4447  0.2592
   36MOL    H4712017   3.666   0.660   4.537 -1.8616 -0.9148  1.1419
   36MOL    H4812018   3.821   0.510   4.661  1.2598 -1.0859 -1.6808
   36MOL    H4912019   4.048   0.468   4.701 -0.7117  0.3414  0.9827
   36MOL    H5012020   4.226   0.645   4.686  0.0967  2.0704  1.4142
   36MOL    H5112021   4.152   0.885   4.615 -1.5966  0.2859 -4.1130
   36MOL    H5212022   3.929   0.928   4.577 -0.2302 -1.0521 -1.6187
   36MOL    C5312023   3.627   0.866   4.407 -0.3355  0.0181 -0.4753
   36MOL    C5412024   3.601   1.003   4.345 -0.5535 -0.1934  0.5880
   36MOL    C5512025   3.548   1.114   4.436  0.7423 -0.1219 -0.4746
   36MOL    C5612026   3.622   1.228   4.470 -0.0344 -0.1627  1.0617
   36MOL    C5712027   3.561   1.328   4.545 -0.0987  0.2566 -0.1814
   36MOL    C5812028   3.426   1.312   4.586 -0.2847 -0.2899  0.4604
   36MOL    C5912029   3.358   1.192   4.556  0.3904 -0.6355 -0.0776
   36MOL    C6012030   3.421   1.093   4.484 -0.1915  0.5778 -1.1143
   36MOL    O6112031   3.714   1.047   4.265 -0.6584 -0.1440 -0.1357
   36MOL    H6212032   3.708   0.817   4.353  0.2303  1.7482 -1.2286
   36MOL    H6312033   3.534   0.811   4.420 -1.3152  1.9061  0.6876
   36MOL    H6412034   3.528   0.988   4.265  0.8062  0.3611 -0.7979
   36MOL    H6512035   3.723   1.245   4.438 -0.1370  1.4205  1.5687
   36MOL    H6612036   3.616   1.420   4.558 -0.9365  0.6486  0.6219
   36MOL    H6712037   3.371   1.386   4.641 -1.5364 -0.7928 -0.0965
   36MOL    H6812038   3.254   1.184   4.584  0.6062  0.0097  0.9462
   36MOL    H6912039   3.367   1.002   4.463 -1.4732  1.2752 -0.8334
   36MOL    C7012040   3.732   0.965   4.146  0.1044 -1.0119  0.3333
   36MOL    C7112041   3.872   0.910   4.135 -0.6049  0.2793  0.5535
   36MOL    C7212042   3.974   1.016   4.158  0.0412  0.2650 -0.9627
   36MOL    C7312043   3.986   1.132   4.076 -0.1604  0.1550  0.1504
   36MOL    C7412044   4.081   1.231   4.107 -0.1855  0.3569 -0.5962
   36MOL    C7512045   4.175   1.213   4.211 -0.3718  0.1253 -0.5450
   36MOL    C7612046   4.164   1.101   4.294 -0.2473  0.4411 -0.2768
   36MOL    C7712047   4.064   1.005   4.265 -0.3757  0.5496  0.0171
   36MOL    O7812048   3.874   0.841   4.006 -0.0019 -0.8686  0.1051
   36MOL    H7912049   3.664   0.881   4.141 -0.0705 -0.9511  1.7438
   36MOL    H8012050   3.710   1.035   4.065 -1.2175  0.4027  1.8748
   36MOL    H8112051   3.888   0.832   4.209  1.0860 -1.2077 -1.3496
   36MOL    H8212052   3.916   1.149   3.996 -0.9361  0.0583  0.7983
   36MOL    H8312053   4.093   1.323   4.052  0.1575  0.4712 -0.3385
   36MOL    H8412054   4.244   1.297   4.211  1.6015 -1.4439 -0.7390
   36MOL    H8512055   4.237   1.092   4.373 -0.9518  1.5557  0.5129
   36MOL    H8612056   4.050   0.925   4.337  0.2616  1.6394  1.3857
   36MOL    C8712057   4.002   0.797   3.956  0.4817 -0.0762 -0.4113
   36MOL    C8812058   3.994   0.779   3.804  0.5234  0.2711 -0.2057
   36MOL    C8912059   3.936   0.907   3.748  0.7753 -0.0322 -0.2332
   36MOL    C9012060   3.797   0.933   3.750  0.3057  0.0546  0.3394
   36MOL    C9112061   3.742   1.048   3.691  0.2006 -0.4000  0.8232
   36MOL    C9212062   3.829   1.150   3.645 -0.4333  0.1330 -0.1604
   36MOL    C9312063   3.972   1.133   3.640 -0.4213  0.0647 -0.3675
   36MOL    C9412064   4.022   1.009   3.701  0.2467 -0.0576 -0.5967
   36MOL    O9512065   3.917   0.667   3.770  0.0085 -0.2389 -0.2596
   36MOL    H9612066   4.050   0.717   4.013  0.5844 -0.4989 -1.0893
   36MOL    H9712067   4.069   0.882   3.969 -0.2037  0.2173  1.4895
   36MOL    H9812068   4.098   0.767   3.774  0.6276 -0.1104  0.2856
   36MOL    H9912069   3.724   0.855   3.769 -0.1540  0.0413 -1.4094
   36MOL   H10012070   3.635   1.064   3.687  0.3446  0.2152 -1.2944
   36MOL   H10112071   3.786   1.242   3.607 -0.1675  1.5002  2.7245
   36MOL   H10212072   4.033   1.208   3.592 -1.4268 -1.0950 -3.5527
   36MOL   H10312073   4.127   0.983   3.703  0.2458 -0.1679 -1.7349
   36MOL   C10412074   3.960   0.585   3.663 -0.0474 -0.3103  0.0874
   36MOL   C10512075   3.869   0.462   3.663  0.0114  0.6114 -0.2471
   36MOL   C10612076   3.899   0.371   3.545 -0.3953  0.0007  0.6646
   36MOL   C10712077   3.937   0.239   3.570  0.1315 -0.2277  0.1237
   36MOL   C10812078   3.945   0.149   3.460 -0.7997  0.0874 -0.3662
   36MOL   C10912079   3.919   0.194   3.330  0.8756 -0.2586  0.1799
   36MOL   C11012080   3.886   0.329   3.302 -0.4707 -0.1915 -0.4607
   36MOL   C11112081   3.872   0.417   3.414 -0.5231  0.5710 -0.2195
   36MOL   O11212082   3.892   0.397   3.790 -0.8226 -0.6210  0.3637
   36MOL   H11312083   3.962   0.634   3.565  2.8754  1.5470  1.0147
   36MOL   H11412084   4.063   0.557   3.684 -0.0770 -0.6517 -0.2201
   36MOL   H11512085   3.768   0.499   3.650  0.4237  1.1842 -1.9860
   36MOL   H11612086   3.942   0.197   3.669 -0.0083 -0.8775 -0.1395
   36MOL   H11712087   3.964   0.047   3.491  0.1523  0.6540  0.9675
   36MOL   H11812088   3.909   0.125   3.247  0.9224  0.1193 -0.1427
   36MOL   H11912089   3.853   0.361   3.204  0.2394 -0.2507 -0.7213
   36MOL   H12012090   3.833   0.517   3.401  1.7789  1.5869  0.3878
   36MOL   C12112091   3.772   0.385   3.866 -0.3053 -0.0923  0.4933
   36MOL   C12212092   3.807   0.298   3.990  0.4172  0.5489  0.2516
   36MOL   C12312093   3.914   0.355   4.081 -0.0757  0.4562 -0.3937
   36MOL   C12412094   4.050   0.326   4.060 -0.3559  0.3817  0.0269
   36MOL   C12512095   4.150   0.402   4.129  0.9348 -0.0553  0.5151
   36MOL   C12612096   4.122   0.492   4.229 -0.0845  0.1556 -0.0404
   36MOL   C12712097   3.985   0.526   4.245 -0.0562  0.1986  0.7931
   36MOL   C12812098   3.880   0.460   4.179  0.7392 -0.1279  0.5966
   36MOL   O12912099   3.692   0.286   4.071  0.1116 -0.2557  0.5182
   36MOL   H13012100   3.696   0.326   3.814 -1.8359  2.8784 -0.7039
   36MOL   H13112101   3.743   0.488   3.885 -2.5356 -0.9859  2.1797
   36MOL   H13212102   3.843   0.199   3.962  2.2064  1.0042  0.9110
   36MOL   H13312103   4.073   0.249   3.988 -1.6919 -0.1793  0.1861
   36MOL   H13412104   4.257   0.391   4.125  0.7564 -1.1293 -2.3293
   36MOL   H13512105   4.197   0.550   4.281 -1.0696  2.1477 -0.7967
   36MOL   H13612106   3.967   0.612   4.308 -1.3047 -1.6977  3.1232
   36MOL   H13712107   3.781   0.504   4.182  1.1482  1.2177 -3.5016
   36MOL   C13812108   3.653   0.159   4.120  0.3033  0.1068 -0.5312
   36MOL   C13912109   3.507   0.168   4.173  0.2380 -0.7294 -0.0728
   36MOL   C14012110   3.480   0.264   4.290 -0.0848  0.2375  0.1320
   36MOL   C14112111   3.515   0.400   4.284  0.5628 -0.9140 -0.2112
   36MOL   C14212112   3.474   0.490   4.381 -0.1452 -0.2204 -0.2864
   36MOL   C14312113   3.418   0.444   4.507  0.1263  0.2752  0.4550
   36MOL   C14412114   3.400   0.304   4.516  0.7075 -0.0360  0.3611
   36MOL   C14512115   3.422   0.211   4.410  0.1370  0.3256 -0.1284
   36MOL   O14612116   3.425   0.201   4.063 -0.1033 -0.1355  0.4821
   36MOL   H14712117   3.724   0.108   4.184 -0.1555 -1.6210 -1.3853
   36MOL   H14812118   3.652   0.094   4.033 -0.6799  0.0578 -0.4870
   36MOL   H14912119   3.472   0.073   4.213  1.0709 -1.0168 -0.0198
   36MOL   H15012120   3.565   0.443   4.198  1.7187  0.6130  1.2122
   36MOL   H15112121   3.487   0.596   4.368 -1.4547  0.1493  1.2494
   36MOL   H15212122   3.381   0.519   4.575 -1.4575 -0.7549  0.7414
   36MOL   H15312123   3.351   0.269   4.606  0.8636 -4.0748 -1.0379
   36MOL   H15412124   3.380   0.112   4.414  1.4941 -0.2914 -0.8370
   36MOL   C15512125   3.285   0.206   4.077  0.1635 -0.4254 -0.1004
   36MOL   C15612126   3.225   0.293   3.966 -0.0204 -0.5676 -0.0148
   36MOL   C15712127   3.296   0.427   3.957 -0.2838  0.4226  0.0433
   36MOL   C15812128   3.400   0.454   3.868 -0.0309  0.4038  0.5329
   36MOL   C15912129   3.477   0.574   3.881  0.4777 -0.0799 -0.3355
   36MOL   C16012130   3.438   0.672   3.975  0.2239 -0.3468  0.2076
   36MOL   C16112131   3.320   0.648   4.055  0.2754 -0.1562  0.0744
   36MOL   C16212132   3.254   0.524   4.053 -0.4282 -0.5513 -0.1678
   36MOL   O16312133   3.238   0.226   3.850 -0.4639  0.1488 -0.1469
   36MOL   H16412134   3.259   0.242   4.177  0.6139 -2.8483  0.9149
   36MOL   H16512135   3.257   0.101   4.082  1.8546 -0.9742 -1.6520
   36MOL   H16612136   3.123   0.316   3.995  0.3754  1.6956 -0.2812
   36MOL   H16712137   3.430   0.380   3.795  2.1756  1.1209  0.6614
   36MOL   H16812138   3.564   0.586   3.819 -0.6675  1.9655 -1.5887
   36MOL   H16912139   3.497   0.762   3.986 -1.9175  0.7534  3.3295
   36MOL   H17012140   3.278   0.729   4.113  1.4748  0.4564  0.0949
   36MOL   H17112141   3.167   0.507   4.115  0.2089  3.9167  2.1571
   36MOL   C17212142   3.128   0.221   3.764  0.8082  0.4492 -0.4227
   36MOL   C17312143   3.152   0.162   3.623  0.1080  0.0855 -0.4743
   36MOL   C17412144   3.035   0.206   3.532  0.1666 -0.2617  0.0529
   36MOL   C17512145   2.915   0.128   3.529  0.4305 -0.1806 -0.1533
   36MOL   C17612146   2.812   0.156   3.434 -0.3888  0.5869 -0.8980
   36MOL   C17712147   2.838   0.251   3.333 -0.3818 -0.0548  1.2024
   36MOL   C17812148   2.955   0.335   3.344  0.1368  0.3707  0.5630
   36MOL   C17912149   3.053   0.304   3.437 -0.6544 -0.8675  0.1483
   36MOL   O18012150   3.166   0.019   3.645  0.0295 -0.7043  0.4527
   36MOL   H18112151   3.047   0.170   3.815  0.9920 -0.5070 -1.0713
   36MOL   H18212152   3.097   0.322   3.735 -2.6497 -0.2166  0.7813
   36MOL   H18312153   3.244   0.212   3.593 -0.3162  0.6805 -0.7959
   36MOL   H18412154   2.892   0.051   3.601 -1.3558  1.1043  0.6947
   36MOL   H18512155   2.715   0.108   3.430  0.5742 -1.3385 -1.6157
   36MOL   H18612156   2.785   0.272   3.241  1.8702 -0.6802 -0.2995
   36MOL   H18712157   2.974   0.405   3.263 -0.7490  0.9289  0.8364
   36MOL   H18812158   3.143   0.362   3.451 -0.8988 -0.7964  1.5309
   36MOL   C18912159   3.194   8.026   3.526 -0.3417 -1.0120  0.2807
   36MOL   C19012160   3.210   7.874   3.554  0.8577  0.1808 -0.4432
   36MOL   C19112161   3.307   7.802   3.457  0.2732  0.2201 -0.1886
   36MOL   C19212162   3.409   7.732   3.518 -0.1108  0.6592 -0.0440
   36MOL   C19312163   3.504   7.666   3.430 -0.1972  0.8269 -0.4193
   36MOL   C19412164   3.487   7.665   3.291  0.0654  0.4156 -1.0699
   36MOL   C19512165   3.379   7.739   3.237  0.1983 -0.3222  0.2092
   36MOL   C19612166   3.287   7.809   3.318  0.1810  0.4473 -0.4476
   36MOL   O19712167   3.077   7.831   3.532 -0.0107  0.1633  0.3370
   36MOL   H19812168   3.119   8.038   3.447  0.5325 -1.4490 -0.6287
   36MOL   H19912169   3.291   8.064   3.494 -0.9678 -0.4098 -0.9315
   36MOL   H20012170   3.239   7.865   3.659 -1.4774  0.8951  0.3094
   36MOL   H20112171   3.411   7.724   3.626  0.3895  0.0610 -0.1001
   36MOL   H20212172   3.592   7.624   3.475 -0.6610 -0.6425 -0.8246
   36MOL   H20312173   3.558   7.616   3.225 -0.0780  2.4529 -2.7895
   36MOL   H20412174   3.365   7.752   3.131 -0.1561  0.3947  0.3403
   36MOL   H20512175   3.211   7.876   3.280  0.1891  0.3788 -0.5861
   36MOL   C20612176   3.046   7.697   3.572 -0.8159 -0.1210  0.4620
   36MOL   C20712177   3.006   7.701   3.720 -0.7250 -0.1010 -0.1189
   36MOL   C20812178   2.908   7.813   3.757  0.0103  0.9576 -0.4977
   36MOL   C20912179   2.793   7.825   3.684  0.9064 -0.0389  0.9180
   36MOL   C21012180   2.700   7.934   3.696  0.1890 -0.2243  0.5966
   36MOL   C21112181   2.721   8.018   3.805  0.7251  0.4441  0.7224
   36MOL   C21212182   2.833   8.003   3.889 -0.3692 -0.9615  0.1500
   36MOL   C21312183   2.923   7.902   3.863 -1.0536 -0.2368 -0.0869
   36MOL   O21412184   3.128   7.699   3.801  0.2427 -0.0283 -0.1744
   36MOL   H21512185   2.954   7.673   3.518 -0.0070 -0.6068 -0.7224
   36MOL   H21612186   3.122   7.623   3.547  0.2812  1.0422  0.2927
   36MOL   H21712187   2.944   7.615   3.745 -1.5792  0.9675  1.5617
   36MOL   H21812188   2.776   7.767   3.594 -1.4272  1.2273  0.4798
   36MOL   H21912189   2.622   7.947   3.623  1.0183 -0.3464 -0.3156
   36MOL   H22012190   2.651   0.018   3.823 -1.6716 -0.7955 -2.4285
   36MOL   H22112191   2.849   8.073   3.970 -1.6670 -0.0540 -0.3725
   36MOL   H22212192   3.009   7.899   3.929 -0.8537  2.3123 -0.1902
   36MOL   C22312193   3.191   7.568   3.802  0.5114  0.8935  0.7234
   36MOL   C22412194   3.126   7.465   3.895 -0.7698  0.2543  0.3710
   36MOL   C22512195   3.063   7.532   4.015  0.2312 -0.1862 -0.3579
   36MOL   C22612196   2.929   7.565   4.014 -0.8715  0.1961  0.3748
   36MOL   C22712197   2.867   7.618   4.127 -0.2968  0.6776 -0.9026
   36MOL   C22812198   2.934   7.625   4.247 -0.6837  0.0480  0.1413
   36MOL   C22912199   3.072   7.589   4.256  1.0172  0.4478 -0.0711
   36MOL   C23012200   3.133   7.544   4.139  0.0713 -0.2057 -0.4717
   36MOL   O23112201   3.022   7.402   3.821 -0.3515  0.0252 -1.0360
   36MOL   H23212202   3.221   7.519   3.710 -1.1020 -0.4457  0.8993
   36MOL   H23312203   3.291   7.582   3.842  0.4767 -1.5645  1.7345
   36MOL   H23412204   3.209   7.400   3.924 -3.3507 -2.6254  1.6025
   36MOL   H23512205   2.859   7.550   3.933  0.4128 -1.6650 -0.4383
   36MOL   H23612206   2.761   7.639   4.123 -0.3832  0.3577 -0.3389
   36MOL   H23712207   2.889   7.669   4.334  0.8458  0.5162  0.7095
   36MOL   H23812208   3.133   7.591   4.345  1.6857 -1.2465 -0.4734
   36MOL   H23912209   3.237   7.513   4.140  0.6209  1.4616  3.8592
   36MOL   C24012210   2.977   7.285   3.887 -0.2843  0.4882  0.1824
   36MOL   C24112211   2.864   7.206   3.819 -0.3620 -0.6197 -0.3340
   36MOL   C24212212   2.818   7.093   3.901 -0.3761  0.2615 -0.4409
   36MOL   C24312213   2.857   6.961   3.870 -0.1571 -0.3159  0.0924
   36MOL   C24412214   2.820   6.852   3.957  0.0551 -0.1372  0.1665
   36MOL   C24512215   2.739   6.879   4.069 -0.6635 -0.3041  0.1366
   36MOL   C24612216   2.699   7.011   4.089  0.6061 -0.1144 -0.0761
   36MOL   C24712217   2.735   7.119   4.009 -0.8834 -0.6244  0.5559
   36MOL   O24812218   2.771   7.309   3.804  0.7732  0.0951 -0.3709
   36MOL   H24912219   3.060   7.214   3.894  0.0253  0.6246 -1.9239
   36MOL   H25012220   2.948   7.308   3.990 -0.7340 -2.2781  0.7018
   36MOL   H25112221   2.908   7.172   3.725  0.9331  2.0846 -0.7636
   36MOL   H25212222   2.931   6.950   3.792  1.4651  0.9183  1.4517
   36MOL   H25312223   2.866   6.754   3.965  0.8851  0.2771  0.5727
   36MOL   H25412224   2.721   6.805   4.145  0.5009 -0.6024  0.1257
   36MOL   H25512225   2.653   7.025   4.186  0.2880  0.3394 -0.2867
   36MOL   H25612226   2.698   7.217   4.035 -0.4708 -0.3516  0.1311
   36MOL   C25712227   2.740   7.335   3.667  0.2202 -0.0473  0.0887
   36MOL   C25812228   2.628   7.250   3.601 -0.4340 -1.0249  0.0666
   36MOL   C25912229   2.491   7.247   3.672 -0.3806 -0.1893  0.6409
   36MOL   C26012230   2.450   7.138   3.747  0.0003 -0.5309 -0.4036
   36MOL   C26112231   2.321   7.150   3.816 -0.2769 -0.4181  0.0700
   36MOL   C26212232   2.241   7.267   3.800  0.3686  0.1820  0.7014
   36MOL   C26312233   2.291   7.378   3.739 -1.1909 -0.1532  0.0245
   36MOL   C26412234   2.420   7.371   3.674  0.6576  1.0092 -0.2058
   36MOL   O26512235   2.682   7.118   3.574  0.0735 -0.0455  0.7605
   36MOL   H26612236   2.825   7.348   3.600  0.2697 -1.5517 -0.1496
   36MOL   H26712237   2.702   7.436   3.680 -1.4229 -0.8591  1.7548
   36MOL   H26812238   2.612   7.293   3.501 -1.3816  0.8631  0.9958
   36MOL   H26912239   2.516   7.059   3.781  1.2649  1.9539  3.1829
   36MOL   H27012240   2.289   7.072   3.882 -0.3896  1.2950  2.1092
   36MOL   H27112241   2.145   7.268   3.850  0.4740 -0.3002  0.9107
   36MOL   H27212242   2.232   7.468   3.743 -1.9686 -0.7300  2.3199
   36MOL   H27312243   2.447   7.466   3.629  1.7002  0.5828 -0.5161
   36MOL   C27412244   2.625   7.040   3.471  0.4145 -0.0723  0.6638
   36MOL   C27512245   2.662   6.890   3.500  0.1199 -1.0066 -0.1562
   36MOL   C27612246   2.665   6.815   3.364 -0.5525  0.2003  0.1622
   36MOL   C27712247   2.550   6.808   3.278  0.0568  0.0318 -0.2406
   36MOL   C27812248   2.553   6.744   3.154 -0.1605 -0.1419 -0.1080
   36MOL   C27912249   2.673   6.688   3.113 -0.0637 -0.5567 -0.3435
   36MOL   C28012250   2.789   6.688   3.193  0.1353  0.0356 -0.2061
   36MOL   C28112251   2.778   6.746   3.320 -0.7948 -0.4098 -0.4694
   36MOL   O28212252   2.585   6.829   3.601 -0.0415  0.0398 -0.4465
   36MOL   H28312253   2.517   7.049   3.459  0.5734 -0.0422 -0.8810
   36MOL   H28412254   2.673   7.081   3.382  0.8615  0.5438  1.1781
   36MOL   H28512255   2.766   6.895   3.533  0.2571  0.5381 -0.7485
   36MOL   H28612256   2.465   6.869   3.306 -1.1545 -2.2344  1.1854
   36MOL   H28712257   2.466   6.731   3.092 -0.7469 -0.0950  0.6847
   36MOL   H28812258   2.683   6.641   3.016 -0.1786 -0.5258 -0.3699
   36MOL   H28912259   2.883   6.661   3.149  1.2860  0.4388  1.9416
   36MOL   H29012260   2.873   6.751   3.372  0.2642  1.4777 -2.5376
   36MOL   C29112261   2.627   6.690   3.633 -0.2747  0.0066  0.8137
   36MOL   C29212262   2.566   6.648   3.767  0.1092 -0.5625 -0.5584
   36MOL   C29312263   2.420   6.660   3.750 -0.5335 -0.0548  0.0335
   36MOL   C29412264   2.351   6.782   3.759 -0.1236  0.2340 -0.3211
   36MOL   C29512265   2.215   6.789   3.729  0.0450 -0.4758  0.7439
   36MOL   C29612266   2.141   6.675   3.697  0.6095  0.3487  0.5214
   36MOL   C29712267   2.206   6.557   3.692 -0.2834  0.5350 -0.9455
   36MOL   C29812268   2.343   6.545   3.718 -0.8266 -0.2905 -0.2929
   36MOL   O29912269   2.614   6.516   3.788 -0.3566  0.1065  0.2736
   36MOL   H30012270   2.734   6.682   3.648 -0.1691  1.4619  0.9158
   36MOL   H30112271   2.609   6.624   3.548  2.2504  0.4797 -0.1277
   36MOL   H30212272   2.599   6.728   3.833  0.9234  1.5309 -3.4050
   36MOL   H30312273   2.400   6.877   3.768 -2.4064  1.4051  0.0493
   36MOL   H30412274   2.164   6.884   3.725  0.0610 -0.4948 -0.0304
   36MOL   H30512275   2.036   6.678   3.674  0.2829 -3.3811  1.2333
   36MOL   H30612276   2.142   6.475   3.662 -2.1441  1.8552 -0.6745
   36MOL   H30712277   2.388   6.447   3.718 -1.0042 -0.3985  2.4037
   36MOL   C30812278   2.693   6.505   3.908  0.4571  0.5471  0.5291
   36MOL   C30912279   2.688   6.358   3.965  0.4902  0.1555 -0.4484
   36MOL   C31012280   2.743   6.256   3.867 -0.0465  0.2090  0.4510
   36MOL   C31112281   2.887   6.241   3.839 -0.2343  0.2082  0.1014
   36MOL   C31212282   2.937   6.127   3.771 -0.6978  0.1636  0.0851
   36MOL   C31312283   2.847   6.029   3.721  0.2412 -0.9719 -0.3194
   36MOL   C31412284   2.707   6.044   3.751 -0.6143 -0.0253 -0.1522
   36MOL   C31512285   2.655   6.159   3.809  0.6536 -0.2978  0.0555
   36MOL   O31612286   2.769   6.358   4.078  0.0400 -0.4869 -0.2724
   36MOL   H31712287   2.662   6.570   3.990  2.4311 -0.7104  2.3181
   36MOL   H31812288   2.792   6.545   3.885  0.7961  1.1750  2.9052
   36MOL   H31912289   2.585   6.344   3.996  1.1612 -2.6762  0.6734
   36MOL   H32012290   2.955   6.319   3.869 -0.1287 -0.1454  0.8032
   36MOL   H32112291   3.044   6.120   3.759 -1.1033 -1.1189 -3.1771
   36MOL   H32212292   2.884   5.938   3.678  1.0234 -0.2814 -1.1346
   36MOL   H32312293   2.632   5.972   3.720  0.3871 -0.3876 -1.8092
   36MOL   H32412294   2.549   6.178   3.819  0.5699 -1.0333  0.6274
   36MOL   C32512295   2.760   6.242   4.158  0.2608  0.4366  0.0550
   36MOL   C32612296   2.833   6.253   4.293  0.4975  0.6819 -1.0882
   36MOL   C32712297   2.793   6.375   4.377 -0.5005 -0.4406 -0.9177
   36MOL   C32812298   2.888   6.468   4.422 -0.8431 -0.4950 -0.2580
   36MOL   C32912299   2.844   6.584   4.487  0.5184  0.0666 -0.6876
   36MOL   C33012300   2.710   6.606   4.516  0.3852  0.1648  0.4496
   36MOL   C33112301   2.611   6.511   4.475 -0.0706  0.3782 -0.3031
   36MOL   C33212302   2.652   6.393   4.404  0.3865 -0.2210 -0.6332
   36MOL   O33312303   2.832   6.129   4.363 -0.3165 -0.3609 -0.6863
   36MOL   H33412304   2.801   6.154   4.107  1.5088  0.1734  1.4826
   36MOL   H33512305   2.656   6.211   4.162  0.7725 -1.5032 -0.9797
   36MOL   H33612306   2.939   6.258   4.267  0.0535 -0.2207 -3.1945
   36MOL   H33712307   2.989   6.452   4.388 -1.3087 -1.6928 -1.1140
   36MOL   H33812308   2.915   6.659   4.519 -0.1564  0.3544  0.1535
   36MOL   H33912309   2.676   6.695   4.567  1.1831  0.9036 -0.2954
   36MOL   H34012310   2.506   6.521   4.496  0.2401  1.1030  0.9975
   36MOL   H34112311   2.590   6.313   4.365 -2.2110  2.1357 -1.4808
   36MOL   H34212312   2.746   6.104   4.394  0.4379  0.8008  2.5873
   37MOL     C112313   0.971   4.457   2.809  0.4386  0.6318  0.0183
   37MOL     C212314   0.924   4.559   2.702 -0.1163  0.2983 -0.0903
   37MOL     C312315   0.799   4.510   2.636  0.0436  0.2898  0.1844
   37MOL     C412316   0.678   4.570   2.671  0.1793  0.1758  0.1402
   37MOL     C512317   0.552   4.524   2.623  0.1537 -0.2089 -0.5397
   37MOL     C612318   0.555   4.416   2.539 -0.0586  0.1076 -0.0511
   37MOL     C712319   0.670   4.352   2.508  0.7868  0.8769 -0.3888
   37MOL     C812320   0.792   4.401   2.549 -0.5175  0.2783 -0.6480
   37MOL     O912321   1.025   4.574   2.602 -0.8317 -0.4022 -0.3416
   37MOL    H1012322   0.982   4.356   2.769 -0.3338  1.1348 -1.4992
   37MOL    H1112323   1.060   4.496   2.858  0.9441 -0.1758 -0.2488
   37MOL    H1212324   0.903   4.643   2.768 -0.6686 -0.2377  0.4188
   37MOL    H1312325   0.680   4.658   2.734 -3.1446 -0.0668  0.7126
   37MOL    H1412326   0.455   4.566   2.645  0.9461  1.4296 -0.0828
   37MOL    H1512327   0.466   4.382   2.489 -0.7697  1.7726  0.0425
   37MOL    H1612328   0.669   4.266   2.444 -1.5363  1.1470 -0.7458
   37MOL    H1712329   0.884   4.356   2.516 -0.2042  2.2588 -2.5450
   37MOL    H1812330   0.894   4.438   2.884 -1.1409  3.2080 -0.8915
   37MOL    C1912331   1.022   4.688   2.513 -0.0572  0.8852  0.5091
   37MOL    C2012332   1.125   4.678   2.405  0.0937  0.4461  0.0929
   37MOL    C2112333   1.260   4.735   2.456 -0.5013 -0.1178  0.5960
   37MOL    C2212334   1.350   4.662   2.531  0.0733 -0.9854  0.2273
   37MOL    C2312335   1.466   4.716   2.587 -0.2656 -0.8325 -0.0190
   37MOL    C2412336   1.495   4.852   2.561 -0.3674  0.1655 -0.0751
   37MOL    C2512337   1.399   4.933   2.497  0.5108 -0.1710  0.4212
   37MOL    C2612338   1.286   4.872   2.442  0.1516  0.1081  0.5261
   37MOL    O2712339   1.080   4.767   2.297  0.1579  0.4766  0.3590
   37MOL    H2812340   0.925   4.684   2.464  0.4631 -0.7102 -0.4305
   37MOL    H2912341   1.024   4.774   2.579 -1.7425 -0.5020  2.4320
   37MOL    H3012342   1.126   4.575   2.370 -2.1310  0.3509  0.2623
   37MOL    H3112343   1.330   4.558   2.551 -1.2747 -0.6569  0.5906
   37MOL    H3212344   1.541   4.658   2.639  0.3751  0.5756  0.6708
   37MOL    H3312345   1.588   4.895   2.597 -0.4210  0.7466 -0.6129
   37MOL    H3412346   1.422   5.039   2.493  0.2659 -0.1558 -0.5490
   37MOL    H3512347   1.208   4.936   2.405  1.2713 -0.0635 -2.1959
   37MOL    C3612348   1.147   4.742   2.165  0.0084  0.0515 -0.1198
   37MOL    C3712349   1.167   4.864   2.068  0.0596 -0.4517 -0.3826
   37MOL    C3812350   1.287   4.952   2.119 -0.1965  0.7965  0.4835
   37MOL    C3912351   1.259   5.088   2.149  0.0459  0.3450  0.4519
   37MOL    C4012352   1.357   5.172   2.197 -0.6698 -0.2305  0.5053
   37MOL    C4112353   1.491   5.116   2.202 -0.4995 -0.2001 -0.3831
   37MOL    C4212354   1.518   4.985   2.172  0.1178 -0.1920 -0.6881
   37MOL    C4312355   1.418   4.898   2.125  0.0059  0.1430  0.1436
   37MOL    O4412356   1.051   4.940   2.050  0.1258  0.0826  0.1103
   37MOL    H4512357   1.243   4.691   2.173  0.8182  1.5997  0.3612
   37MOL    H4612358   1.086   4.671   2.109 -0.7218  1.4258 -1.0904
   37MOL    H4712359   1.199   4.818   1.975 -0.2768 -0.6237 -0.4162
   37MOL    H4812360   1.158   5.124   2.133 -0.1680 -0.7490 -0.8076
   37MOL    H4912361   1.328   5.276   2.197 -0.8474 -0.2721 -0.4913
   37MOL    H5012362   1.570   5.182   2.234 -0.7289 -1.1932  2.3877
   37MOL    H5112363   1.621   4.956   2.180  1.4922  4.7612  2.0969
   37MOL    H5212364   1.426   4.791   2.112 -0.8446  0.0002  0.8014
   37MOL    C5312365   0.948   4.865   1.984  0.1106  0.4050 -0.4867
   37MOL    C5412366   0.861   4.963   1.908  0.4157  0.4260 -0.3263
   37MOL    C5512367   0.763   4.893   1.817  0.1936 -0.5185 -0.1295
   37MOL    C5612368   0.794   4.885   1.679 -0.5293 -0.1976 -0.5192
   37MOL    C5712369   0.704   4.812   1.595 -0.0356  0.5010 -0.0354
   37MOL    C5812370   0.581   4.766   1.643 -0.4147 -0.1808  1.3107
   37MOL    C5912371   0.551   4.790   1.780 -0.0259 -0.0546  0.3654
   37MOL    C6012372   0.638   4.856   1.863  0.1460  0.1156 -0.5002
   37MOL    O6112373   0.788   5.038   2.001  0.6106 -0.3915  0.6220
   37MOL    H6212374   0.987   4.802   1.904  4.1172  0.2798  1.4248
   37MOL    H6312375   0.892   4.800   2.051 -1.2241  2.3874  0.3657
   37MOL    H6412376   0.922   5.033   1.851  1.7395 -0.1333  0.3948
   37MOL    H6512377   0.888   4.919   1.640  0.6866 -0.4357  2.0972
   37MOL    H6612378   0.731   4.790   1.493  0.1083 -1.1697  0.3568
   37MOL    H6712379   0.518   4.705   1.581 -0.0122 -1.1149  1.8152
   37MOL    H6812380   0.457   4.758   1.823  0.3269 -0.9674  0.4708
   37MOL    H6912381   0.619   4.866   1.969  1.5315  0.1589 -0.2399
   37MOL    C7012382   0.807   5.175   1.989 -1.0598 -0.9398  0.3911
   37MOL    C7112383   0.754   5.229   2.129 -0.4691 -0.0384 -0.3114
   37MOL    C7212384   0.848   5.201   2.241 -0.1139  0.2031 -0.8774
   37MOL    C7312385   0.861   5.071   2.302  0.3655 -0.1129  1.1676
   37MOL    C7412386   0.964   5.047   2.400  0.0300  0.6815  0.7349
   37MOL    C7512387   1.049   5.154   2.444 -0.3823  0.5593 -0.0808
   37MOL    C7612388   1.032   5.282   2.382 -0.1989 -0.6430  0.2747
   37MOL    C7712389   0.934   5.306   2.281  0.6898  0.3836 -0.5875
   37MOL    O7812390   0.614   5.187   2.156 -0.1723  0.0980 -0.2447
   37MOL    H7912391   0.914   5.198   1.988 -1.3279  0.4248  0.7737
   37MOL    H8012392   0.753   5.226   1.909 -1.5173  0.0106  1.2957
   37MOL    H8112393   0.740   5.337   2.123  0.2795  0.2997  3.0846
   37MOL    H8212394   0.790   4.999   2.265 -0.9063  0.4784  2.4260
   37MOL    H8312395   0.970   4.949   2.446  1.4221  1.7126  2.8153
   37MOL    H8412396   1.131   5.134   2.512  1.0961  1.7494 -1.4857
   37MOL    H8512397   1.094   5.362   2.420 -1.7871  0.6153  0.3080
   37MOL    H8612398   0.933   5.402   2.232 -1.4967  0.0558 -1.2569
   37MOL    C8712399   0.525   5.226   2.048  0.3305  0.4280  0.1532
   37MOL    C8812400   0.379   5.184   2.090 -0.1137 -0.3295 -0.0645
   37MOL    C8912401   0.290   5.161   1.966  0.7362 -0.2657  0.2442
   37MOL    C9012402   0.180   5.249   1.946 -0.0279  0.2725  0.0204
   37MOL    C9112403   0.085   5.232   1.847  0.2128  0.4503 -0.5965
   37MOL    C9212404   0.108   5.134   1.750 -0.2137  0.9804  0.9099
   37MOL    C9312405   0.223   5.050   1.760 -0.7210 -0.0918 -0.2116
   37MOL    C9412406   0.316   5.061   1.868 -0.6159 -0.2727  0.9969
   37MOL    O9512407   0.310   5.282   2.174 -0.0994  0.5576 -0.2264
   37MOL    H9612408   0.542   5.164   1.960  0.5898 -2.9968  2.5191
   37MOL    H9712409   0.514   5.333   2.033  0.6663  0.1888 -1.9574
   37MOL    H9812410   0.369   5.087   2.139 -2.8459  0.3688  0.8519
   37MOL    H9912411   0.158   5.329   2.016 -1.2654  1.6250 -1.8915
   37MOL   H10012412   8.075   5.292   1.853 -1.8176 -2.4416 -1.4071
   37MOL   H10112413   0.032   5.119   1.676 -1.6821 -0.3924  2.6451
   37MOL   H10212414   0.229   4.973   1.684  2.1454 -0.8889  0.7453
   37MOL   H10312415   0.402   4.995   1.877  0.4638  1.0715  0.7819
   37MOL   C10412416   0.381   5.328   2.293 -0.1930 -0.3608 -0.8435
   37MOL   C10512417   0.403   5.229   2.414  0.0696  0.6529  0.0993
   37MOL   C10612418   0.488   5.297   2.513 -1.0692 -0.5842 -0.1332
   37MOL   C10712419   0.623   5.262   2.528  0.0891 -0.2494  0.4485
   37MOL   C10812420   0.703   5.324   2.628  0.8871 -0.2403  0.1191
   37MOL   C10912421   0.655   5.427   2.708 -0.6575 -0.4092  0.2704
   37MOL   C11012422   0.520   5.456   2.705  0.4541  0.2097  0.6866
   37MOL   C11112423   0.435   5.389   2.607 -0.2050  0.4381  0.1680
   37MOL   O11212424   0.272   5.202   2.458  0.1138 -0.6147  0.0087
   37MOL   H11312425   0.477   5.367   2.259  0.1648 -0.1317  0.3882
   37MOL   H11412426   0.329   5.420   2.319  0.8351 -0.6987  2.6851
   37MOL   H11512427   0.455   5.136   2.391 -1.8947 -0.4444 -0.0134
   37MOL   H11612428   0.667   5.186   2.465  0.0166  0.0626  0.0158
   37MOL   H11712429   0.802   5.283   2.637  0.9359 -0.4119 -1.1116
   37MOL   H11812430   0.721   5.482   2.774  0.2775  0.2077 -1.1634
   37MOL   H11912431   0.481   5.534   2.768 -2.9342 -0.1030 -0.9097
   37MOL   H12012432   0.331   5.417   2.600 -0.2236  0.1289 -0.9749
   37MOL   C12112433   0.212   5.083   2.418 -0.0409  0.9742  0.7952
   37MOL   C12212434   0.065   5.073   2.456 -0.4790 -0.3516 -0.0031
   37MOL   C12312435   8.071   5.203   2.425 -0.0950 -0.1568  0.2969
   37MOL   C12412436   8.000   5.274   2.522  0.2735  1.3018  0.5434
   37MOL   C12512437   7.927   5.398   2.494 -0.6705  0.2102 -0.2742
   37MOL   C12612438   7.935   5.445   2.363 -0.0010  0.0720  0.7605
   37MOL   C12712439   8.008   5.375   2.262  0.2498 -0.0785  0.0534
   37MOL   C12812440   8.074   5.258   2.291  0.0385 -0.0007  0.7399
   37MOL   O12912441   0.007   4.969   2.380  0.9578 -0.2905  0.4340
   37MOL   H13012442   0.251   4.992   2.465 -2.0860  0.0588  0.7908
   37MOL   H13112443   0.232   5.060   2.313 -2.3742  0.2456  0.4761
   37MOL   H13212444   0.060   5.059   2.564  1.2691 -0.9829  0.0183
   37MOL   H13312445   7.987   5.224   2.617 -0.8788 -0.4786 -0.5363
   37MOL   H13412446   7.875   5.451   2.572  1.1562 -0.6992  1.6114
   37MOL   H13512447   7.884   5.535   2.331  0.9486  0.3087 -0.1510
   37MOL   H13612448   8.000   5.412   2.161  0.8842 -1.0040 -0.3420
   37MOL   H13712449   0.048   5.211   2.210  2.1290  2.9420  0.3257
   37MOL   C13812450   0.002   4.850   2.460  0.7991  0.1976  0.1607
   37MOL   C13912451   0.015   4.729   2.359 -0.2204 -0.1233  0.0693
   37MOL   C14012452   0.164   4.724   2.307  0.1423  0.4781  0.1058
   37MOL   C14112453   0.263   4.647   2.372 -0.1375  0.2006  0.2115
   37MOL   C14212454   0.393   4.653   2.327  0.0645 -0.0790  0.5368
   37MOL   C14312455   0.431   4.726   2.214  0.2243 -0.2383  0.1378
   37MOL   C14412456   0.330   4.794   2.147  0.1452 -0.1691 -0.0776
   37MOL   C14512457   0.198   4.795   2.190  0.1519  0.0100 -0.3494
   37MOL   O14612458   8.052   4.605   2.422  0.3201  0.0693  0.5506
   37MOL   H14712459   7.981   4.856   2.500  0.2668  1.8017 -1.3261
   37MOL   H14812460   0.068   4.834   2.545  0.8836 -0.0403  0.0514
   37MOL   H14912461   8.043   4.740   2.264  1.3597 -3.1814 -1.2449
   37MOL   H15012462   0.241   4.607   2.470  1.9336 -1.7151 -0.0843
   37MOL   H15112463   0.470   4.606   2.386  0.9283 -0.2100 -0.6638
   37MOL   H15212464   0.532   4.730   2.176 -0.6524 -0.9295 -2.2855
   37MOL   H15312465   0.353   4.844   2.054 -1.3458  1.1385  0.2302
   37MOL   H15412466   0.113   4.848   2.149  0.0975  0.3342  0.1742
   37MOL   C15512467   7.914   4.568   2.409  0.4543 -0.6605  0.2961
   37MOL   C15612468   7.859   4.528   2.545  0.6029  0.5892 -0.1124
   37MOL   C15712469   7.712   4.571   2.560 -0.4151  0.1732 -0.0815
   37MOL   C15812470   7.683   4.684   2.639 -0.4425 -0.5401 -0.0254
   37MOL   C15912471   7.545   4.728   2.644  0.3725 -0.4940  0.2397
   37MOL   C16012472   7.438   4.655   2.584 -0.2982  0.4703  0.2642
   37MOL   C16112473   7.473   4.543   2.505 -0.6827  0.7907 -0.5297
   37MOL   C16212474   7.607   4.502   2.495  0.4842 -0.0561  0.1650
   37MOL   O16312475   7.889   4.394   2.568  0.0527 -0.7977 -0.4165
   37MOL   H16412476   7.894   4.489   2.336 -1.7418  0.2554 -0.1611
   37MOL   H16512477   7.862   4.659   2.377  1.1901 -0.5615 -0.6280
   37MOL   H16612478   7.916   4.589   2.614  2.3183  0.6776 -1.5530
   37MOL   H16712479   7.761   4.741   2.688  0.6855 -1.1679 -1.0780
   37MOL   H16812480   7.522   4.812   2.708  0.1991 -1.5041  1.5356
   37MOL   H16912481   7.333   4.682   2.592 -0.7514 -1.2348  0.1722
   37MOL   H17012482   7.400   4.482   2.453 -0.2889 -0.7224  0.6585
   37MOL   H17112483   7.638   4.414   2.441  0.5193 -0.4123  0.7630
   37MOL   C17212484   7.852   4.354   2.699  0.3444  0.6812 -0.2299
   37MOL   C17312485   7.931   4.224   2.724 -0.0430 -0.8628 -0.1422
   37MOL   C17412486   7.865   4.119   2.644  0.2791 -0.1543 -0.0988
   37MOL   C17512487   7.891   4.094   2.507 -0.0345 -0.2760  0.4504
   37MOL   C17612488   7.825   3.990   2.440  0.4164  0.9075  0.4316
   37MOL   C17712489   7.728   3.915   2.501 -0.3878 -0.1183 -0.1758
   37MOL   C17812490   7.703   3.937   2.634  0.1250  0.2284 -0.0365
   37MOL   C17912491   7.779   4.031   2.712 -0.1851  0.4797  0.2743
   37MOL   O18012492   7.918   4.202   2.866 -0.2430 -0.0720 -0.2548
   37MOL   H18112493   7.892   4.420   2.776  3.9263  1.0025 -2.2405
   37MOL   H18212494   7.746   4.331   2.712  0.4803  0.5972  0.8283
   37MOL   H18312495   8.034   4.234   2.690  0.0744 -1.1943  0.1161
   37MOL   H18412496   7.963   4.159   2.461  1.5152 -1.0665  1.6916
   37MOL   H18512497   7.842   3.976   2.335 -0.4713  0.1220  0.3829
   37MOL   H18612498   7.666   3.844   2.449 -0.5171  1.4831 -2.2959
   37MOL   H18712499   7.635   3.862   2.673 -0.0069  0.1026 -0.5068
   37MOL   H18812500   7.747   4.043   2.814  0.2339  1.8406  0.2506
   37MOL   C18912501   8.013   4.108   2.918  0.0268 -0.9953 -0.2822
   37MOL   C19012502   8.049   4.169   3.056  0.6674 -0.1422 -0.3717
   37MOL   C19112503   7.927   4.162   3.144 -0.1611 -0.1071  0.0055
   37MOL   C19212504   7.919   4.051   3.232  0.9013  0.0909  0.4912
   37MOL   C19312505   7.813   4.052   3.325 -0.0779  0.4614  0.4713
   37MOL   C19412506   7.718   4.153   3.329 -0.3136  0.3634 -0.4534
   37MOL   C19512507   7.721   4.257   3.237 -0.2489 -0.3834 -0.4483
   37MOL   C19612508   7.821   4.261   3.143  0.4706 -0.4267  0.0988
   37MOL   O19712509   0.008   4.305   3.042  0.2855 -0.4929 -0.2883
   37MOL   H19812510   7.975   4.006   2.919 -1.1722 -0.5589  0.7612
   37MOL   H19912511   0.025   4.108   2.859 -0.6232 -0.7494 -1.3130
   37MOL   H20012512   0.046   4.105   3.100  0.4954 -1.4166 -1.8821
   37MOL   H20112513   7.997   3.977   3.236  0.2086 -0.7180 -0.7786
   37MOL   H20212514   7.795   3.964   3.386  1.5365  1.2614  2.1541
   37MOL   H20312515   7.638   4.141   3.402  1.4145 -2.0795  1.0933
   37MOL   H20412516   7.641   4.330   3.233 -0.3189 -0.3105  1.7715
   37MOL   H20512517   7.826   4.351   3.084  1.4734 -0.1520  0.5939
   37MOL   C20612518   0.091   4.356   3.142 -0.6555 -0.0606  0.0150
   37MOL   C20712519   0.214   4.412   3.059  0.0148 -0.3073 -0.5838
   37MOL   C20812520   0.181   4.542   2.991 -0.2701  0.6811  0.6781
   37MOL   C20912521   0.128   4.536   2.857 -0.5590 -0.0954 -0.2099
   37MOL   C21012522   0.119   4.651   2.783 -0.8528 -0.0936 -0.5431
   37MOL   C21112523   0.131   4.783   2.848  0.7768 -0.0018 -0.8606
   37MOL   C21212524   0.160   4.784   2.991  0.9280  0.2191  0.8078
   37MOL   C21312525   0.202   4.666   3.052  0.6715 -0.1952  0.2890
   37MOL   O21412526   0.257   4.310   2.963  1.0251  0.4790  0.2298
   37MOL   H21512527   0.039   4.445   3.179  1.0500  0.6894  0.6904
   37MOL   H21612528   0.124   4.283   3.216 -1.5946  0.0745  0.5696
   37MOL   H21712529   0.293   4.429   3.133  0.1403  2.5800 -1.3134
   37MOL   H21812530   0.108   4.437   2.820  0.6865  0.3502 -2.1720
   37MOL   H21912531   0.083   4.646   2.682  1.0462 -0.0252 -1.2532
   37MOL   H22012532   0.102   4.877   2.804 -2.3294  0.2904  1.6316
   37MOL   H22112533   0.167   4.876   3.047 -1.0334 -0.5572  2.3750
   37MOL   H22212534   0.239   4.675   3.153 -1.7882  0.8509  1.1451
   37MOL   C22312535   0.385   4.327   2.907 -0.2950  0.6482 -0.3383
   37MOL   C22412536   0.429   4.192   2.852  0.6626  0.3927 -0.5237
   37MOL   C22512537   0.430   4.077   2.949  0.0767  0.1573  0.5984
   37MOL   C22612538   0.554   4.024   2.993  0.3837  0.2960 -0.0103
   37MOL   C22712539   0.569   3.953   3.112  0.0214 -0.4820  0.5643
   37MOL   C22812540   0.451   3.903   3.165  0.8634  0.3241 -0.7371
   37MOL   C22912541   0.321   3.938   3.115 -0.6934 -0.6282  0.4072
   37MOL   C23012542   0.312   4.030   3.007 -0.3526  0.3097  0.6533
   37MOL   O23112543   0.339   4.164   2.742  0.0935 -0.0784  0.3453
   37MOL   H23212544   0.386   4.412   2.838  1.2779 -0.0394 -1.1913
   37MOL   H23312545   0.460   4.360   2.979  0.2571  3.0551 -1.9257
   37MOL   H23412546   0.530   4.197   2.810  1.1723  0.1463  0.6454
   37MOL   H23512547   0.648   4.047   2.946 -0.5441  3.5210 -0.4419
   37MOL   H23612548   0.663   3.925   3.157  2.0042  1.2311 -2.3869
   37MOL   H23712549   0.451   3.847   3.257 -1.4253 -0.8783 -1.4212
   37MOL   H23812550   0.231   3.907   3.167 -0.3189 -1.2617  0.6858
   37MOL   H23912551   0.214   4.063   2.976 -0.0480  1.0285  0.4633
   37MOL   C24012552   0.373   4.053   2.659 -0.0353 -0.4530  0.0151
   37MOL   C24112553   0.248   4.000   2.591 -1.0888  0.3332 -0.3560
   37MOL   C24212554   0.194   4.077   2.466 -0.3156  0.2876 -0.4653
   37MOL   C24312555   0.139   4.007   2.354 -0.7171 -0.1881 -0.0156
   37MOL   C24412556   0.066   4.074   2.260 -0.1735 -0.1445 -0.8577
   37MOL   C24512557   0.044   4.214   2.278 -0.1519  0.1944  0.3162
   37MOL   C24612558   0.097   4.286   2.386  0.2316 -0.6834 -0.2428
   37MOL   C24712559   0.172   4.215   2.480  0.6201  0.5820  0.1591
   37MOL   O24812560   0.265   3.859   2.569 -0.0965  0.6923  0.0772
   37MOL   H24912561   0.437   4.090   2.579 -3.1793  0.8481 -1.9906
   37MOL   H25012562   0.426   3.973   2.711 -0.0660  0.4788  1.5101
   37MOL   H25112563   0.163   4.011   2.659 -2.0417  0.9587 -1.6373
   37MOL   H25212564   0.151   3.901   2.338 -0.7598  0.0972 -2.1448
   37MOL   H25312565   0.030   4.022   2.172 -1.1935  2.5677 -2.1241
   37MOL   H25412566   8.055   4.267   2.212 -2.0370 -0.4631  1.7099
   37MOL   H25512567   0.081   4.392   2.399  1.2729 -0.5698  0.2121
   37MOL   H25612568   0.208   4.272   2.565  1.5869 -1.3566  1.0842
   37MOL   C25712569   0.244   3.770   2.682 -0.1643 -0.5637 -0.5445
   37MOL   C25812570   0.094   3.755   2.723 -0.3313  0.0149  0.5405
   37MOL   C25912571   0.096   3.677   2.858 -0.5023 -0.0704  0.0167
   37MOL   C26012572   0.075   3.753   2.970 -0.2641 -0.1270 -0.2294
   37MOL   C26112573   0.094   3.692   3.091 -0.4919 -0.6391  0.3842
   37MOL   C26212574   0.129   3.549   3.102 -0.0394 -0.3290 -0.0341
   37MOL   C26312575   0.132   3.471   2.986 -0.8697 -0.2617  0.4222
   37MOL   C26412576   0.113   3.537   2.863  0.3769  0.3905 -0.7980
   37MOL   O26512577   0.049   3.670   2.628  0.3900 -0.1889  0.5474
   37MOL   H26612578   0.305   3.795   2.769 -0.5773  0.3880 -0.5267
   37MOL   H26712579   0.288   3.675   2.651 -1.0825 -1.2267  0.1348
   37MOL   H26812580   0.028   3.841   2.730  0.6506  0.8118  0.2410
   37MOL   H26912581   0.050   3.858   2.964  2.6678  0.6619  0.2187
   37MOL   H27012582   0.086   3.745   3.185  3.3550 -1.0712  1.0368
   37MOL   H27112583   0.152   3.506   3.198 -0.6691 -2.2067 -0.7039
   37MOL   H27212584   0.157   3.366   2.985 -0.3112 -0.1277  0.0691
   37MOL   H27312585   0.125   3.473   2.777  0.9571  0.2741 -0.6300
   37MOL   C27412586   8.045   3.715   2.518 -0.0798 -0.4126  0.6357
   37MOL   C27512587   8.033   3.601   2.412  0.2413 -0.5047  0.3270
   37MOL   C27612588   8.006   3.660   2.268  0.0288 -0.8277  0.8076
   37MOL   C27712589   0.032   3.675   2.175  0.1293  0.8264 -0.6448
   37MOL   C27812590   0.003   3.733   2.047  0.1970 -0.7939 -0.0320
   37MOL   C27912591   7.955   3.770   2.015  0.1539 -0.5603 -0.8722
   37MOL   C28012592   7.851   3.761   2.113  0.2078  0.0763  0.2691
   37MOL   C28112593   7.877   3.699   2.234 -0.0727  0.1277 -0.9888
   37MOL   O28212594   7.926   3.512   2.447 -0.4939  0.1420  0.3763
   37MOL   H28312595   7.946   3.743   2.553 -1.2771  0.3242 -3.1225
   37MOL   H28412596   0.011   3.798   2.464 -0.9433 -2.7191 -3.8692
   37MOL   H28512597   0.039   3.533   2.416 -0.0293 -0.8611  0.0948
   37MOL   H28612598   0.133   3.654   2.208  0.3471 -1.2274 -2.5071
   37MOL   H28712599   0.087   3.744   1.979  0.8818  0.5763  1.0173
   37MOL   H28812600   7.942   3.807   1.914 -0.9837 -0.3346 -0.6451
   37MOL   H28912601   7.753   3.791   2.080  0.5576 -1.1473 -1.9860
   37MOL   H29012602   7.795   3.677   2.301 -0.2050 -0.9824 -1.5016
   37MOL   C29112603   7.953   3.407   2.538  0.3446  0.2494  0.0857
   37MOL   C29212604   7.845   3.351   2.640 -0.1930  0.0622 -0.1748
   37MOL   C29312605   7.888   3.212   2.681 -0.2617 -0.7231  0.2561
   37MOL   C29412606   8.011   3.194   2.741 -0.1718 -0.2562  0.9054
   37MOL   C29512607   8.054   3.068   2.784 -0.4003  0.6114  0.2175
   37MOL   C29612608   7.961   2.961   2.772 -0.0072 -0.0475 -0.4166
   37MOL   C29712609   7.841   2.974   2.709  1.0766  0.1570  0.1148
   37MOL   C29812610   7.803   3.102   2.665  0.3450  0.7578  0.1055
   37MOL   O29912611   7.856   3.430   2.762 -0.0624  0.7374 -0.1177
   37MOL   H30012612   8.031   3.449   2.602  0.7262  0.3515 -0.4431
   37MOL   H30112613   7.995   3.326   2.479  1.5462  0.1432  1.0648
   37MOL   H30212614   7.742   3.347   2.602 -0.4289 -1.0392  0.5444
   37MOL   H30312615   0.000   3.277   2.741 -0.7274  0.2117  0.6127
   37MOL   H30412616   0.074   3.046   2.818 -0.7656  0.0104  0.9243
   37MOL   H30512617   7.998   2.866   2.805  2.1486  1.7068  2.4842
   37MOL   H30612618   7.773   2.894   2.684  0.6061  1.3419 -2.5933
   37MOL   H30712619   7.710   3.118   2.612 -0.8473  0.4741  2.0854
   37MOL   C30812620   7.808   3.562   2.772  0.6546  0.0261  0.4590
   37MOL   C30912621   7.684   3.570   2.873  0.0144  1.2234  0.1729
   37MOL   C31012622   7.564   3.479   2.840 -0.4178  0.2708 -0.8224
   37MOL   C31112623   7.558   3.340   2.855 -0.0580  0.4627 -0.0429
   37MOL   C31212624   7.434   3.270   2.827 -0.5372  0.3762  0.1167
   37MOL   C31312625   7.322   3.335   2.777 -0.0506 -0.2134 -0.4687
   37MOL   C31412626   7.328   3.473   2.766 -0.2977  0.5766 -0.3133
   37MOL   C31512627   7.446   3.541   2.794 -0.1469  0.1494 -0.0551
   37MOL   O31612628   7.749   3.556   3.006 -0.5261  0.5037 -0.1580
   37MOL   H31712629   7.775   3.603   2.676  0.9147  1.8745  1.1449
   37MOL   H31812630   7.895   3.617   2.805  0.6811 -0.8237  1.8289
   37MOL   H31912631   7.646   3.672   2.866 -1.5535  0.6482  0.1448
   37MOL   H32012632   7.643   3.285   2.892  0.5515  1.5123  0.1528
   37MOL   H32112633   7.422   3.166   2.853  0.5152  0.5342  1.2585
   37MOL   H32212634   7.230   3.281   2.762 -0.0527 -0.5066  0.6014
   37MOL   H32312635   7.241   3.522   2.725 -0.5053  1.7249  1.4724
   37MOL   H32412636   7.450   3.649   2.789  0.9155  0.2593  2.3069
   37MOL   C32512637   7.696   3.658   3.090  0.0058 -0.9189 -0.6595
   37MOL   C32612638   7.743   3.621   3.235 -0.2642 -0.2548  0.2876
   37MOL   C32712639   7.682   3.498   3.294 -0.4807 -0.3470  0.6353
   37MOL   C32812640   7.583   3.509   3.390  0.0870 -0.1847  0.9098
   37MOL   C32912641   7.516   3.396   3.437 -0.1523 -0.1804  0.2798
   37MOL   C33012642   7.548   3.272   3.378  0.5897  0.2585  0.3821
   37MOL   C33112643   7.655   3.251   3.290  0.4598  0.1093 -0.0694
   37MOL   C33212644   7.714   3.370   3.241 -0.4343 -0.8914 -0.4642
   37MOL   O33312645   7.884   3.614   3.222 -0.1073 -0.0240 -0.1648
   37MOL   H33412646   7.587   3.666   3.083  0.3221  4.5533 -1.9366
   37MOL   H33512647   7.747   3.746   3.050 -0.3111  0.4691  1.8923
   37MOL   H33612648   7.721   3.710   3.293 -1.3279 -0.9465  0.9769
   37MOL   H33712649   7.563   3.597   3.448  0.9619 -0.0321  0.9892
   37MOL   H33812650   7.444   3.403   3.517 -1.6274 -3.5316 -0.6892
   37MOL   H33912651   7.488   3.188   3.409  0.7156  0.2551  0.6170
   37MOL   H34012652   7.674   3.152   3.252  1.2209  0.4947 -0.7016
   37MOL   H34112653   7.795   3.375   3.169 -0.2257 -1.1282 -0.2479
   37MOL   H34212654   7.894   3.582   3.134 -0.8053  0.2601 -0.3517
   38MOL     C112655   7.102   7.588   5.353 -0.0976 -0.1620 -0.2567
   38MOL     C212656   7.172   7.460   5.324  0.0852 -0.6105 -0.1329
   38MOL     C312657   7.224   7.390   5.447 -0.3222  0.2405  0.0178
   38MOL     C412658   7.348   7.439   5.498 -0.0221 -0.0843  0.3358
   38MOL     C512659   7.405   7.380   5.615  0.3822 -0.4715  0.3353
   38MOL     C612660   7.342   7.271   5.674  0.0349 -0.0580 -0.3384
   38MOL     C712661   7.221   7.224   5.620 -0.1635 -0.3643  0.3486
   38MOL     C812662   7.159   7.280   5.507  0.0147  0.1531  0.1767
   38MOL     O912663   7.275   7.494   5.234  0.1609 -0.3364 -0.2640
   38MOL    H1012664   7.167   7.674   5.371  1.5482 -1.4653  0.1454
   38MOL    H1112665   7.031   7.615   5.275  0.5260  1.4418 -0.2835
   38MOL    H1212666   7.106   7.399   5.263  0.2164 -0.1714 -0.7140
   38MOL    H1312667   7.384   7.535   5.463 -1.4664  1.1148  2.0788
   38MOL    H1412668   7.495   7.421   5.660 -1.2844  1.1000  2.3396
   38MOL    H1512669   7.385   7.216   5.756 -1.1048 -2.9088 -1.5844
   38MOL    H1612670   7.176   7.137   5.666  3.2911 -1.3712  1.9366
   38MOL    H1712671   7.070   7.230   5.471  0.6251 -0.5762 -0.3137
   38MOL    H1812672   7.034   7.586   5.439 -0.3941  4.0005 -0.2867
   38MOL    C1912673   7.341   7.383   5.172  0.0150 -0.1866  0.8530
   38MOL    C2012674   7.470   7.431   5.108 -0.2081 -0.0353 -0.3068
   38MOL    C2112675   7.451   7.443   4.959  0.5683  1.2563 -0.5789
   38MOL    C2212676   7.422   7.328   4.870  0.3239 -0.9278 -0.3560
   38MOL    C2312677   7.398   7.355   4.735 -0.0782  0.6214  0.7509
   38MOL    C2412678   7.398   7.482   4.678  0.4127  0.4117 -0.5736
   38MOL    C2512679   7.420   7.588   4.766  0.2512 -0.1180  0.1843
   38MOL    C2612680   7.448   7.568   4.901 -0.5437 -0.2976  0.1932
   38MOL    O2712681   7.581   7.351   5.149  0.0453 -0.1878 -0.3689
   38MOL    H2812682   7.369   7.315   5.252 -1.3178  0.6504  2.0633
   38MOL    H2912683   7.268   7.322   5.118  0.2705  0.0162  0.2770
   38MOL    H3012684   7.481   7.532   5.149  1.8740 -0.0344 -0.7908
   38MOL    H3112685   7.409   7.226   4.903  1.4773 -0.2767  2.2529
   38MOL    H3212686   7.382   7.276   4.663  1.1613 -0.1247  1.2685
   38MOL    H3312687   7.362   7.490   4.577 -2.2668  0.8918  0.3761
   38MOL    H3412688   7.435   7.685   4.720  1.8427 -1.3562 -2.0103
   38MOL    H3512689   7.471   7.654   4.962 -1.8851  0.4867 -0.3940
   38MOL    C3612690   7.705   7.413   5.116 -0.3516  0.2299 -0.0079
   38MOL    C3712691   7.822   7.315   5.145 -0.2435 -0.7228  0.3079
   38MOL    C3812692   7.960   7.385   5.147  0.5381 -0.4545 -0.0698
   38MOL    C3912693   7.976   7.495   5.227  0.0290 -0.1048  0.2088
   38MOL    C4012694   0.031   7.550   5.250  0.8746  0.4010  0.0466
   38MOL    C4112695   0.139   7.498   5.177  0.0367 -0.9195 -0.4609
   38MOL    C4212696   0.123   7.384   5.097  0.0706 -0.6478 -0.3497
   38MOL    C4312697   8.073   7.329   5.087  0.1805 -0.2555 -0.0422
   38MOL    O4412698   7.832   7.219   5.047  0.1763 -0.3246  0.6183
   38MOL    H4512699   7.726   7.436   5.011 -1.9834 -0.8233 -0.5710
   38MOL    H4612700   7.709   7.503   5.178 -1.0677 -0.1602  0.6054
   38MOL    H4712701   7.810   7.268   5.243 -2.1464  1.1324  1.0062
   38MOL    H4812702   7.896   7.546   5.280  0.5839  0.6967  0.2910
   38MOL    H4912703   0.039   7.642   5.307  0.9443  1.4745 -1.6528
   38MOL    H5012704   0.232   7.550   5.195 -0.7924  0.3340  0.2916
   38MOL    H5112705   0.208   7.339   5.047 -0.6211 -0.9125 -1.3057
   38MOL    H5212706   8.054   7.244   5.024 -1.8109 -0.5642  0.9554
   38MOL    C5312707   7.727   7.128   5.066  0.1035 -0.0376  0.6298
   38MOL    C5412708   7.769   6.998   4.999 -0.0165  0.4509 -0.8226
   38MOL    C5512709   7.856   6.912   5.084 -0.5565  0.3631 -0.0992
   38MOL    C5612710   7.992   6.921   5.074 -0.1120  0.4149 -0.4594
   38MOL    C5712711   8.078   6.840   5.148 -0.6111 -0.6755 -0.1854
   38MOL    C5812712   8.027   6.757   5.249  0.1079  0.0742  0.7071
   38MOL    C5912713   7.886   6.756   5.274  0.4026  0.1190  0.0322
   38MOL    C6012714   7.801   6.839   5.190  0.0477 -0.0017 -0.5745
   38MOL    O6112715   7.645   6.930   4.963 -0.0818  0.1830  0.3693
   38MOL    H6212716   7.692   7.115   5.168 -1.8563 -0.7633 -0.1152
   38MOL    H6312717   7.649   7.165   5.000 -0.0790 -0.2042  0.7530
   38MOL    H6412718   7.831   7.025   4.913  3.0765  1.5352  1.6715
   38MOL    H6512719   8.035   6.989   5.003 -1.5768  1.0421 -0.7765
   38MOL    H6612720   0.102   6.845   5.118 -0.4837  0.6965  0.4507
   38MOL    H6712721   0.018   6.705   5.311  2.9492  2.2403 -0.6140
   38MOL    H6812722   7.854   6.703   5.363 -0.4335  1.8762  0.7966
   38MOL    H6912723   7.695   6.832   5.208  0.1125 -1.7425 -0.8124
   38MOL    C7012724   7.653   6.809   4.881 -0.6202 -0.5008  0.6125
   38MOL    C7112725   7.508   6.750   4.885  0.3536 -0.1203 -0.3151
   38MOL    C7212726   7.410   6.858   4.834 -0.5899 -0.1004  0.2204
   38MOL    C7312727   7.399   6.874   4.694 -0.6498 -0.2349 -0.0692
   38MOL    C7412728   7.300   6.958   4.644  0.2985  0.0938 -0.4486
   38MOL    C7512729   7.216   7.029   4.731  0.2338  0.2421 -0.3277
   38MOL    C7612730   7.232   7.010   4.873 -0.1660  1.0012  0.1614
   38MOL    C7712731   7.334   6.934   4.925  0.2896 -0.4439 -0.3816
   38MOL    O7812732   7.489   6.731   5.022  0.4912  0.1092 -0.0118
   38MOL    H7912733   7.676   6.825   4.776 -0.8275  1.1839  0.8141
   38MOL    H8012734   7.730   6.743   4.919  0.9789  2.4122  2.6312
   38MOL    H8112735   7.492   6.667   4.817 -0.1209 -0.8455  0.6746
   38MOL    H8212736   7.468   6.823   4.629 -0.3438 -0.2069  0.2347
   38MOL    H8312737   7.296   6.975   4.537 -0.2491  0.0355 -0.4429
   38MOL    H8412738   7.133   7.089   4.696 -1.5179 -1.3638  0.9100
   38MOL    H8512739   7.160   7.061   4.936 -2.3395 -2.1638  0.3736
   38MOL    H8612740   7.347   6.921   5.031  1.8522  1.0510 -0.3767
   38MOL    C8712741   7.535   6.621   5.092 -0.5299  0.4773 -0.3775
   38MOL    C8812742   7.438   6.495   5.089  0.6246 -0.1578  0.3365
   38MOL    C8912743   7.450   6.391   5.201  0.8705  0.2123 -0.2330
   38MOL    C9012744   7.359   6.382   5.311  0.2753 -0.2903  0.1518
   38MOL    C9112745   7.379   6.294   5.418  0.8962 -0.1170 -0.0620
   38MOL    C9212746   7.487   6.204   5.408 -0.2667  0.2631 -0.4077
   38MOL    C9312747   7.580   6.211   5.302  0.4921  0.0737 -0.0577
   38MOL    C9412748   7.552   6.296   5.194  0.4846 -0.2819 -1.0777
   38MOL    O9512749   7.456   6.445   4.954 -0.7416  0.1163 -0.4065
   38MOL    H9612750   7.557   6.651   5.195 -1.3228  2.3939 -0.7399
   38MOL    H9712751   7.630   6.594   5.046 -1.5973 -0.6547 -1.9444
   38MOL    H9812752   7.340   6.543   5.095  1.0470  0.4936  2.0605
   38MOL    H9912753   7.280   6.455   5.319  2.5263  2.3085 -0.6715
   38MOL   H10012754   7.309   6.291   5.500  1.1500 -1.7794  0.1022
   38MOL   H10112755   7.508   6.141   5.493  1.6911 -0.9112 -1.7232
   38MOL   H10212756   7.660   6.140   5.297 -0.5855 -1.2614  1.2736
   38MOL   H10312757   7.621   6.296   5.112 -1.2011  4.6436 -2.6304
   38MOL   C10412758   7.373   6.342   4.912 -0.4872 -0.1104 -0.4586
   38MOL   C10512759   7.410   6.292   4.772  0.0076 -0.1637 -0.1579
   38MOL   C10612760   7.452   6.406   4.679 -0.4880 -0.1464 -0.1576
   38MOL   C10712761   7.588   6.458   4.682  0.5957 -0.2349  0.0073
   38MOL   C10812762   7.628   6.564   4.593  0.0299 -0.8661 -0.1506
   38MOL   C10912763   7.529   6.613   4.506 -0.2307  0.5042 -0.2759
   38MOL   C11012764   7.400   6.568   4.509  0.3906 -0.3097 -0.8572
   38MOL   C11112765   7.361   6.462   4.593  0.3268 -0.1806  0.4893
   38MOL   O11212766   7.523   6.206   4.795 -0.1819  0.4617  0.3705
   38MOL   H11312767   7.381   6.256   4.978 -0.3992 -0.0833 -0.4349
   38MOL   H11412768   7.276   6.391   4.917 -0.0212  0.7922 -0.0398
   38MOL   H11512769   7.325   6.239   4.728 -1.3519  0.2225  1.9660
   38MOL   H11612770   7.662   6.400   4.737  0.7385  0.6101  0.7264
   38MOL   H11712771   7.729   6.602   4.597 -0.2749 -0.0474 -0.2116
   38MOL   H11812772   7.554   6.692   4.438  1.9568  0.3098  0.2735
   38MOL   H11912773   7.327   6.609   4.440  0.6917 -2.2442 -2.3787
   38MOL   H12012774   7.257   6.434   4.593  0.5859 -1.1671  1.6065
   38MOL   C12112775   7.546   6.123   4.677 -0.1134 -0.5967 -0.5500
   38MOL   C12212776   7.489   5.977   4.688  0.4717  0.3842  0.0333
   38MOL   C12312777   7.528   5.919   4.823  0.1353  0.1684  0.5004
   38MOL   C12412778   7.473   5.961   4.949 -0.1736 -0.2167  0.1420
   38MOL   C12512779   7.510   5.912   5.076  0.2848  0.0670 -0.5877
   38MOL   C12612780   7.603   5.808   5.085 -0.2546  0.6487  0.4096
   38MOL   C12712781   7.672   5.771   4.965 -0.7435  0.2972 -0.5922
   38MOL   C12812782   7.637   5.824   4.841 -0.0717  0.3619  0.0990
   38MOL   O12912783   7.352   5.977   4.675  0.1952 -0.4855  0.6482
   38MOL   H13012784   7.653   6.103   4.674  0.6420  2.5994  1.5721
   38MOL   H13112785   7.525   6.169   4.580  1.8830 -1.2040 -1.2792
   38MOL   H13212786   7.523   5.913   4.607 -0.0891  0.3501 -0.1761
   38MOL   H13312787   7.400   6.040   4.937 -0.6540 -1.1451 -3.6245
   38MOL   H13412788   7.470   5.939   5.173 -0.2148  0.8995 -1.0220
   38MOL   H13512789   7.634   5.766   5.180  1.4822 -0.8938 -0.7896
   38MOL   H13612790   7.760   5.711   4.981 -0.8874  0.2042 -0.1315
   38MOL   H13712791   7.703   5.797   4.760 -0.6070  0.1141 -0.2496
   38MOL   C13812792   7.303   5.952   4.545 -0.1781  1.1920 -0.2119
   38MOL   C13912793   7.146   5.958   4.554 -0.6761  0.6235  0.3122
   38MOL   C14012794   7.081   6.102   4.562 -0.0155  0.2569 -0.0811
   38MOL   C14112795   7.075   6.181   4.682 -0.5159  0.1220  0.1087
   38MOL   C14212796   7.011   6.307   4.687 -0.1135  0.0203  0.3137
   38MOL   C14312797   6.944   6.347   4.572 -0.2012  0.0588 -0.3970
   38MOL   C14412798   6.940   6.272   4.454  0.3195 -0.2380  0.2735
   38MOL   C14512799   7.011   6.153   4.453  0.0165  1.0881 -0.3839
   38MOL   O14612800   7.098   5.880   4.443 -0.5194  0.0331  0.0727
   38MOL   H14712801   7.337   5.855   4.509 -1.2239  0.8465 -0.2820
   38MOL   H14812802   7.338   6.036   4.484  0.6153  0.1536 -1.2214
   38MOL   H14912803   7.115   5.898   4.640 -0.8368  0.7726  0.3598
   38MOL   H15012804   7.130   6.143   4.767 -2.8270 -0.9492  1.1784
   38MOL   H15112805   7.015   6.371   4.774  0.9671 -0.9062  0.9599
   38MOL   H15212806   6.876   6.431   4.562  1.2154  1.5359  1.7660
   38MOL   H15312807   6.874   6.304   4.374 -0.4839 -0.4303  0.8528
   38MOL   H15412808   7.013   6.086   4.368 -0.1465  0.2566  0.2563
   38MOL   C15512809   7.084   5.746   4.472  0.1089  0.4338 -0.0452
   38MOL   C15612810   7.050   5.670   4.344  0.2029 -0.1036 -0.0979
   38MOL   C15712811   7.166   5.646   4.255  0.1091 -0.7694 -0.5712
   38MOL   C15812812   7.191   5.730   4.141  0.1132  0.6680 -0.5741
   38MOL   C15912813   7.296   5.700   4.046  0.1533 -0.1783  0.0635
   38MOL   C16012814   7.373   5.583   4.070 -0.0666 -0.0486 -0.0973
   38MOL   C16112815   7.356   5.506   4.189 -0.1464 -0.0935 -0.0353
   38MOL   C16212816   7.254   5.539   4.274 -0.2360 -0.0647 -0.1729
   38MOL   O16312817   6.995   5.553   4.400 -0.2403  0.6438 -0.8678
   38MOL   H16412818   7.005   5.733   4.545 -1.6708  0.2979 -1.9505
   38MOL   H16512819   7.173   5.702   4.518 -0.7432  1.6085  2.8281
   38MOL   H16612820   6.974   5.732   4.296  0.2383  0.7631  0.9514
   38MOL   H16712821   7.117   5.804   4.115  1.2163  1.5823 -1.1315
   38MOL   H16812822   7.318   5.746   3.951  2.1606 -2.5762 -0.6890
   38MOL   H16912823   7.450   5.549   4.001  1.8727  0.5058  1.7276
   38MOL   H17012824   7.420   5.425   4.220  0.6308  0.2957 -0.6064
   38MOL   H17112825   7.237   5.482   4.364 -0.9613 -0.6782 -0.6902
   38MOL   C17212826   6.903   5.478   4.314  0.0087 -0.5439  0.8297
   38MOL   C17312827   6.899   5.329   4.340  0.9059 -0.1146 -0.6666
   38MOL   C17412828   6.933   5.295   4.489 -0.1853  0.0560 -0.1807
   38MOL   C17512829   7.069   5.281   4.525  0.5247 -0.6413  0.4750
   38MOL   C17612830   7.106   5.258   4.660  0.1080  0.2602  0.8605
   38MOL   C17712831   7.000   5.265   4.756 -0.1711 -0.1559  0.3860
   38MOL   C17812832   6.865   5.264   4.721 -0.0136  0.0984 -0.3786
   38MOL   C17912833   6.830   5.281   4.586 -0.8318 -0.0410 -0.6849
   38MOL   O18012834   7.000   5.267   4.256  0.2119  0.0949 -0.3695
   38MOL   H18112835   6.807   5.529   4.325 -0.3687 -0.4197 -2.3964
   38MOL   H18212836   6.926   5.494   4.208  2.8963 -0.5237  1.4236
   38MOL   H18312837   6.800   5.293   4.312 -0.2239  1.0842  1.6721
   38MOL   H18412838   7.134   5.306   4.442 -1.3315 -2.1151 -1.4586
   38MOL   H18512839   7.211   5.242   4.678 -0.2926 -2.4142  0.9908
   38MOL   H18612840   7.020   5.245   4.861 -1.6821 -0.4866  0.6224
   38MOL   H18712841   6.782   5.267   4.789  0.7590  1.3956  0.5264
   38MOL   H18812842   6.726   5.284   4.558 -1.0159 -0.6658 -0.0789
   38MOL   C18912843   6.970   5.123   4.249 -1.3583 -0.3175  0.5989
   38MOL   C19012844   7.092   5.049   4.199  0.5453  0.2771  1.1411
   38MOL   C19112845   7.216   5.084   4.282 -0.7734 -0.7715 -0.0151
   38MOL   C19212846   7.320   5.162   4.232 -0.4220  0.4658 -0.1556
   38MOL   C19312847   7.432   5.189   4.310  0.2313 -0.8718  0.3780
   38MOL   C19412848   7.438   5.132   4.440 -0.0525 -0.7256  0.0384
   38MOL   C19512849   7.340   5.049   4.486 -0.7272  0.0456 -0.2297
   38MOL   C19612850   7.226   5.021   4.409  0.2389  0.5580 -0.4283
   38MOL   O19712851   7.111   5.094   4.062  0.4580 -0.0313  0.2410
   38MOL   H19812852   6.943   5.073   4.342  2.2009  1.8182  2.9011
   38MOL   H19912853   6.880   5.113   4.188  0.3379  0.6102 -2.1707
   38MOL   H20012854   7.077   4.941   4.200 -2.1624  0.6085  0.1318
   38MOL   H20112855   7.314   5.188   4.127 -0.7656 -1.4580 -0.6468
   38MOL   H20212856   7.511   5.242   4.258 -1.2157  1.6785  0.6746
   38MOL   H20312857   7.521   5.147   4.507 -0.2025 -1.1738  0.3226
   38MOL   H20412858   7.346   5.008   4.586 -0.4777  0.9195  0.1132
   38MOL   H20512859   7.141   4.974   4.456 -0.3892  0.7522 -1.3489
   38MOL   C20612860   7.175   5.005   3.967 -0.3628 -0.1117 -0.7356
   38MOL   C20712861   7.087   4.882   3.923 -0.5767  0.4848 -0.1243
   38MOL   C20812862   6.947   4.932   3.893  0.8936  1.7315  0.2313
   38MOL   C20912863   6.839   4.838   3.923 -0.0558  0.0736  0.3712
   38MOL   C21012864   6.709   4.878   3.892 -0.2389  0.3509 -0.1322
   38MOL   C21112865   6.683   5.011   3.852  0.2417 -0.0634  0.3859
   38MOL   C21212866   6.784   5.099   3.820 -0.1974  0.2512 -0.7062
   38MOL   C21312867   6.917   5.064   3.843  0.3055  0.0771 -0.1701
   38MOL   O21412868   7.082   4.777   4.019  0.1421 -0.2610 -0.0430
   38MOL   H21512869   7.196   5.065   3.878 -0.8292 -0.8447 -1.3514
   38MOL   H21612870   7.273   4.990   4.013 -0.1715  4.7193  0.6375
   38MOL   H21712871   7.129   4.841   3.832 -0.1360 -0.2816  0.4137
   38MOL   H21812872   6.869   4.734   3.933  2.0165  0.8204  2.6035
   38MOL   H21912873   6.627   4.808   3.901  1.8682 -2.5299 -2.5204
   38MOL   H22012874   6.581   5.040   3.828 -0.1414 -3.0404 -1.9251
   38MOL   H22112875   6.752   5.190   3.771 -4.5239  0.0464  1.4924
   38MOL   H22212876   6.993   5.139   3.828  0.7559  0.0601  1.8800
   38MOL   C22312877   7.208   4.712   4.044 -0.1267 -0.0977 -0.4876
   38MOL   C22412878   7.192   4.606   4.158 -0.1477  0.2126  0.5189
   38MOL   C22512879   7.099   4.498   4.101  0.6663 -0.5123 -0.0111
   38MOL   C22612880   6.958   4.507   4.106  0.8839 -0.5146 -0.8656
   38MOL   C22712881   6.874   4.416   4.041 -0.0328  0.3197 -0.1909
   38MOL   C22812882   6.931   4.302   3.969  0.2253 -0.6063  0.5075
   38MOL   C22912883   7.076   4.298   3.958  0.1156  0.9057 -0.3802
   38MOL   C23012884   7.150   4.392   4.027 -0.8580  0.2032 -0.0782
   38MOL   O23112885   7.321   4.552   4.190  0.5967  0.2380  0.1968
   38MOL   H23212886   7.240   4.676   3.946 -2.0479  1.4559 -1.7237
   38MOL   H23312887   7.278   4.788   4.079 -1.0344  1.6355 -2.3379
   38MOL   H23412888   7.137   4.656   4.238 -0.9766  0.3946 -0.1490
   38MOL   H23512889   6.924   4.576   4.182 -0.7750 -2.0160 -0.2111
   38MOL   H23612890   6.768   4.424   4.058 -0.3327 -1.6619 -0.9689
   38MOL   H23712891   6.877   4.216   3.932  3.4638 -2.3081 -0.4640
   38MOL   H23812892   7.128   4.212   3.918  3.2982  3.1998 -1.4201
   38MOL   H23912893   7.256   4.387   4.012 -1.0338 -2.7374 -0.7251
   38MOL   C24012894   7.344   4.479   4.310 -0.3356 -0.0506 -0.9558
   38MOL   C24112895   7.339   4.564   4.449 -0.6592 -0.3279  0.0655
   38MOL   C24212896   7.458   4.652   4.467 -0.0640 -0.1226  0.3642
   38MOL   C24312897   7.529   4.669   4.588  0.2946  0.0038  0.5106
   38MOL   C24412898   7.634   4.757   4.604  0.1893  0.0221  0.4518
   38MOL   C24512899   7.681   4.822   4.491  0.0292 -0.8568 -0.2673
   38MOL   C24612900   7.620   4.806   4.364  0.6016  0.0523 -0.3614
   38MOL   C24712901   7.502   4.733   4.362  0.2996  0.8081  0.1286
   38MOL   O24812902   7.216   4.633   4.465 -0.5161 -0.2914  0.2868
   38MOL   H24912903   7.272   4.397   4.318 -0.0352 -0.3274 -1.1167
   38MOL   H25012904   7.441   4.434   4.293 -0.4016  0.0013 -1.4633
   38MOL   H25112905   7.347   4.485   4.524  1.8871  1.7134  2.0474
   38MOL   H25212906   7.500   4.619   4.679 -1.0211  0.0242  0.1163
   38MOL   H25312907   7.667   4.775   4.705 -2.0712  0.5765  1.1147
   38MOL   H25412908   7.778   4.870   4.497  0.0616 -0.9084 -0.3792
   38MOL   H25512909   7.660   4.859   4.279 -1.2505  0.7757 -0.8084
   38MOL   H25612910   7.451   4.736   4.267  0.2405 -2.6257 -0.0097
   38MOL   C25712911   7.177   4.664   4.598  0.2053 -0.2173  0.0673
   38MOL   C25812912   7.025   4.699   4.609 -0.2981 -0.0390  0.5668
   38MOL   C25912913   6.991   4.761   4.751 -0.8422 -0.2544  0.2735
   38MOL   C26012914   6.960   4.898   4.761  0.3355 -0.3091 -0.5364
   38MOL   C26112915   6.923   4.945   4.893 -0.3398  0.1346 -0.1016
   38MOL   C26212916   6.942   4.871   5.008 -0.7507 -0.0171  0.2562
   38MOL   C26312917   6.984   4.734   4.997  0.3739 -1.0084 -0.0622
   38MOL   C26412918   6.999   4.678   4.869  0.2209  0.2877 -0.3097
   38MOL   O26512919   6.946   4.581   4.604 -0.1377  0.7860  0.4702
   38MOL   H26612920   7.229   4.756   4.625  1.4703 -0.4179 -1.6101
   38MOL   H26712921   7.207   4.589   4.671  2.2063  0.8868  0.3948
   38MOL   H26812922   7.008   4.769   4.527  1.2796  1.8135  1.7955
   38MOL   H26912923   6.951   4.962   4.674  0.1795 -0.2084 -0.4470
   38MOL   H27012924   6.891   5.048   4.901  0.2963  0.2052  1.6542
   38MOL   H27112925   6.932   4.905   5.110 -2.6725  0.7349 -0.1616
   38MOL   H27212926   6.988   4.665   5.080 -1.9159 -1.3783 -0.2305
   38MOL   H27312927   7.020   4.572   4.868  2.4438  0.7008 -0.5171
   38MOL   C27412928   6.909   4.530   4.482 -0.0900  0.7074 -0.3613
   38MOL   C27512929   6.762   4.556   4.447  0.8880 -0.6835 -0.4922
   38MOL   C27612930   6.721   4.704   4.461  0.2394  0.4303 -0.1893
   38MOL   C27712931   6.681   4.756   4.583 -0.0374  0.3366 -0.2769
   38MOL   C27812932   6.659   4.896   4.597  0.5458 -0.8576  0.3686
   38MOL   C27912933   6.667   4.977   4.481  0.2968 -0.8772 -0.4387
   38MOL   C28012934   6.702   4.916   4.358  0.2719  0.2800  0.2748
   38MOL   C28112935   6.724   4.782   4.347 -0.4155 -0.5668  0.1639
   38MOL   O28212936   6.690   4.457   4.534  0.7563  0.0129  0.1041
   38MOL   H28312937   6.970   4.574   4.403 -0.8091  0.7177 -0.9082
   38MOL   H28412938   6.934   4.424   4.491 -1.0784  0.5387  0.5510
   38MOL   H28512939   6.744   4.526   4.344 -3.1685 -2.4121  0.5969
   38MOL   H28612940   6.695   4.704   4.676  1.4832 -0.8898 -1.1774
   38MOL   H28712941   6.634   4.952   4.686 -1.1110 -1.3112  0.2078
   38MOL   H28812942   6.635   5.080   4.482 -0.7074 -1.1697 -1.2246
   38MOL   H28912943   6.725   4.982   4.275  0.1685  0.3052  0.2669
   38MOL   H29012944   6.745   4.744   4.248  1.7370 -2.1688  1.2110
   38MOL   C29112945   6.550   4.442   4.509 -0.0162 -0.0687  0.3949
   38MOL   C29212946   6.510   4.295   4.486 -0.7795 -0.7023 -0.4637
   38MOL   C29312947   6.615   4.222   4.394 -0.2830 -0.2265  1.0189
   38MOL   C29412948   6.738   4.176   4.433 -1.2446 -0.0071 -0.7564
   38MOL   C29512949   6.825   4.110   4.347  0.4961 -0.1835  0.2557
   38MOL   C29612950   6.781   4.087   4.214  0.3858 -0.1471 -0.0004
   38MOL   C29712951   6.663   4.144   4.166 -0.3255  0.5280 -0.1050
   38MOL   C29812952   6.575   4.205   4.256 -0.2433 -0.3518 -0.2489
   38MOL   O29912953   6.508   4.230   4.606  0.2072 -0.0873  0.0590
   38MOL   H30012954   6.527   4.487   4.412  0.4396  0.8364  0.7021
   38MOL   H30112955   6.482   4.488   4.581 -1.0948 -0.8366 -0.1228
   38MOL   H30212956   6.404   4.282   4.464 -1.1265 -0.2421  0.9258
   38MOL   H30312957   6.770   4.214   4.529 -0.6150 -1.3690 -0.3975
   38MOL   H30412958   6.922   4.074   4.378  0.4702 -0.5414 -0.0653
   38MOL   H30512959   6.851   4.036   4.150  0.0901 -2.0420  1.1626
   38MOL   H30612960   6.644   4.128   4.061 -4.5077  0.7179  0.5501
   38MOL   H30712961   6.478   4.239   4.223 -1.4426 -0.2053  3.2655
   38MOL   C30812962   6.463   4.096   4.612 -0.0769  0.1903  0.2056
   38MOL   C30912963   6.506   4.016   4.735  0.0387  0.8724 -0.1648
   38MOL   C31012964   6.637   3.941   4.705 -0.3174  0.3845 -0.6100
   38MOL   C31112965   6.761   3.996   4.737  0.0089 -0.3417 -0.2551
   38MOL   C31212966   6.879   3.948   4.694  0.0031  0.0334  0.1809
   38MOL   C31312967   6.882   3.830   4.607 -0.1433  0.3921  0.2002
   38MOL   C31412968   6.758   3.759   4.585  0.2308 -0.6580 -0.4881
   38MOL   C31512969   6.638   3.824   4.630  0.1716  0.2213 -0.9365
   38MOL   O31612970   6.532   4.106   4.840 -0.1815  0.1471 -0.6718
   38MOL   H31712971   6.481   4.037   4.522  0.7333  1.1270 -0.2444
   38MOL   H31812972   6.355   4.112   4.615 -0.2961 -1.3860  1.4123
   38MOL   H31912973   6.434   3.937   4.760  0.7327  0.3032  0.0347
   38MOL   H32012974   6.767   4.090   4.790 -2.7156  0.0757 -0.6228
   38MOL   H32112975   6.971   3.999   4.719 -0.2725  0.5478  0.1511
   38MOL   H32212976   6.977   3.796   4.570 -0.6386 -1.3927  0.5308
   38MOL   H32312977   6.750   3.656   4.552  0.6999 -0.8407 -0.0490
   38MOL   H32412978   6.544   3.775   4.606 -0.9404  1.8063  0.0708
   38MOL   C32512979   6.429   4.118   4.936 -0.1084  0.6690  0.3453
   38MOL   C32612980   6.383   4.261   4.927  1.0601 -0.3334 -0.4305
   38MOL   C32712981   6.488   4.360   4.965 -0.8170 -0.7788  0.1095
   38MOL   C32812982   6.464   4.435   5.084  0.5191 -0.6978  0.2620
   38MOL   C32912983   6.555   4.532   5.130  0.9792  0.6546  0.4205
   38MOL   C33012984   6.669   4.557   5.057 -0.4537 -0.6088  0.4503
   38MOL   C33112985   6.691   4.480   4.932 -0.2781  0.3474 -0.5769
   38MOL   C33212986   6.597   4.385   4.885  0.6197  0.4744 -0.0552
   38MOL   O33312987   6.323   4.278   4.804  0.6294 -0.0960 -0.2281
   38MOL   H33412988   6.467   4.107   5.037 -0.0199 -2.2717  0.0512
   38MOL   H33512989   6.338   4.057   4.927  0.4153 -0.2556  1.2581
   38MOL   H33612990   6.296   4.278   4.990  4.0503  1.9165  3.2899
   38MOL   H33712991   6.375   4.411   5.142  0.9675  0.8688  1.6339
   38MOL   H33812992   6.543   4.595   5.217  0.9246  0.6151  0.4421
   38MOL   H33912993   6.737   4.638   5.082 -1.8751  1.0292 -0.8696
   38MOL   H34012994   6.780   4.488   4.871  1.3064 -1.3899  1.4518
   38MOL   H34112995   6.611   4.338   4.789  0.7756  0.1794  0.1112
   38MOL   H34212996   6.390   4.274   4.738  2.3995 -3.1485  1.6191
   39MOL     C112997   5.971   8.013   0.375 -0.3950  0.0659  0.6333
   39MOL     C212998   6.065   8.046   0.260  0.0014 -0.6316 -0.4531
   39MOL     C312999   6.151   0.088   0.299  0.5960 -0.1069 -0.1759
   39MOL     C413000   6.143   0.206   0.227  0.5377  0.2248  0.4637
   39MOL     C513001   6.224   0.317   0.268  0.0141 -0.4690  0.5627
   39MOL     C613002   6.298   0.312   0.384 -0.2873  0.5302 -0.0697
   39MOL     C713003   6.313   0.186   0.454 -0.3061  0.6120  0.3594
   39MOL     C813004   6.234   0.078   0.408  0.2062 -0.1261  0.6296
   39MOL     O913005   5.976   8.074   0.156  0.4072 -1.1016 -0.0557
   39MOL    H1013006   5.891   0.004   0.392  0.2908  0.5518  1.9307
   39MOL    H1113007   5.926   7.917   0.350  1.7383 -1.3795  2.1026
   39MOL    H1213008   6.121   7.955   0.238  1.0034 -0.0650 -0.2593
   39MOL    H1313009   6.086   0.211   0.136 -0.1385  0.8042  0.9116
   39MOL    H1413010   6.222   0.414   0.221 -3.1206  0.3328  2.1900
   39MOL    H1513011   6.355   0.396   0.421  0.8059  0.5874 -1.8293
   39MOL    H1613012   6.377   0.169   0.540 -0.9707 -0.0649  0.7207
   39MOL    H1713013   6.248   8.061   0.453  1.1647 -1.0354 -1.5178
   39MOL    H1813014   6.031   7.990   0.464  1.4208 -0.5625 -0.7251
   39MOL    C1913015   6.025   8.039   0.023 -0.5177  0.3251 -0.3929
   39MOL    C2013016   5.904   8.059   7.997  0.2511 -0.2868 -0.2338
   39MOL    C2113017   5.847   0.116   7.998 -0.2666  0.2721 -0.0601
   39MOL    C2213018   5.882   0.206   7.896  0.1669 -1.0416 -0.1149
   39MOL    C2313019   5.830   0.335   7.889 -0.0048 -0.3286 -0.1629
   39MOL    C2413020   5.737   0.375   7.993 -0.0015 -0.1703  0.3187
   39MOL    C2513021   5.704   0.289   0.019 -0.4007 -0.4862 -0.3233
   39MOL    C2613022   5.757   0.155   0.013  0.8566  0.0437 -0.0500
   39MOL    O2713023   5.807   7.964   8.026 -0.5609 -0.2954 -0.3866
   39MOL    H2813024   6.102   0.028   8.071 -0.3331 -0.1157 -0.9067
   39MOL    H2913025   6.068   7.940   0.012  2.8443  1.7223 -0.1767
   39MOL    H3013026   5.957   8.037   7.905  0.5919 -0.8178  0.0905
   39MOL    H3113027   5.954   0.184   7.819  0.8948 -0.8185  0.4966
   39MOL    H3213028   5.863   0.395   7.805 -3.0900  0.4684 -0.8540
   39MOL    H3313029   5.682   0.467   7.991  0.5464  0.2398  2.8101
   39MOL    H3413030   5.643   0.310   0.105 -0.0241  0.6568 -0.3357
   39MOL    H3513031   5.723   0.082   0.086  0.8898  1.6700  1.6335
   39MOL    C3613032   5.821   7.833   7.968  0.3778 -0.2631 -0.0396
   39MOL    C3713033   5.699   7.753   8.020 -0.0229  0.0562 -0.1140
   39MOL    C3813034   5.562   7.807   7.965  0.1459 -0.5817  0.3016
   39MOL    C3913035   5.511   7.938   8.007  0.2808  0.1616  0.2500
   39MOL    C4013036   5.397   7.991   7.946 -0.4007  0.4041 -0.0076
   39MOL    C4113037   5.334   7.930   7.839 -0.4275  0.6591  0.0621
   39MOL    C4213038   5.374   7.798   7.808 -0.3402 -0.6768 -0.1822
   39MOL    C4313039   5.489   7.738   7.867 -0.1588 -0.3780 -0.0778
   39MOL    O4413040   5.701   7.775   0.080  0.7617 -0.0213  0.5560
   39MOL    H4513041   5.834   7.813   7.862 -1.0260  1.0892 -0.4879
   39MOL    H4613042   5.915   7.790   8.002  0.1093  0.2419  1.3994
   39MOL    H4713043   5.708   7.650   7.986 -1.5606 -0.1878  0.2018
   39MOL    H4813044   5.564   7.994   0.004  0.9369  0.0337 -0.1006
   39MOL    H4913045   5.355   0.007   7.974 -2.8941 -0.5173 -0.4498
   39MOL    H5013046   5.241   7.974   7.807 -0.2352 -0.8397 -2.6414
   39MOL    H5113047   5.304   7.738   7.751 -0.8060  0.0798 -0.4115
   39MOL    H5213048   5.523   7.643   7.827  0.8830 -0.0723  0.0780
   39MOL    C5313049   5.795   7.700   0.161 -0.1135 -0.0231  0.0193
   39MOL    C5413050   5.783   7.546   0.153  0.6768 -0.5594 -0.2800
   39MOL    C5513051   5.638   7.500   0.133 -0.1342  0.3427  0.3760
   39MOL    C5613052   5.599   7.437   0.011  0.1883  0.1653 -0.1560
   39MOL    C5713053   5.466   7.380   0.008  0.2874  0.0339 -0.6654
   39MOL    C5813054   5.379   7.395   0.120  0.6961  0.0327  0.1611
   39MOL    C5913055   5.420   7.457   0.237 -0.7341  0.8263 -0.6239
   39MOL    C6013056   5.550   7.518   0.245  0.1770 -0.4686 -0.2061
   39MOL    O6113057   5.868   7.503   0.052  0.5216 -0.5811  0.4433
   39MOL    H6213058   5.899   7.722   0.134  0.1648 -1.2355  0.0517
   39MOL    H6313059   5.781   7.736   0.263  1.5997  1.1552 -0.1232
   39MOL    H6413060   5.812   7.496   0.246 -0.4662 -0.3841  0.1801
   39MOL    H6513061   5.674   7.428   8.014  0.3921 -0.0519  0.0675
   39MOL    H6613062   5.441   7.321   8.001 -2.5454 -1.1311  0.8708
   39MOL    H6713063   5.282   7.348   0.111  0.9837 -0.4792 -0.2926
   39MOL    H6813064   5.349   7.471   0.318 -0.2369 -1.7621  0.3051
   39MOL    H6913065   5.572   7.575   0.334  1.7759 -0.2507 -0.7197
   39MOL    C7013066   5.998   7.474   0.088 -0.0205 -0.8683  0.2408
   39MOL    C7113067   6.073   7.434   8.032  0.1630 -0.0136 -0.5648
   39MOL    C7213068   6.106   7.547   7.938  0.7086  0.3623 -0.3285
   39MOL    C7313069   6.195   7.646   7.981  0.7108  0.1408  0.9630
   39MOL    C7413070   6.224   7.756   7.896 -0.4739 -0.1773 -0.3561
   39MOL    C7513071   6.155   7.771   7.778  0.6658 -0.0594 -0.1427
   39MOL    C7613072   6.056   7.677   7.738  0.0003 -0.0663  0.6909
   39MOL    C7713073   6.033   7.561   7.816  0.8352  0.5804 -0.5323
   39MOL    O7813074   5.986   7.344   7.967 -0.3889  0.4494 -0.0701
   39MOL    H7913075   6.050   7.562   0.126 -1.3581 -0.0997  0.3128
   39MOL    H8013076   5.990   7.392   0.159 -2.9383  1.5413  2.8160
   39MOL    H8113077   6.169   7.391   8.059  0.8104 -0.1355 -2.9949
   39MOL    H8213078   6.239   7.636   8.079  0.8887 -1.8151  0.6993
   39MOL    H8313079   6.287   7.836   7.933  1.9803 -0.5876 -3.4476
   39MOL    H8413080   6.184   7.859   7.721 -0.2360 -0.4653 -1.2516
   39MOL    H8513081   6.008   7.696   7.643 -0.0368  0.5470  0.8317
   39MOL    H8613082   5.956   7.494   7.780 -0.0695  1.4597 -0.2528
   39MOL    C8713083   5.969   7.212   8.016  0.3612 -0.4721 -0.1916
   39MOL    C8813084   5.864   7.132   7.940  0.3996 -0.9738 -1.6767
   39MOL    C8913085   5.824   7.003   8.017  0.6159  0.2750  0.0813
   39MOL    C9013086   5.719   7.004   0.033  0.0763  0.5555  0.5217
   39MOL    C9113087   5.690   6.886   0.102  0.2443  0.0512  0.4148
   39MOL    C9213088   5.764   6.765   0.074  0.2300 -0.0865 -0.0267
   39MOL    C9313089   5.856   6.765   8.047  0.0612  0.4346  0.1859
   39MOL    C9413090   5.890   6.883   7.983 -0.5403 -0.0331 -0.6275
   39MOL    O9513091   5.910   7.119   7.802 -0.1021 -0.2072  0.2714
   39MOL    H9613092   5.940   7.219   0.041  0.7433  0.3641 -0.1352
   39MOL    H9713093   6.069   7.168   8.009 -0.0544 -1.5227  0.3417
   39MOL    H9813094   5.782   7.203   7.939  1.4259  0.2600 -0.3925
   39MOL    H9913095   5.674   7.100   0.052  0.6300  0.8829  0.1901
   39MOL   H10013096   5.615   6.886   0.179 -0.0861 -0.7647  0.0951
   39MOL   H10113097   5.748   6.673   0.128 -2.2726 -0.0769 -0.6442
   39MOL   H10213098   5.907   6.677   8.012  0.5589  1.3732 -1.4918
   39MOL   H10313099   5.971   6.884   7.910  1.5752 -2.7415  1.5863
   39MOL   C10413100   5.802   7.101   7.710 -0.1064  0.7864 -0.5839
   39MOL   C10513101   5.781   7.239   7.654 -0.1168 -0.0453 -1.0707
   39MOL   C10613102   5.876   7.275   7.535 -0.1830 -0.0553 -0.3419
   39MOL   C10713103   5.835   7.261   7.403  0.0966 -0.2509  0.2655
   39MOL   C10813104   5.929   7.279   7.299  0.1267  0.3851  0.0319
   39MOL   C10913105   6.067   7.296   7.326 -0.1563  0.1164  0.1484
   39MOL   C11013106   6.112   7.294   7.454 -0.2915  0.2332 -0.3970
   39MOL   C11113107   6.015   7.285   7.560  0.6519  0.7317  0.0482
   39MOL   O11213108   5.639   7.257   7.629 -0.2598 -0.2061  0.4583
   39MOL   H11313109   5.836   7.033   7.631 -0.4888 -0.0476 -0.0299
   39MOL   H11413110   5.714   7.060   7.759  0.4318 -1.2024 -1.2124
   39MOL   H11513111   5.803   7.310   7.733  0.7018  0.3172 -1.6229
   39MOL   H11613112   5.735   7.234   7.372  0.7689 -0.9207 -1.3793
   39MOL   H11713113   5.906   7.265   7.195 -0.2958 -0.3412  0.2153
   39MOL   H11813114   6.135   7.315   7.244  0.6019 -0.5572  0.6119
   39MOL   H11913115   6.219   7.306   7.468 -0.4576  1.0433  0.1789
   39MOL   H12013116   6.045   7.283   7.664  1.3753  0.7167 -0.1628
   39MOL   C12113117   5.588   7.395   7.643  0.7219 -0.0506  0.0636
   39MOL   C12213118   5.443   7.406   7.588 -0.0906 -0.8994  1.2308
   39MOL   C12313119   5.443   7.423   7.438 -1.5833  0.1467  0.4705
   39MOL   C12413120   5.452   7.314   7.348 -0.9536 -0.7870  0.1266
   39MOL   C12513121   5.465   7.350   7.209  0.3172 -0.2908 -0.2413
   39MOL   C12613122   5.465   7.482   7.164 -0.1152  0.0368  0.3002
   39MOL   C12713123   5.447   7.588   7.252 -0.5384  0.6677  0.0819
   39MOL   C12813124   5.442   7.555   7.383 -0.4494  0.5193 -0.1855
   39MOL   O12913125   5.377   7.287   7.626  0.3435  0.5623 -0.6457
   39MOL   H13013126   5.662   7.451   7.585 -0.2845  0.1137 -1.0790
   39MOL   H13113127   5.602   7.426   7.747  0.5782  0.0302  0.0586
   39MOL   H13213128   5.394   7.492   7.632  0.1866 -0.1994  0.1777
   39MOL   H13313129   5.441   7.210   7.375  1.0444 -0.1952  3.4727
   39MOL   H13413130   5.472   7.278   7.129 -1.8100  0.8474 -1.4961
   39MOL   H13513131   5.480   7.496   7.058  2.3013 -1.2021  0.4650
   39MOL   H13613132   5.444   7.693   7.226  0.1360 -0.3930 -4.6074
   39MOL   H13713133   5.447   7.633   7.457 -1.0455  0.1840  0.2116
   39MOL   C13813134   5.231   7.292   7.628  0.1655  0.1957  0.0845
   39MOL   C13913135   5.168   7.162   7.654  0.4675 -0.2253  0.1964
   39MOL   C14013136   5.220   7.096   7.781 -0.6576  0.2270  0.7200
   39MOL   C14113137   5.152   7.096   7.903  0.5948  0.2025  0.2361
   39MOL   C14213138   5.207   7.039   8.021 -0.3228  0.3697  0.3002
   39MOL   C14313139   5.337   6.984   8.013 -0.3828  0.3916  0.6910
   39MOL   C14413140   5.411   6.988   7.893  0.4905  0.0511 -0.2681
   39MOL   C14513141   5.352   7.051   7.781 -0.4617 -0.1039 -0.5873
   39MOL   O14613142   5.030   7.200   7.658  0.5710 -0.0502  0.0655
   39MOL   H14713143   5.197   7.336   7.533 -2.3115 -2.1594 -0.1716
   39MOL   H14813144   5.201   7.366   7.702 -0.2995  1.4143 -1.2810
   39MOL   H14913145   5.185   7.090   7.573  1.1138 -1.1292  1.1229
   39MOL   H15013146   5.056   7.147   7.907  0.5844  0.2937 -1.1135
   39MOL   H15113147   5.148   7.034   0.031  0.2231 -0.4297  0.6183
   39MOL   H15213148   5.396   6.954   0.018 -0.2719 -1.9838 -0.1966
   39MOL   H15313149   5.516   6.966   7.894  0.1780 -1.5176  0.9364
   39MOL   H15413150   5.421   7.058   7.698  0.6825 -1.9288  0.1833
   39MOL   C15513151   4.940   7.092   7.613  0.0584 -0.7506  0.3414
   39MOL   C15613152   4.885   7.115   7.475 -0.0915  0.8019  0.3355
   39MOL   C15713153   4.988   7.104   7.366 -0.2690 -0.3565  0.5289
   39MOL   C15813154   5.032   6.980   7.326 -0.6946 -0.2344 -0.2047
   39MOL   C15913155   5.130   6.964   7.222 -0.2912  0.1265 -0.2354
   39MOL   C16013156   5.167   7.080   7.154  0.1632 -0.6343 -0.2993
   39MOL   C16113157   5.129   7.212   7.197  0.6696 -0.6161 -0.1080
   39MOL   C16213158   5.046   7.218   7.304  0.1995  0.0890  0.4233
   39MOL   O16313159   4.782   7.022   7.448 -0.4980  0.1042  0.4083
   39MOL   H16413160   4.857   7.116   7.679  0.3578 -1.1502  0.8699
   39MOL   H16513161   4.975   6.991   7.636  0.3996 -0.7873 -0.3203
   39MOL   H16613162   4.858   7.220   7.472  1.8216  1.2536 -2.2873
   39MOL   H16713163   4.982   6.897   7.375 -0.1376 -1.1720 -1.2014
   39MOL   H16813164   5.153   6.873   7.169 -1.2989 -0.2192 -0.0917
   39MOL   H16913165   5.217   7.078   7.058 -0.7166 -0.3537 -0.7680
   39MOL   H17013166   5.144   7.294   7.129 -0.7568 -0.6377 -0.4710
   39MOL   H17113167   5.004   7.314   7.329 -3.7328 -1.2826 -0.5230
   39MOL   C17213168   4.654   7.083   7.456  0.2097  0.4779 -0.3020
   39MOL   C17313169   4.613   7.158   7.329  0.4838  0.1201 -0.4955
   39MOL   C17413170   4.611   7.082   7.200  0.5615 -0.7838 -0.4181
   39MOL   C17513171   4.499   7.012   7.147 -0.3087 -0.0120  0.0295
   39MOL   C17613172   4.507   6.939   7.029  0.1131  0.0412 -0.1272
   39MOL   C17713173   4.619   6.946   6.953  0.2420  0.1954  0.1831
   39MOL   C17813174   4.741   7.003   7.003 -0.1127  0.2048  0.1198
   39MOL   C17913175   4.733   7.074   7.126 -0.2043  0.2549  0.1401
   39MOL   O18013176   4.666   7.290   7.309 -0.0305  0.6251  0.0413
   39MOL   H18113177   4.578   7.005   7.461  0.3538  0.2975 -0.9572
   39MOL   H18213178   4.637   7.141   7.547 -0.6534  1.3111 -0.9911
   39MOL   H18313179   4.508   7.173   7.353  0.9027  0.1780  1.4024
   39MOL   H18413180   4.403   7.015   7.197  0.1410  1.3918  0.8381
   39MOL   H18513181   4.424   6.884   6.986 -0.3706  0.7855 -0.1526
   39MOL   H18613182   4.632   6.893   6.860 -0.5036  1.9174 -0.9249
   39MOL   H18713183   4.834   6.994   6.948 -0.6648  1.2672 -1.0021
   39MOL   H18813184   4.826   7.114   7.163  0.7097 -1.6061 -0.0807
   39MOL   C18913185   4.634   7.392   7.403  0.8740  0.5282  0.0175
   39MOL   C19013186   4.658   7.536   7.350  0.2934 -0.6582 -0.8553
   39MOL   C19113187   4.808   7.555   7.319  0.7770 -0.1820 -0.0934
   39MOL   C19213188   4.900   7.573   7.422  1.3007 -0.4723  0.3151
   39MOL   C19313189   5.038   7.595   7.396  0.3118  0.1161  0.1358
   39MOL   C19413190   5.080   7.584   7.259 -0.0407 -0.3260  0.2200
   39MOL   C19513191   4.985   7.572   7.154 -0.1414  0.2674 -0.3114
   39MOL   C19613192   4.852   7.560   7.183  0.8612  0.0759  0.6705
   39MOL   O19713193   4.597   7.636   7.431  0.0430  0.6898  0.0193
   39MOL   H19813194   4.530   7.392   7.433  0.1803  0.2264 -2.3098
   39MOL   H19913195   4.689   7.364   7.493 -0.5747  0.4246  0.8819
   39MOL   H20013196   4.616   7.549   7.251 -0.4677  1.1869 -0.2977
   39MOL   H20113197   4.867   7.575   7.525  1.1141  1.8290  0.2389
   39MOL   H20213198   5.112   7.592   7.474  0.1240 -1.3325  0.2891
   39MOL   H20313199   5.186   7.591   7.240  0.3822  0.4826  2.6299
   39MOL   H20413200   5.020   7.574   7.052  1.4277  0.7846  0.2154
   39MOL   H20513201   4.777   7.549   7.106  3.0898  0.3202 -1.6326
   39MOL   C20613202   4.619   7.763   7.378 -0.4424 -0.5876 -0.6703
   39MOL   C20713203   4.579   7.867   7.486 -0.0108 -0.1804 -0.0355
   39MOL   C20813204   4.568   8.012   7.426  0.3745  0.4175 -0.4956
   39MOL   C20913205   4.478   8.049   7.324  0.0830 -0.2994 -0.1153
   39MOL   C21013206   4.487   0.097   7.275 -0.0030 -0.4664 -0.0917
   39MOL   C21113207   4.571   0.197   7.324 -0.0579  0.1733  0.3282
   39MOL   C21213208   4.644   0.166   7.441  0.2138  0.4970  0.0558
   39MOL   C21313209   4.650   0.031   7.483 -0.1599 -0.5428  0.8633
   39MOL   O21413210   4.680   7.858   7.587 -0.2520  0.0888  0.2500
   39MOL   H21513211   4.718   7.785   7.339  0.1724  0.6057  1.4608
   39MOL   H21613212   4.549   7.775   7.295 -0.3054  0.0022 -0.7052
   39MOL   H21713213   4.481   7.845   7.528 -0.1103  0.5128  0.1058
   39MOL   H21813214   4.416   7.968   7.290 -0.8007 -0.0376  0.8556
   39MOL   H21913215   4.432   0.120   7.185  2.4297 -2.9097 -2.2970
   39MOL   H22013216   4.593   0.290   7.275 -0.1602 -0.5396 -1.1006
   39MOL   H22113217   4.708   0.235   7.494  0.1722  2.5977 -2.5373
   39MOL   H22213218   4.721   0.006   7.561  0.9512 -3.4831 -0.9741
   39MOL   C22313219   4.635   7.872   7.721  0.6205  0.1842  0.3349
   39MOL   C22413220   4.748   7.870   7.825 -0.6022 -0.0109  1.0816
   39MOL   C22513221   4.831   7.741   7.828 -0.5897  0.0232 -0.5211
   39MOL   C22613222   4.777   7.635   7.904 -0.0310  0.0015 -0.5740
   39MOL   C22713223   4.851   7.512   7.909  0.1728  0.0491  0.3239
   39MOL   C22813224   4.963   7.488   7.831  0.2900 -0.0926 -0.1107
   39MOL   C22913225   5.024   7.596   7.765  0.1135 -1.5774  0.0902
   39MOL   C23013226   4.956   7.720   7.764  0.7462  0.9986  0.0673
   39MOL   O23113227   4.830   7.980   7.782 -0.6255 -0.1383 -0.4819
   39MOL   H23213228   4.571   7.956   7.750 -0.6897 -1.0731  1.1613
   39MOL   H23313229   4.586   7.776   7.736 -1.7552  1.1747 -0.7452
   39MOL   H23413230   4.696   7.888   7.919 -1.4450  1.1232  0.4149
   39MOL   H23513231   4.688   7.656   7.960  1.9558  1.7438  2.0266
   39MOL   H23613232   4.797   7.432   7.958 -1.8732  1.3751  0.3083
   39MOL   H23713233   5.007   7.389   7.828 -1.9317 -1.1203  0.2096
   39MOL   H23813234   5.115   7.588   7.707 -0.4142 -0.0525 -0.9829
   39MOL   H23913235   5.004   7.797   7.706  1.0536  0.0037 -1.0455
   39MOL   C24013236   4.925   8.017   7.887  0.2655  0.3536  0.5035
   39MOL   C24113237   4.865   0.045   7.982 -0.2546  0.9540 -0.0812
   39MOL   C24213238   4.839   0.174   7.908 -0.4658 -0.2108 -0.3983
   39MOL   C24313239   4.709   0.211   7.867 -0.4202 -0.4801 -0.2841
   39MOL   C24413240   4.686   0.339   7.815 -0.1853  0.2553  0.0129
   39MOL   C24513241   4.789   0.428   7.796 -0.0050 -1.6412 -0.2394
   39MOL   C24613242   4.922   0.394   7.831 -0.1390  0.2155 -0.4406
   39MOL   C24713243   4.946   0.266   7.887 -0.1093 -0.4635 -0.8848
   39MOL   O24813244   4.754   8.079   8.054 -0.4562 -0.1754 -0.3449
   39MOL   H24913245   4.961   7.931   7.944  1.5488  0.1773 -0.5441
   39MOL   H25013246   5.016   8.059   7.844  0.0148  0.3499 -0.0416
   39MOL   H25113247   4.930   0.057   8.069  0.6451  0.6874 -0.7132
   39MOL   H25213248   4.628   0.140   7.875 -1.8102  1.0630 -0.4030
   39MOL   H25313249   4.590   0.368   7.773  0.0060  2.7708  1.2513
   39MOL   H25413250   4.754   0.523   7.758 -0.8035 -1.4132  1.0308
   39MOL   H25513251   5.004   0.460   7.805 -1.5337  1.7019 -1.1245
   39MOL   H25613252   5.044   0.226   7.909 -0.3382 -1.4484 -1.6447
   39MOL   C25713253   4.704   0.085   0.075 -0.2099 -0.4699  0.0871
   39MOL   C25813254   4.673   0.027   0.213  0.1276  0.0382  1.1120
   39MOL   C25913255   4.606   0.130   0.303  0.2393 -0.1983  0.7230
   39MOL   C26013256   4.661   0.198   0.416 -0.2561 -0.2637 -0.4471
   39MOL   C26113257   4.582   0.282   0.499 -0.2345 -0.5680 -0.2052
   39MOL   C26213258   4.447   0.301   0.465 -0.3476  0.0694  0.3755
   39MOL   C26313259   4.393   0.239   0.351  0.0433 -0.0101  0.1276
   39MOL   C26413260   4.472   0.156   0.270  0.1486 -0.1916  0.0482
   39MOL   O26513261   4.786   8.045   0.280 -0.3082 -0.5698 -0.1982
   39MOL   H26613262   4.614   0.124   0.027  0.3561 -0.3573 -0.9036
   39MOL   H26713263   4.758   0.179   0.089 -0.8432  0.1994 -1.7162
   39MOL   H26813264   4.598   8.031   0.194 -0.3448  0.8990 -0.5879
   39MOL   H26913265   4.761   0.181   0.453 -1.7514 -0.6214  3.7480
   39MOL   H27013266   4.615   0.320   0.594 -2.8057 -0.5330  0.7154
   39MOL   H27113267   4.383   0.363   0.527 -0.9869  1.4397 -1.6060
   39MOL   H27213268   4.292   0.257   0.320 -0.0370 -0.8604 -0.1139
   39MOL   H27313269   4.434   0.115   0.178  1.2820 -1.5815  0.1863
   39MOL   C27413270   4.825   7.930   0.212  0.1633 -1.0027  0.8563
   39MOL   C27513271   4.913   7.837   0.303  0.2661 -0.0808  0.0310
   39MOL   C27613272   5.041   7.795   0.234 -0.3192  0.4191  0.6841
   39MOL   C27713273   5.037   7.744   0.101  0.2389  0.6060 -0.0066
   39MOL   C27813274   5.157   7.717   0.031  0.0707 -0.0915 -0.2777
   39MOL   C27913275   5.287   7.729   0.094 -0.1507 -0.4910 -0.8010
   39MOL   C28013276   5.292   7.778   0.229  0.2996  0.0479  0.0783
   39MOL   C28113277   5.171   7.807   0.299  0.3544 -0.3935 -0.7601
   39MOL   O28213278   4.844   7.721   0.342  0.9285  0.5531 -0.0914
   39MOL   H28313279   4.741   7.871   0.176 -0.3479  1.2269 -1.7066
   39MOL   H28413280   4.890   7.973   0.135 -0.4593 -0.9665  0.3520
   39MOL   H28513281   4.949   7.891   0.390  1.6439  1.8912 -1.6852
   39MOL   H28613282   4.951   7.710   0.045  0.3565  1.3652 -0.6617
   39MOL   H28713283   5.151   7.691   8.007  0.0071 -0.1056 -0.2700
   39MOL   H28813284   5.378   7.703   0.042  1.9250 -1.2948  3.0692
   39MOL   H28913285   5.385   7.779   0.284  0.7260 -0.5460 -0.6154
   39MOL   H29013286   5.172   7.844   0.400  1.4002  0.8971 -1.2348
   39MOL   C29113287   4.744   7.735   0.445 -1.0157  0.1870 -0.0427
   39MOL   C29213288   4.791   7.728   0.588 -0.2502  0.3908 -0.5023
   39MOL   C29313289   4.840   7.862   0.641  0.2268  0.4332 -0.7098
   39MOL   C29413290   4.973   7.876   0.676 -0.5199 -0.1102  0.6194
   39MOL   C29513291   5.029   8.002   0.704  0.5919  0.5632 -1.2220
   39MOL   C29613292   4.945   0.031   0.719  0.3495  0.5752  0.4861
   39MOL   C29713293   4.806   0.020   0.685  0.3863 -0.5061  0.6163
   39MOL   C29813294   4.754   7.974   0.646  0.0162  0.1982 -0.8408
   39MOL   O29913295   4.693   7.675   0.682  0.0339 -0.5115  0.1210
   39MOL   H30013296   4.673   7.653   0.438 -0.7110  0.0143 -1.2508
   39MOL   H30113297   4.681   7.820   0.417 -1.1941  0.3195  0.7698
   39MOL   H30213298   4.877   7.661   0.594  0.5572  1.2750 -1.9270
   39MOL   H30313299   5.045   7.796   0.667 -2.2126 -1.8243  1.9006
   39MOL   H30413300   5.130   8.009   0.741 -0.5653 -1.2538  2.5584
   39MOL   H30513301   4.988   0.128   0.739  2.1728  0.3480 -2.1253
   39MOL   H30613302   4.743   0.108   0.686 -2.1229 -2.2589  2.2773
   39MOL   H30713303   4.650   7.965   0.618  0.1065  0.1083 -1.1502
   39MOL   C30813304   4.739   7.565   0.760 -0.5807 -0.4520 -0.0849
   39MOL   C30913305   4.733   7.431   0.687  0.0342 -0.0794  0.2464
   39MOL   C31013306   4.592   7.379   0.647  0.0849 -0.0315 -0.1667
   39MOL   C31113307   4.562   7.362   0.514 -0.2566 -0.0467  0.3414
   39MOL   C31213308   4.427   7.334   0.479  0.0501  0.1448  0.3428
   39MOL   C31313309   4.326   7.308   0.580 -0.2350  0.4885 -0.8737
   39MOL   C31413310   4.363   7.322   0.713 -0.5653  0.5916  0.4042
   39MOL   C31513311   4.492   7.358   0.748  0.2955  0.4852  0.0890
   39MOL   O31613312   4.818   7.426   0.573 -0.0283 -0.0204 -0.5821
   39MOL   H31713313   4.681   7.548   0.851 -1.1898  0.0598 -0.3707
   39MOL   H31813314   4.842   7.583   0.792 -0.3792  1.0854 -1.5450
   39MOL   H31913315   4.770   7.356   0.756  1.4864 -1.1887 -1.6858
   39MOL   H32013316   4.637   7.386   0.439  0.5644 -0.8602  0.8873
   39MOL   H32113317   4.401   7.317   0.376 -0.6601  1.0222  0.3687
   39MOL   H32213318   4.228   7.280   0.545 -0.4306  0.3316 -0.1927
   39MOL   H32313319   4.285   7.290   0.781  1.1231 -4.1584  0.2211
   39MOL   H32413320   4.507   7.382   0.852  1.7496 -1.9212  0.4632
   39MOL   C32513321   4.957   7.398   0.606  0.3129 -0.2807  0.3073
   39MOL   C32613322   5.044   7.413   0.480 -0.2077 -0.3506  0.2674
   39MOL   C32713323   5.001   7.338   0.358 -0.1049  0.3486  0.1894
   39MOL   C32813324   5.049   7.378   0.235  0.2142 -0.1915  0.2971
   39MOL   C32913325   5.011   7.312   0.117  0.5054  0.8765 -0.3885
   39MOL   C33013326   4.930   7.198   0.131  0.5855 -0.1659 -0.0872
   39MOL   C33113327   4.867   7.166   0.255 -0.0776  0.0572 -0.1436
   39MOL   C33213328   4.905   7.237   0.371  0.1100  0.0595 -0.4927
   39MOL   O33313329   5.067   7.546   0.464  0.1527  0.3948 -0.2162
   39MOL   H33413330   4.974   7.293   0.632  2.3962  0.2783  1.3420
   39MOL   H33513331   5.005   7.458   0.683  1.4679 -1.5759  0.6240
   39MOL   H33613332   5.143   7.373   0.504  0.5812  0.6838 -1.2138
   39MOL   H33713333   5.119   7.459   0.223 -0.1440  0.4521  2.5061
   39MOL   H33813334   5.058   7.337   0.024  1.9309  1.0823  0.3741
   39MOL   H33913335   4.913   7.137   0.044 -2.0033 -2.9249  2.2494
   39MOL   H34013336   4.793   7.087   0.265  1.5571 -1.6325 -1.2120
   39MOL   H34113337   4.863   7.211   0.467  1.4211 -3.0637 -0.7344
   39MOL   H34213338   4.989   7.595   0.441  0.2014  0.1331 -0.9528
   40MOL     C113339   4.573   4.237   1.847  0.0075 -0.1491  0.2125
   40MOL     C213340   4.697   4.229   1.764  0.1870  0.1383 -0.3883
   40MOL     C313341   4.670   4.166   1.630  0.1134 -0.2984 -0.5864
   40MOL     C413342   4.619   4.240   1.524  0.5373  0.6763  0.0089
   40MOL     C513343   4.601   4.186   1.396  0.3612  0.7320  0.9381
   40MOL     C613344   4.628   4.048   1.377 -0.6595  0.8908  0.3433
   40MOL     C713345   4.681   3.974   1.481 -0.4147 -0.1379  0.1605
   40MOL     C813346   4.689   4.029   1.609  0.3121 -0.3695 -0.3572
   40MOL     O913347   4.786   4.151   1.844 -0.1152 -0.9816 -0.2311
   40MOL    H1013348   4.532   4.138   1.871  0.1659 -0.0849  0.7441
   40MOL    H1113349   4.591   4.284   1.943 -0.6534 -0.2836  0.4041
   40MOL    H1213350   4.737   4.329   1.748 -1.4504  0.8725  0.1137
   40MOL    H1313351   4.600   4.345   1.539 -0.4203  0.3871  0.8967
   40MOL    H1413352   4.550   4.243   1.320  0.5051 -2.3597 -1.5782
   40MOL    H1513353   4.613   3.997   1.284  2.0434  0.6631 -0.0245
   40MOL    H1613354   4.713   3.873   1.460  1.0612  0.2991  0.2794
   40MOL    H1713355   4.720   3.959   1.684 -0.0780  0.0054  0.1550
   40MOL    H1813356   4.489   4.279   1.792 -1.2320 -2.2058  0.4695
   40MOL    C1913357   4.920   4.163   1.807 -0.6892 -0.1517  0.3460
   40MOL    C2013358   5.020   4.064   1.875  0.4570 -0.0422 -0.3027
   40MOL    C2113359   5.166   4.095   1.845 -0.0726 -0.2063  0.2094
   40MOL    C2213360   5.263   4.113   1.946  0.1478 -0.1780 -0.7885
   40MOL    C2313361   5.399   4.121   1.908 -0.1810 -0.4051  0.6728
   40MOL    C2413362   5.436   4.124   1.772  0.1651 -0.6594  0.6954
   40MOL    C2513363   5.332   4.125   1.674  0.0816  0.5384 -0.6160
   40MOL    C2613364   5.200   4.103   1.710 -0.1426  0.9955 -0.3490
   40MOL    O2713365   4.986   3.938   1.812 -0.3026  0.1111 -0.2704
   40MOL    H2813366   4.924   4.152   1.699 -1.6937  3.5789 -0.1455
   40MOL    H2913367   4.944   4.264   1.841 -0.7718 -0.7011  2.0579
   40MOL    H3013368   5.001   4.073   1.982 -1.2039  0.3805 -0.6167
   40MOL    H3113369   5.236   4.112   2.051 -0.6235  0.5615 -0.9775
   40MOL    H3213370   5.477   4.122   1.982 -1.0311  1.3384  1.5776
   40MOL    H3313371   5.539   4.129   1.742  0.0640  0.7099  0.5268
   40MOL    H3413372   5.354   4.141   1.569 -0.3294  1.4683 -0.5682
   40MOL    H3513373   5.124   4.097   1.633  0.5313 -0.2092 -0.9314
   40MOL    C3613374   5.025   3.821   1.890  0.1547 -0.0363  0.0669
   40MOL    C3713375   4.955   3.800   2.023 -0.1516  0.2212  0.0570
   40MOL    C3813376   4.801   3.818   2.017  0.5112  0.4695 -0.2425
   40MOL    C3913377   4.718   3.705   1.995 -0.7181  0.1354  0.7589
   40MOL    C4013378   4.581   3.719   1.995  0.1025  0.5548 -0.0702
   40MOL    C4113379   4.522   3.843   2.027 -0.1501  0.3403 -0.4751
   40MOL    C4213380   4.611   3.949   2.060 -0.2485 -0.8164 -0.1919
   40MOL    C4313381   4.748   3.944   2.052 -0.2347 -0.0527  0.6168
   40MOL    O4413382   5.008   3.879   2.130  0.2375  0.4893 -0.0503
   40MOL    H4513383   5.016   3.743   1.815  2.5614  0.9315 -1.3251
   40MOL    H4613384   5.131   3.838   1.912  0.0846  0.9524 -0.3164
   40MOL    H4713385   4.967   3.697   2.056 -2.2267  0.0147  0.2749
   40MOL    H4813386   4.769   3.611   1.978  0.7303  0.6725  2.0309
   40MOL    H4913387   4.525   3.633   1.960  2.4035  0.0232 -2.6536
   40MOL    H5013388   4.414   3.841   2.036 -0.1684 -1.5475 -0.9068
   40MOL    H5113389   4.567   4.045   2.082  0.3492  0.0321 -2.5287
   40MOL    H5213390   4.809   4.031   2.071  1.2338 -0.2981 -2.6041
   40MOL    C5313391   4.990   3.824   2.256 -0.1536 -0.3289 -0.1687
   40MOL    C5413392   5.027   3.920   2.370  0.4751 -0.4752 -0.1158
   40MOL    C5513393   5.172   3.967   2.353 -0.9647  0.5693 -1.1445
   40MOL    C5613394   5.281   3.883   2.370  0.0602 -0.4575  0.4693
   40MOL    C5713395   5.417   3.930   2.353  0.2332  0.1964  0.2863
   40MOL    C5813396   5.446   4.061   2.313 -0.7029 -0.3459  0.4814
   40MOL    C5913397   5.339   4.149   2.293 -0.2187 -1.4198  0.1989
   40MOL    C6013398   5.199   4.100   2.306  0.5986  0.5911  1.1938
   40MOL    O6113399   4.942   4.032   2.383 -0.2044 -0.0670  0.0724
   40MOL    H6213400   4.890   3.786   2.279 -0.0756  1.7559  4.2172
   40MOL    H6313401   5.051   3.734   2.253 -0.0641 -0.2508 -0.8733
   40MOL    H6413402   5.020   3.866   2.465 -1.5982 -1.2038 -0.6790
   40MOL    H6513403   5.264   3.784   2.409 -1.1906 -0.5293 -0.2230
   40MOL    H6613404   5.507   3.871   2.354  1.3642  1.8812  0.0271
   40MOL    H6713405   5.547   4.090   2.289 -0.6295  1.2995  2.6005
   40MOL    H6813406   5.360   4.254   2.278  0.2523 -1.4512  0.6286
   40MOL    H6913407   5.119   4.173   2.303 -0.6197 -0.7271  1.0547
   40MOL    C7013408   4.809   4.002   2.432  0.4941 -0.2184 -0.6066
   40MOL    C7113409   4.727   4.125   2.468  0.4789  0.5822  0.1761
   40MOL    C7213410   4.782   4.199   2.593 -0.0670 -0.0820  0.3196
   40MOL    C7313411   4.759   4.159   2.726  0.3274  0.0336 -0.2157
   40MOL    C7413412   4.813   4.224   2.837 -0.0134  0.1734  0.0886
   40MOL    C7513413   4.869   4.353   2.823  0.1589 -0.2928 -0.5379
   40MOL    C7613414   4.887   4.399   2.685 -0.0311 -0.3375  0.0767
   40MOL    C7713415   4.853   4.315   2.575 -0.2590 -0.9643  0.4622
   40MOL    O7813416   4.596   4.087   2.499 -0.3165  0.8733 -0.2073
   40MOL    H7913417   4.754   3.931   2.370  3.0855 -1.0925 -2.0049
   40MOL    H8013418   4.823   3.938   2.519 -1.1343 -1.5057 -1.2547
   40MOL    H8113419   4.727   4.194   2.384  0.5113 -0.0021 -0.3083
   40MOL    H8213420   4.699   4.071   2.745  0.2045  0.3869  1.0894
   40MOL    H8313421   4.795   4.182   2.935 -0.8612 -0.3195 -0.2793
   40MOL    H8413422   4.895   4.415   2.908  1.1754  1.5459 -2.1191
   40MOL    H8513423   4.933   4.497   2.680 -1.9059  0.5802  0.3214
   40MOL    H8613424   4.872   4.348   2.474  0.6033 -0.5178  0.7603
   40MOL    C8713425   4.503   4.194   2.511 -0.4310  0.4521  0.5392
   40MOL    C8813426   4.358   4.143   2.521  0.5673 -0.0355 -0.7983
   40MOL    C8913427   4.263   4.261   2.509 -0.3497  0.4801 -0.6435
   40MOL    C9013428   4.258   4.356   2.615  0.6262 -0.1432 -1.1931
   40MOL    C9113429   4.170   4.466   2.598 -0.3716 -0.1538  0.1040
   40MOL    C9213430   4.097   4.490   2.481  0.0374  0.3684  0.0500
   40MOL    C9313431   4.114   4.405   2.375  0.1037 -0.6777 -1.0774
   40MOL    C9413432   4.195   4.286   2.389 -0.0891 -0.2188  0.2789
   40MOL    O9513433   4.343   4.077   2.644 -0.1629 -0.2172 -0.5153
   40MOL    H9613434   4.513   4.258   2.423  0.3359  1.2795  1.2175
   40MOL    H9713435   4.520   4.256   2.599  0.9748  0.3608  0.3345
   40MOL    H9813436   4.342   4.072   2.440  0.2056 -0.5777 -0.2521
   40MOL    H9913437   4.308   4.349   2.710  1.3515  1.4136 -1.4523
   40MOL   H10013438   4.156   4.545   2.669  0.2199  2.2243 -2.3565
   40MOL   H10113439   4.021   4.567   2.486 -1.3811 -0.9766 -0.2566
   40MOL   H10213440   4.061   4.413   2.281  1.1936 -0.3582 -1.6762
   40MOL   H10313441   4.202   4.229   2.297 -1.5182  1.2624 -0.7822
   40MOL   C10413442   4.224   3.990   2.641 -0.5908  0.0700  0.2753
   40MOL   C10513443   4.259   3.842   2.682  0.5146  0.3519  0.1016
   40MOL   C10613444   4.354   3.775   2.583  0.5294 -0.0112  0.8066
   40MOL   C10713445   4.302   3.695   2.474 -0.5883 -0.1634  0.3246
   40MOL   C10813446   4.393   3.636   2.383 -0.3821  0.2983  0.0316
   40MOL   C10913447   4.533   3.648   2.408  0.6273  0.0112  1.0254
   40MOL   C11013448   4.575   3.728   2.515 -0.5790 -0.2325 -0.3162
   40MOL   C11113449   4.489   3.792   2.602 -0.5316  0.1214  0.0732
   40MOL   O11213450   4.295   3.823   2.818 -0.5349 -0.0878  0.1362
   40MOL   H11313451   4.153   4.038   2.709  1.3582  0.7914  1.8606
   40MOL   H11413452   4.176   3.995   2.544  1.1462  0.4800 -0.5883
   40MOL   H11513453   4.173   3.778   2.662  1.1331  0.0695 -1.7649
   40MOL   H11613454   4.197   3.675   2.460 -0.1789 -0.6480 -2.2554
   40MOL   H11713455   4.362   3.579   2.296 -1.4003 -0.9548  1.2000
   40MOL   H11813456   4.596   3.585   2.347 -0.6694 -1.0028  0.7065
   40MOL   H11913457   4.681   3.743   2.531 -0.1782 -0.5621 -2.4905
   40MOL   H12013458   4.521   3.853   2.685  0.2590 -1.5820  1.0508
   40MOL   C12113459   4.307   3.687   2.855 -0.5328  0.1877 -0.2045
   40MOL   C12213460   4.331   3.684   3.008 -0.0575 -0.1848  0.7007
   40MOL   C12313461   4.313   3.539   3.066  0.3461  0.0105  0.0003
   40MOL   C12413462   4.429   3.462   3.078  0.3312 -0.5512 -0.0101
   40MOL   C12513463   4.424   3.332   3.124 -0.0975  0.4491  0.2446
   40MOL   C12613464   4.303   3.276   3.165  0.1778  0.6398  0.2656
   40MOL   C12713465   4.192   3.354   3.159  0.9305  0.7458  0.0617
   40MOL   C12813466   4.188   3.484   3.102  0.0507  0.0142  0.2729
   40MOL   O12913467   4.465   3.729   3.028 -0.4704  0.5292 -0.0230
   40MOL   H13013468   4.387   3.633   2.805 -0.2918  1.7064 -1.5163
   40MOL   H13113469   4.214   3.631   2.845  0.3334 -1.4298  0.5797
   40MOL   H13213470   4.264   3.752   3.061 -1.5994  0.5582 -2.1452
   40MOL   H13313471   4.524   3.503   3.047 -0.3060  2.1077  1.4326
   40MOL   H13413472   4.513   3.277   3.149  2.2020  2.5085 -2.9772
   40MOL   H13513473   4.282   3.183   3.217 -2.1054  2.0035  1.8661
   40MOL   H13613474   4.092   3.317   3.171  0.6809  1.7485  1.0563
   40MOL   H13713475   4.094   3.536   3.086  0.0546 -0.6950 -2.2444
   40MOL   C13813476   4.475   3.870   3.038  0.3934 -0.3905  0.6164
   40MOL   C13913477   4.593   3.917   3.119  0.3397  0.3509 -0.2979
   40MOL   C14013478   4.569   3.903   3.274  0.0398 -0.0726 -0.1654
   40MOL   C14113479   4.565   3.772   3.337 -1.2683 -0.4674 -0.1887
   40MOL   C14213480   4.521   3.767   3.472 -0.2898  0.5696  0.0960
   40MOL   C14313481   4.514   3.885   3.547 -0.0177 -0.3137 -0.0034
   40MOL   C14413482   4.517   4.016   3.485  0.2045  0.1437 -0.1840
   40MOL   C14513483   4.537   4.019   3.349  0.3239  0.1148  0.0340
   40MOL   O14613484   4.709   3.848   3.093  0.6353 -0.1589 -0.5008
   40MOL   H14713485   4.385   3.918   3.076  1.0044 -0.1259  1.7535
   40MOL   H14813486   4.482   3.920   2.941  0.6500  0.7811  1.2257
   40MOL   H14913487   4.622   4.017   3.086 -0.1305  1.1805  1.7284
   40MOL   H15013488   4.594   3.684   3.282 -1.1522 -1.0184  0.7434
   40MOL   H15113489   4.519   3.669   3.518 -1.3512 -0.1311 -1.4013
   40MOL   H15213490   4.502   3.873   3.653  0.6811  0.4162  0.1646
   40MOL   H15313491   4.496   4.102   3.547  0.4625  1.0426 -1.3486
   40MOL   H15413492   4.520   4.115   3.301 -2.0801 -0.7887 -1.0142
   40MOL   C15513493   4.756   3.843   2.962 -0.4014 -0.4255  0.1836
   40MOL   C15613494   4.900   3.798   2.964 -0.8447  0.5153 -0.2415
   40MOL   C15713495   4.905   3.661   3.034  0.2472  0.4726 -1.3937
   40MOL   C15813496   4.879   3.548   2.956  0.5792  0.0880 -0.2725
   40MOL   C15913497   4.878   3.415   3.011  0.3273 -0.3089 -0.2335
   40MOL   C16013498   4.908   3.405   3.152  0.5852  0.0002 -0.9655
   40MOL   C16113499   4.933   3.520   3.229  0.6725 -0.9174 -0.5119
   40MOL   C16213500   4.938   3.647   3.172  0.1220 -0.1023  0.0752
   40MOL   O16313501   4.953   3.786   2.831  0.2054  0.1001  0.3557
   40MOL   H16413502   4.756   3.942   2.917  1.4004 -0.9598 -1.0545
   40MOL   H16513503   4.693   3.781   2.899 -1.9701  0.5865  0.7288
   40MOL   H16613504   4.969   3.862   3.019 -1.5296  0.7207  0.3738
   40MOL   H16713505   4.842   3.559   2.855 -0.6135 -0.5656  0.0780
   40MOL   H16813506   4.850   3.332   2.947 -0.0488 -0.9116  0.7025
   40MOL   H16913507   4.894   3.311   3.204 -0.6026  0.4026 -0.5354
   40MOL   H17013508   4.964   3.514   3.333  0.9488 -0.0594 -0.5383
   40MOL   H17113509   4.973   3.730   3.232  0.4760 -1.0960  1.2564
   40MOL   C17213510   5.042   3.890   2.787 -0.0681 -0.3466 -0.6516
   40MOL   C17313511   5.188   3.896   2.833 -0.7351  0.0158  0.2963
   40MOL   C17413512   5.247   3.757   2.816 -0.1644  0.7406  0.1032
   40MOL   C17513513   5.342   3.733   2.707  0.5088  0.7228  0.1190
   40MOL   C17613514   5.399   3.606   2.687 -0.2487  0.0099 -0.1235
   40MOL   C17713515   5.367   3.498   2.771 -0.0704 -0.1928  0.6005
   40MOL   C17813516   5.268   3.520   2.868  0.1315 -0.9645  0.5390
   40MOL   C17913517   5.206   3.645   2.887  0.0347  0.3420  0.1822
   40MOL   O18013518   5.189   3.935   2.963  0.1164 -0.8043  0.1497
   40MOL   H18113519   5.049   3.872   2.680  0.1546  1.0108 -0.8795
   40MOL   H18213520   5.006   3.993   2.785  0.4315 -0.0928  1.6948
   40MOL   H18313521   5.250   3.964   2.775 -1.3681 -0.4023 -0.8640
   40MOL   H18413522   5.372   3.811   2.638  0.3963 -0.1062 -0.8898
   40MOL   H18513523   5.482   3.594   2.619 -0.8086 -2.4559 -0.4274
   40MOL   H18613524   5.417   3.405   2.748 -2.5714 -1.3776 -0.2192
   40MOL   H18713525   5.246   3.438   2.935 -0.4097 -0.7350  0.6481
   40MOL   H18813526   5.136   3.654   2.969 -1.7959 -2.5713 -0.9661
   40MOL   C18913527   5.316   3.972   3.009 -0.1122  0.1351  1.0256
   40MOL   C19013528   5.303   4.018   3.153 -0.0213 -0.4271 -0.4653
   40MOL   C19113529   5.208   4.141   3.177  0.8606  0.7528  0.4648
   40MOL   C19213530   5.250   4.272   3.208  0.1013 -0.8734 -0.2417
   40MOL   C19313531   5.156   4.377   3.221 -0.5145 -0.0893 -0.3107
   40MOL   C19413532   5.016   4.360   3.208 -0.0263  0.0079 -0.4493
   40MOL   C19513533   4.974   4.228   3.180 -0.3786  0.0502 -0.7857
   40MOL   C19613534   5.065   4.120   3.176 -0.3495  1.2801  0.2953
   40MOL   O19713535   5.433   4.046   3.198  0.1124 -0.4434 -0.6411
   40MOL   H19813536   5.393   3.895   3.008  0.1878  0.4390 -0.1552
   40MOL   H19913537   5.360   4.052   2.948  2.9302 -1.0208  1.5981
   40MOL   H20013538   5.273   3.938   3.221  2.3043 -0.6511  0.3447
   40MOL   H20113539   5.354   4.294   3.230  0.0930 -1.1018  0.0275
   40MOL   H20213540   5.186   4.473   3.261  0.4039 -0.1788 -0.7696
   40MOL   H20313541   4.948   4.443   3.207 -0.1085 -0.0635 -0.7097
   40MOL   H20413542   4.868   4.209   3.174 -0.5166  0.3745  0.4870
   40MOL   H20513543   5.031   4.018   3.176  2.0204  0.4373 -1.6649
   40MOL   C20613544   5.452   4.028   3.340 -0.5613  0.0988  0.2030
   40MOL   C20713545   5.598   3.990   3.383  0.5161  0.0019 -0.5495
   40MOL   C20813546   5.665   3.914   3.276  0.2259  0.2119  0.4956
   40MOL   C20913547   5.709   3.780   3.308  0.6789 -0.0801 -0.1906
   40MOL   C21013548   5.786   3.718   3.213 -0.2256  0.8182  0.2687
   40MOL   C21113549   5.825   3.770   3.090  0.7476 -0.0863  0.1681
   40MOL   C21213550   5.776   3.895   3.058  0.0351  0.1590  0.3449
   40MOL   C21313551   5.704   3.968   3.154  0.6496  0.0468  0.6269
   40MOL   O21413552   5.598   3.927   3.510 -0.3334  0.0382  0.0832
   40MOL   H21513553   5.416   4.119   3.389  0.7468  1.4285 -1.2539
   40MOL   H21613554   5.392   3.946   3.379 -0.1070 -0.8481 -1.0656
   40MOL   H21713555   5.647   4.087   3.399 -1.4428  0.7341  1.2011
   40MOL   H21813556   5.691   3.731   3.402  1.2317  0.4416  0.1964
   40MOL   H21913557   5.820   3.620   3.242  0.1199  0.8584  0.0024
   40MOL   H22013558   5.869   3.721   3.004  0.0132  1.9055 -1.3831
   40MOL   H22113559   5.800   3.946   2.965  1.5127  1.1278  1.2430
   40MOL   H22213560   5.689   4.074   3.139 -1.1354 -0.1473  0.8989
   40MOL   C22313561   5.632   4.004   3.624  0.5345 -0.6185  0.2294
   40MOL   C22413562   5.778   3.981   3.689 -0.3986 -0.3043  0.1858
   40MOL   C22513563   5.880   4.081   3.623  0.1118  0.5892  0.4948
   40MOL   C22613564   5.909   4.069   3.483  0.1480  0.1050  0.0982
   40MOL   C22713565   6.009   4.148   3.425 -0.5771 -0.3919 -0.5223
   40MOL   C22813566   6.064   4.256   3.494 -0.4287 -0.4432 -0.1313
   40MOL   C22913567   6.033   4.273   3.631 -0.0028 -0.4070 -0.4881
   40MOL   C23013568   5.952   4.183   3.697 -0.2446  0.4090 -0.1095
   40MOL   O23113569   5.783   3.995   3.840 -0.3030 -0.6393 -0.1354
   40MOL   H23213570   5.608   4.109   3.608 -1.0635 -1.0002  0.0307
   40MOL   H23313571   5.562   3.959   3.695  1.7978 -1.2713  1.0929
   40MOL   H23413572   5.815   3.882   3.662  1.0879 -0.0450  1.2076
   40MOL   H23513573   5.856   3.995   3.425 -2.5958  1.7991  0.3546
   40MOL   H23613574   6.032   4.133   3.321  3.5100 -2.0216  0.5417
   40MOL   H23713575   6.129   4.328   3.447 -0.8585 -0.8085 -1.2936
   40MOL   H23813576   6.076   4.349   3.695  0.7631 -1.0845 -0.1900
   40MOL   H23913577   5.934   4.186   3.803 -1.9767 -1.6004 -0.3072
   40MOL   C24013578   5.721   3.880   3.898 -0.4812  0.7060  0.1430
   40MOL   C24113579   5.752   3.871   4.043 -0.4444 -0.3405 -0.1971
   40MOL   C24213580   5.725   4.005   4.105  0.1415  0.0393  0.1614
   40MOL   C24313581   5.596   4.050   4.125 -0.4679  0.5043 -0.2529
   40MOL   C24413582   5.574   4.171   4.187  0.3155  0.0576 -0.3602
   40MOL   C24513583   5.679   4.262   4.217  0.4950 -0.6470  0.5446
   40MOL   C24613584   5.814   4.213   4.199  0.7023  0.2368  0.0377
   40MOL   C24713585   5.832   4.087   4.141  0.4177 -0.7506  0.0415
   40MOL   O24813586   5.672   3.763   4.105 -0.9462 -0.2865  0.0298
   40MOL   H24913587   5.612   3.876   3.890 -0.3347 -0.7560 -1.4799
   40MOL   H25013588   5.752   3.786   3.852 -3.3454 -0.5555  0.6483
   40MOL   H25113589   5.856   3.842   4.054 -0.2984 -0.5204 -1.8966
   40MOL   H25213590   5.513   3.984   4.107  0.6199 -1.3312  1.2661
   40MOL   H25313591   5.473   4.200   4.208  0.3746 -0.9488  1.4706
   40MOL   H25413592   5.659   4.356   4.266 -0.9362 -1.0864  0.8316
   40MOL   H25513593   5.905   4.266   4.227  0.5696  0.7356 -0.4810
   40MOL   H25613594   5.933   4.052   4.127  0.3810 -0.9532  0.2977
   40MOL   C25713595   5.724   3.719   4.231 -0.3792 -0.5865 -0.4171
   40MOL   C25813596   5.628   3.621   4.310 -0.2188 -0.2676 -0.0484
   40MOL   C25913597   5.578   3.510   4.219  0.1732 -0.2030 -0.0296
   40MOL   C26013598   5.639   3.383   4.216 -0.0859  0.1316  0.3289
   40MOL   C26113599   5.592   3.286   4.123  0.4598  0.2343 -0.0969
   40MOL   C26213600   5.487   3.317   4.035  0.3471  0.2756  0.7983
   40MOL   C26313601   5.427   3.440   4.045  0.3545  0.0530 -0.0633
   40MOL   C26413602   5.469   3.533   4.136  0.5155 -0.1162  0.1528
   40MOL   O26513603   5.511   3.696   4.359  0.1226  0.0804 -0.6036
   40MOL   H26613604   5.752   3.803   4.294  1.9000 -2.4255  1.0860
   40MOL   H26713605   5.805   3.647   4.218 -1.6184 -2.3756  1.3382
   40MOL   H26813606   5.684   3.581   4.394 -0.9352  1.3877  1.2429
   40MOL   H26913607   5.722   3.366   4.283 -1.3797 -0.2757  1.8553
   40MOL   H27013608   5.643   3.192   4.112 -0.3836 -0.2300 -0.1101
   40MOL   H27113609   5.457   3.244   3.962  1.9931  0.1838  0.1945
   40MOL   H27213610   5.345   3.463   3.978  1.2002  3.5008 -0.0327
   40MOL   H27313611   5.414   3.625   4.150  2.1235  0.9474 -0.3628
   40MOL   C27413612   5.529   3.782   4.464 -0.5893 -0.6599 -1.3602
   40MOL   C27513613   5.391   3.808   4.531  0.0507  0.9413  0.3849
   40MOL   C27613614   5.387   3.948   4.587 -0.8495 -0.3013 -0.1992
   40MOL   C27713615   5.397   3.963   4.727 -0.1464  0.1626  0.3423
   40MOL   C27813616   5.401   4.092   4.783 -0.7098  0.5581 -0.1715
   40MOL   C27913617   5.386   4.203   4.708  0.1173  0.3109 -0.0380
   40MOL   C28013618   5.373   4.186   4.564  0.1516  0.1337 -0.0317
   40MOL   C28113619   5.375   4.057   4.506  0.2893 -0.1664  0.0331
   40MOL   O28213620   5.377   3.704   4.629 -0.3504 -0.5364  0.6283
   40MOL   H28313621   5.600   3.743   4.537 -2.1020 -1.3777 -0.2447
   40MOL   H28413622   5.566   3.871   4.412 -0.5061 -0.3307 -0.7420
   40MOL   H28513623   5.305   3.814   4.465  0.7511  0.9154 -0.5456
   40MOL   H28613624   5.418   3.877   4.788  0.3816 -0.3539 -0.5690
   40MOL   H28713625   5.404   4.095   4.891 -0.8642  0.1795 -0.1549
   40MOL   H28813626   5.371   4.299   4.753 -1.1841 -0.1546  0.5501
   40MOL   H28913627   5.357   4.271   4.499  1.3246  0.9337  0.7124
   40MOL   H29013628   5.364   4.041   4.400  1.5162 -1.0258  0.0292
   40MOL   C29113629   5.331   3.577   4.585 -0.2915  0.0362 -0.1225
   40MOL   C29213630   5.311   3.488   4.713  0.9798 -0.0832 -0.2162
   40MOL   C29313631   5.442   3.478   4.786  0.8139 -0.3121 -0.2140
   40MOL   C29413632   5.546   3.421   4.716 -0.2702 -0.2875  0.5307
   40MOL   C29513633   5.672   3.406   4.776 -0.3768  0.3636 -0.7637
   40MOL   C29613634   5.682   3.448   4.914  0.4621  0.2811  0.3963
   40MOL   C29713635   5.579   3.523   4.980 -0.6480  0.3521 -0.7889
   40MOL   C29813636   5.453   3.528   4.915 -0.0935 -0.2630  0.1878
   40MOL   O29913637   5.197   3.530   4.790 -0.2846 -0.0289 -0.0797
   40MOL   H30013638   5.399   3.532   4.513  0.5987 -0.9431  1.2979
   40MOL   H30113639   5.236   3.591   4.534 -0.1284  0.0650 -0.4175
   40MOL   H30213640   5.300   3.384   4.683 -0.4697  0.3648 -1.3364
   40MOL   H30313641   5.528   3.384   4.616 -0.1952  1.5317 -0.1744
   40MOL   H30413642   5.762   3.358   4.742  0.5716  0.7257  1.1726
   40MOL   H30513643   5.773   3.433   4.969 -0.2473 -2.1265  0.9714
   40MOL   H30613644   5.587   3.563   5.080 -0.6788  1.0755 -1.0717
   40MOL   H30713645   5.369   3.577   4.962 -0.0163  1.2757 -1.2224
   40MOL   C30813646   5.073   3.537   4.720  0.5329  0.8438  0.8945
   40MOL   C30913647   4.968   3.567   4.824 -0.1185  0.4301 -0.0659
   40MOL   C31013648   4.969   3.709   4.883  0.2244  0.4375  0.0965
   40MOL   C31113649   4.866   3.746   4.973  0.1680 -0.4601 -0.2291
   40MOL   C31213650   4.863   3.870   5.035  0.3123  0.0247 -0.0228
   40MOL   C31313651   4.980   3.959   5.024  0.0978 -0.0712 -0.2090
   40MOL   C31413652   5.082   3.926   4.933  0.0385 -0.4196  0.1607
   40MOL   C31513653   5.080   3.802   4.869  1.0916  0.2769  0.2231
   40MOL   O31613654   4.844   3.546   4.757  0.1632  0.2009  1.0148
   40MOL   H31713655   5.050   3.453   4.654  2.4222  2.9416 -2.6069
   40MOL   H31813656   5.067   3.624   4.655 -0.3365  0.6637  0.7233
   40MOL   H31913657   4.977   3.496   4.906 -0.5008 -0.5080 -0.8242
   40MOL   H32013658   4.779   3.687   5.000 -1.1308  0.4747 -2.2599
   40MOL   H32113659   4.785   3.898   5.104  0.1619  0.5858 -0.4261
   40MOL   H32213660   4.990   4.043   5.091  0.8491  0.5148 -1.0458
   40MOL   H32313661   5.169   3.989   4.920  0.5509 -1.1920 -0.2371
   40MOL   H32413662   5.163   3.779   4.804 -0.3615 -0.4404 -1.4504
   40MOL   C32513663   4.774   3.434   4.808  0.0238  0.7365 -0.1993
   40MOL   C32613664   4.654   3.410   4.722 -0.1541 -0.2851  0.2018
   40MOL   C32713665   4.571   3.536   4.694  0.0454 -0.3610  0.2150
   40MOL   C32813666   4.549   3.567   4.560  0.3756  0.6772 -0.0284
   40MOL   C32913667   4.472   3.672   4.516  0.5041  0.5689 -0.3154
   40MOL   C33013668   4.408   3.751   4.611 -0.1707 -0.3624 -0.4462
   40MOL   C33113669   4.442   3.728   4.750  0.3432 -0.5488 -0.7470
   40MOL   C33213670   4.525   3.625   4.794  0.4667 -0.1870 -0.2884
   40MOL   O33313671   4.722   3.356   4.616  0.2903  0.1860  0.6012
   40MOL   H33413672   4.733   3.463   4.905  1.6096  3.7468 -0.3907
   40MOL   H33513673   4.840   3.348   4.818 -0.1660  0.3792 -1.9019
   40MOL   H33613674   4.578   3.341   4.760  0.4074 -0.6089  0.7322
   40MOL   H33713675   4.581   3.510   4.474 -0.7394  0.3771 -0.2544
   40MOL   H33813676   4.446   3.686   4.412 -1.8547 -2.7333 -0.2586
   40MOL   H33913677   4.344   3.831   4.579  0.6732  0.4698 -0.0755
   40MOL   H34013678   4.412   3.801   4.824  0.6018  0.2410 -1.4203
   40MOL   H34113679   4.546   3.593   4.896 -1.5261  0.1816  0.2564
   40MOL   H34213680   4.777   3.431   4.604 -0.5340  0.8700  1.0335
   41MOL     C113681   7.702   2.938   1.062  0.1191 -0.3588  0.2558
   41MOL     C213682   7.843   2.909   1.114  0.3320  0.3379 -0.3332
   41MOL     C313683   7.936   2.990   1.030 -0.4988 -0.3916  0.2930
   41MOL     C413684   7.963   3.124   1.062 -0.8113  0.1661 -0.4233
   41MOL     C513685   8.061   3.199   0.988  0.2392 -0.0453 -0.5628
   41MOL     C613686   0.033   3.140   0.871 -1.4401  0.6348 -0.7298
   41MOL     C713687   0.004   3.005   0.843  0.1534 -0.3555 -0.1496
   41MOL     C813688   7.994   2.930   0.919 -0.4987 -0.1819  0.6399
   41MOL     O913689   7.864   2.768   1.097  0.3127  0.2111  0.4300
   41MOL    H1013690   7.671   3.041   1.076 -0.8267 -0.1763 -2.8299
   41MOL    H1113691   7.694   2.915   0.956 -0.2066  4.2245 -0.7841
   41MOL    H1213692   7.859   2.934   1.219  0.0288 -1.5984  0.2060
   41MOL    H1313693   7.910   3.183   1.135 -1.1550  0.8779 -1.2260
   41MOL    H1413694   8.076   3.303   1.010  0.9452  0.0794 -1.5764
   41MOL    H1513695   0.093   3.199   0.803  1.3274 -0.9848  0.2219
   41MOL    H1613696   0.055   2.963   0.758 -0.4917 -0.8234 -0.3057
   41MOL    H1713697   7.968   2.833   0.879  0.3149  0.0811 -0.5835
   41MOL    H1813698   7.632   2.880   1.123  0.4792 -0.9728  0.0945
   41MOL    C1913699   7.798   2.684   1.194  0.0931 -0.2651  0.2956
   41MOL    C2013700   7.769   2.546   1.138  0.2073 -0.8386  0.3126
   41MOL    C2113701   7.650   2.472   1.197  0.7401 -0.0241 -0.8353
   41MOL    C2213702   7.678   2.360   1.274 -0.1253  0.1217 -0.0023
   41MOL    C2313703   7.577   2.283   1.330  0.0633  0.6249 -0.1945
   41MOL    C2413704   7.442   2.333   1.310 -0.6749  0.4424 -0.1043
   41MOL    C2513705   7.415   2.445   1.231 -0.1004  0.4937 -0.0936
   41MOL    C2613706   7.516   2.513   1.167  0.1592 -0.3039  0.0182
   41MOL    O2713707   7.892   2.477   1.144  0.5028 -0.5296 -0.7578
   41MOL    H2813708   7.878   2.678   1.268 -0.1863  0.5129  0.6606
   41MOL    H2913709   7.706   2.720   1.241 -0.3007  0.2349 -0.8380
   41MOL    H3013710   7.729   2.551   1.037  0.5709  1.0662  0.2439
   41MOL    H3113711   7.781   2.329   1.273 -0.6745 -1.7815  0.1776
   41MOL    H3213712   7.598   2.199   1.394 -2.1407  0.1849 -0.0088
   41MOL    H3313713   7.363   2.282   1.363 -1.2587  0.6863 -0.7383
   41MOL    H3413714   7.315   2.483   1.231 -0.3459 -0.0327 -3.1807
   41MOL    H3513715   7.490   2.593   1.100 -1.0084 -0.5847  0.1184
   41MOL    C3613716   7.974   2.500   1.029  0.6017  0.1219  0.2758
   41MOL    C3713717   0.027   2.427   1.034 -0.3557  0.9699 -0.8647
   41MOL    C3813718   8.076   2.277   1.049  0.3478 -0.5401 -0.0468
   41MOL    C3913719   0.051   2.192   1.148 -0.3033 -0.6169 -0.2623
   41MOL    C4013720   0.029   2.053   1.152  0.3350  0.5642  0.1205
   41MOL    C4113721   8.043   1.989   1.047  0.5630 -0.4433 -0.6185
   41MOL    C4213722   7.988   2.067   0.951 -0.4425 -0.1814  0.3323
   41MOL    C4313723   8.006   2.205   0.952  0.0717 -0.0507  1.0565
   41MOL    O4413724   0.089   2.467   1.156 -0.0515  0.4436 -0.1558
   41MOL    H4513725   7.919   2.474   0.938 -1.0700  1.2249  0.9477
   41MOL    H4613726   8.002   2.604   1.013 -0.2627  0.1663 -1.0570
   41MOL    H4713727   0.086   2.446   0.944 -0.8471  0.2529 -1.3383
   41MOL    H4813728   0.105   2.238   1.230 -0.4336  0.6943 -0.8996
   41MOL    H4913729   0.073   1.989   1.228 -0.2852 -0.3045 -0.2374
   41MOL    H5013730   8.040   1.882   1.059  1.8638 -0.5522 -1.1201
   41MOL    H5113731   7.923   2.026   0.875 -2.0181  1.3647  0.8231
   41MOL    H5213732   7.938   2.257   0.886 -0.4386 -2.4615 -0.3861
   41MOL    C5313733   0.133   2.600   1.165 -0.9819 -0.1584  0.8356
   41MOL    C5413734   0.255   2.605   1.255  0.4348 -0.2984  0.2298
   41MOL    C5513735   0.373   2.537   1.185  0.3116  0.4716 -0.9096
   41MOL    C5613736   0.441   2.612   1.086  0.0285  0.0299  0.3255
   41MOL    C5713737   0.555   2.554   1.026  0.1857  0.1552  0.1929
   41MOL    C5813738   0.591   2.423   1.056 -0.5938  0.0930  0.5212
   41MOL    C5913739   0.519   2.347   1.150 -0.2503 -0.2074  0.3932
   41MOL    C6013740   0.411   2.405   1.217 -0.1646 -0.8289  0.3782
   41MOL    O6113741   0.289   2.748   1.279  0.0351  0.1615  1.1162
   41MOL    H6213742   0.166   2.632   1.066 -4.0121 -0.0493 -0.1922
   41MOL    H6313743   0.050   2.662   1.200 -0.8836  0.8905 -0.7493
   41MOL    H6413744   0.229   2.561   1.351  1.7246 -0.5699  0.4619
   41MOL    H6513745   0.410   2.714   1.069 -1.3169 -0.5270 -0.6569
   41MOL    H6613746   0.600   2.607   0.943 -0.5798  1.0178  0.3296
   41MOL    H6713747   0.681   2.381   1.014 -0.5836  1.7871 -1.1648
   41MOL    H6813748   0.555   2.249   1.176  1.5412  0.3440  0.0371
   41MOL    H6913749   0.348   2.349   1.285 -0.3990 -3.0508 -1.5925
   41MOL    C7013750   0.343   2.765   1.406 -0.3800 -0.0642 -0.2591
   41MOL    C7113751   0.233   2.794   1.516  0.0793  0.4032 -0.6066
   41MOL    C7213752   0.134   2.906   1.487 -0.8850  0.2098 -0.1351
   41MOL    C7313753   8.077   2.879   1.486 -0.2057 -0.6357 -0.0494
   41MOL    C7413754   7.978   2.978   1.469 -0.1403  0.1449 -0.5785
   41MOL    C7513755   8.018   3.108   1.456  0.2184 -0.5507  0.2206
   41MOL    C7613756   0.069   3.147   1.440  0.0570  0.3094  0.1192
   41MOL    C7713757   0.171   3.046   1.462 -0.2856 -0.6380 -0.1871
   41MOL    O7813758   0.284   2.836   1.644  0.3498  0.2240 -0.3641
   41MOL    H7913759   0.400   2.677   1.437 -0.7887 -0.1172  0.3339
   41MOL    H8013760   0.418   2.844   1.407  1.0855 -1.4372  0.0947
   41MOL    H8113761   0.173   2.704   1.528  0.0330 -0.1024 -4.1445
   41MOL    H8213762   8.039   2.779   1.493  0.7377 -0.9567  0.7500
   41MOL    H8313763   7.874   2.960   1.492 -0.8381  1.5255 -2.4775
   41MOL    H8413764   7.945   3.187   1.462  0.8985  0.0985  0.0661
   41MOL    H8513765   0.093   3.249   1.415  1.5372 -0.0046  0.2421
   41MOL    H8613766   0.275   3.073   1.454 -0.2343 -1.2786 -1.8174
   41MOL    C8713767   0.312   2.731   1.741  0.4938 -0.2280 -0.7113
   41MOL    C8813768   0.371   2.783   1.874  0.9292 -0.5395 -0.3130
   41MOL    C8913769   0.455   2.672   1.941  0.2845  0.2914  0.5357
   41MOL    C9013770   0.386   2.563   2.001  0.3354  0.2586  0.4370
   41MOL    C9113771   0.457   2.447   2.047  0.9780  0.3689 -0.0733
   41MOL    C9213772   0.597   2.449   2.032 -0.2382 -0.8037  0.2419
   41MOL    C9313773   0.666   2.553   1.972 -1.0154 -0.2363 -0.0517
   41MOL    C9413774   0.595   2.662   1.922  0.0556 -0.0203 -0.1391
   41MOL    O9513775   0.270   2.822   1.963  0.2397 -0.1745 -0.0761
   41MOL    H9613776   0.374   2.657   1.690 -0.6502 -1.6735 -0.0220
   41MOL    H9713777   0.221   2.676   1.761  0.6443 -0.4087 -0.5200
   41MOL    H9813778   0.444   2.864   1.861  0.1663  0.8088  3.3158
   41MOL    H9913779   0.280   2.580   2.007  0.0382 -0.9631 -1.2688
   41MOL   H10013780   0.400   2.364   2.086  0.8647  0.7454  0.5726
   41MOL   H10113781   0.651   2.359   2.057 -0.0509  0.2293  3.8869
   41MOL   H10213782   0.770   2.548   1.944 -0.7222 -0.9072  1.1102
   41MOL   H10313783   0.639   2.737   1.858  0.4161 -0.2617 -0.1748
   41MOL   C10413784   0.190   2.942   1.937 -0.0530 -0.7291 -0.4854
   41MOL   C10513785   0.066   2.930   2.038 -0.0676 -0.9449 -0.0179
   41MOL   C10613786   8.061   2.819   1.994  0.0682  0.5735  0.3572
   41MOL   C10713787   7.973   2.833   1.886  0.1743 -0.1004 -0.0380
   41MOL   C10813788   7.898   2.719   1.841  0.3054 -0.5209  0.1622
   41MOL   C10913789   7.911   2.595   1.900 -0.2659 -0.4943 -0.7010
   41MOL   C11013790   7.990   2.576   2.011  0.4658  0.2327  0.1817
   41MOL   C11113791   8.065   2.690   2.056 -0.3000  0.0196  0.7339
   41MOL   O11213792   0.104   2.928   2.180 -0.2230 -0.1326 -0.2927
   41MOL   H11313793   0.255   3.029   1.948 -0.7724 -0.2027 -0.4355
   41MOL   H11413794   0.154   2.936   1.835 -1.3195  0.7184 -0.1208
   41MOL   H11513795   0.007   3.018   2.013 -0.6987 -0.9800  1.2927
   41MOL   H11613796   7.955   2.931   1.843  0.3044  0.0168  0.1789
   41MOL   H11713797   7.829   2.735   1.760 -1.0399 -0.6408  1.2773
   41MOL   H11813798   7.857   2.511   1.857 -2.3479  1.0161 -1.1159
   41MOL   H11913799   7.996   2.482   2.064 -0.4859 -0.5631 -1.0946
   41MOL   H12013800   0.062   2.672   2.130  0.3164 -1.0969 -0.1578
   41MOL   C12113801   0.178   3.051   2.223 -0.6734 -0.0912  0.1540
   41MOL   C12213802   0.102   3.113   2.343  0.0534 -0.2894  0.1532
   41MOL   C12313803   0.192   3.188   2.443  0.5377 -0.6461 -0.3736
   41MOL   C12413804   0.239   3.128   2.559 -0.4815  0.5784  0.0340
   41MOL   C12513805   0.321   3.198   2.645 -0.2340  0.1674  0.1370
   41MOL   C12613806   0.366   3.329   2.608 -0.0659  0.0023 -0.2458
   41MOL   C12713807   0.330   3.385   2.482 -0.4470  0.2069  0.6162
   41MOL   C12813808   0.240   3.317   2.396 -0.3747  0.3858 -0.3531
   41MOL   O12913809   0.009   3.200   2.290  0.4998  0.8705 -0.2464
   41MOL   H13013810   0.200   3.133   2.154 -1.1913  0.4335  0.5986
   41MOL   H13113811   0.276   3.016   2.254  0.5375  0.3432 -3.0752
   41MOL   H13213812   0.048   3.034   2.396 -0.8565  1.8126  2.4396
   41MOL   H13313813   0.208   3.028   2.585  0.7043  0.2134  0.0501
   41MOL   H13413814   0.341   3.157   2.743 -3.5405  0.8737  1.1464
   41MOL   H13513815   0.427   3.385   2.678 -0.2889 -2.6686  2.2081
   41MOL   H13613816   0.375   3.480   2.457 -1.6926  0.6207 -0.0792
   41MOL   H13713817   0.203   3.360   2.304 -1.2766  0.4170  0.0199
   41MOL   C13813818   7.967   3.141   2.256  0.1475 -0.0886 -0.5999
   41MOL   C13913819   7.880   3.249   2.186  0.2138 -0.4686 -0.1185
   41MOL   C14013820   7.935   3.283   2.049  0.4038  0.9351  0.3500
   41MOL   C14113821   7.895   3.201   1.945 -0.2268  0.2643 -0.0995
   41MOL   C14213822   7.963   3.215   1.824  0.6309 -0.2511  0.5625
   41MOL   C14313823   8.071   3.306   1.802 -0.4061 -0.5183  0.4573
   41MOL   C14413824   0.025   3.395   1.914 -0.0238 -0.4636 -0.7039
   41MOL   C14513825   8.030   3.385   2.029 -0.5647  0.8972 -0.6632
   41MOL   O14613826   7.735   3.223   2.187 -0.0379 -0.0580  0.4041
   41MOL   H14713827   7.920   3.114   2.351 -1.3796 -0.1133 -1.3437
   41MOL   H14813828   7.967   3.057   2.188  0.0215 -3.2599  3.1374
   41MOL   H14913829   7.881   3.336   2.252 -0.0382 -2.1994  2.2291
   41MOL   H15013830   7.820   3.124   1.943  0.6953 -0.6692  0.6492
   41MOL   H15113831   7.933   3.150   1.744  4.1787 -1.4817  0.1573
   41MOL   H15213832   0.038   3.309   1.705 -1.5048 -1.7193 -0.1285
   41MOL   H15313833   0.108   3.464   1.904  0.0992 -0.1299  2.2133
   41MOL   H15413834   8.070   3.438   2.115  1.5294  2.2247 -2.3917
   41MOL   C15513835   7.649   3.334   2.172 -0.0420  0.8138 -0.5386
   41MOL   C15613836   7.542   3.336   2.273  0.3494 -0.1449 -0.5400
   41MOL   C15713837   7.487   3.477   2.300  0.3086 -0.9001  0.5951
   41MOL   C15813838   7.393   3.543   2.215  0.5636  0.6079 -0.5293
   41MOL   C15913839   7.327   3.659   2.252  0.5401 -0.4526 -0.7196
   41MOL   C16013840   7.369   3.719   2.373 -0.7504  0.5075  0.0060
   41MOL   C16113841   7.466   3.666   2.461  0.1550  0.2264  0.1032
   41MOL   C16213842   7.511   3.539   2.426  0.5247 -0.0357  0.2205
   41MOL   O16313843   7.446   3.249   2.211  0.0620  0.1125 -0.4551
   41MOL   H16413844   7.608   3.344   2.072  0.8146  0.5165 -0.9304
   41MOL   H16513845   7.709   3.424   2.182  1.4508 -0.3179  0.9220
   41MOL   H16613846   7.578   3.295   2.368 -0.1664 -0.1809 -0.3557
   41MOL   H16713847   7.358   3.485   2.131  0.1573  0.3549 -0.1926
   41MOL   H16813848   7.258   3.711   2.187 -0.6051 -2.9690 -1.5698
   41MOL   H16913849   7.320   3.812   2.397 -2.1351  0.4057 -2.2266
   41MOL   H17013850   7.499   3.716   2.551  2.0783  0.2400 -0.5914
   41MOL   H17113851   7.577   3.492   2.497 -1.0560 -2.1391  0.3233
   41MOL   C17213852   7.354   3.173   2.288  0.7339 -1.1070  0.2512
   41MOL   C17313853   7.428   3.071   2.376 -0.4004 -0.5462 -0.7505
   41MOL   C17413854   7.515   2.970   2.301 -0.2583 -0.7551 -0.4754
   41MOL   C17513855   7.651   2.963   2.324 -0.2461  0.6296 -0.3026
   41MOL   C17613856   7.732   2.874   2.251  0.1953 -0.2908 -0.1698
   41MOL   C17713857   7.681   2.805   2.143  0.1704 -0.7293  0.4120
   41MOL   C17813858   7.550   2.827   2.104  0.1291 -0.1477  0.1678
   41MOL   C17913859   7.465   2.907   2.187  0.1044  0.6903  0.1351
   41MOL   O18013860   7.327   2.997   2.442 -0.8696 -0.0724  0.4406
   41MOL   H18113861   7.290   3.232   2.353  1.2751 -1.3824  1.0387
   41MOL   H18213862   7.299   3.124   2.207  1.4964 -0.3290 -0.7542
   41MOL   H18313863   7.478   3.126   2.455  1.1594 -1.0598 -1.3659
   41MOL   H18413864   7.688   3.023   2.406 -0.2926  0.0726  0.1259
   41MOL   H18513865   7.832   2.854   2.288  0.6921 -0.6565 -1.6758
   41MOL   H18613866   7.746   2.744   2.082  0.3503  1.4033 -1.6000
   41MOL   H18713867   7.519   2.794   2.006 -1.4259  1.3149  0.1443
   41MOL   H18813868   7.366   2.929   2.151  0.0552 -1.2108 -0.9624
   41MOL   C18913869   7.287   3.032   2.573 -0.2044 -0.0745 -0.0048
   41MOL   C19013870   7.160   2.954   2.618 -0.6919  0.6367 -0.5677
   41MOL   C19113871   7.086   3.009   2.742 -0.2602 -0.0116 -0.5851
   41MOL   C19213872   7.022   3.136   2.726 -0.6164  0.0932 -0.7943
   41MOL   C19313873   6.957   3.190   2.838 -0.0858  0.3677  0.4397
   41MOL   C19413874   6.965   3.130   2.963 -0.6183  0.2819 -0.5701
   41MOL   C19513875   7.038   3.007   2.981 -0.4186 -0.0069  0.1169
   41MOL   C19613876   7.104   2.946   2.870 -0.5885  0.0807 -0.2202
   41MOL   O19713877   7.189   2.816   2.634  0.2243 -0.6013  0.0385
   41MOL   H19813878   7.372   3.032   2.642  0.4777  0.4609 -0.8397
   41MOL   H19913879   7.264   3.139   2.570 -0.1145 -0.0701 -0.4591
   41MOL   H20013880   7.080   2.961   2.544 -0.1871 -1.2463 -1.3305
   41MOL   H20113881   7.020   3.187   2.631 -2.0083 -2.0291 -1.9384
   41MOL   H20213882   6.890   3.272   2.816 -0.5606 -0.1728 -0.1201
   41MOL   H20313883   6.909   3.177   3.043  1.3428 -0.0651  1.0554
   41MOL   H20413884   7.041   2.961   3.079  0.8794  0.7022  0.4275
   41MOL   H20513885   7.161   2.856   2.886  2.6397  1.9773 -0.6556
   41MOL   C20613886   7.085   2.727   2.597  0.1316 -0.4665 -0.1872
   41MOL   C20713887   7.114   2.599   2.674 -0.1472 -0.6608 -0.4058
   41MOL   C20813888   7.088   2.476   2.583  0.7054 -0.3950  0.5875
   41MOL   C20913889   7.194   2.399   2.523 -0.1108 -0.4145 -0.2517
   41MOL   C21013890   7.167   2.303   2.420 -0.3490  0.0794 -0.8709
   41MOL   C21113891   7.033   2.270   2.391 -0.8888 -0.3300  0.5794
   41MOL   C21213892   6.931   2.345   2.452  0.5186  0.8372 -0.1225
   41MOL   C21313893   6.952   2.446   2.542  0.3952  0.0367 -0.4588
   41MOL   O21413894   7.030   2.592   2.791 -0.1212  0.1496 -0.3984
   41MOL   H21513895   6.987   2.771   2.618  0.2402 -1.2170  1.9705
   41MOL   H21613896   7.096   2.730   2.488 -0.6057 -0.8290 -0.2759
   41MOL   H21713897   7.219   2.592   2.702 -0.3096 -0.2834  0.3092
   41MOL   H21813898   7.296   2.418   2.554 -0.4920 -1.1908  1.5585
   41MOL   H21913899   7.252   2.263   2.368  0.2050 -0.1063  0.1626
   41MOL   H22013900   7.000   2.189   2.328  0.7845  0.4090 -1.2919
   41MOL   H22113901   6.828   2.314   2.447  1.5300 -2.4277 -1.2903
   41MOL   H22213902   6.868   2.501   2.583  0.2407 -0.6673  0.1960
   41MOL   C22313903   7.066   2.487   2.887  0.0782 -0.2302  0.4644
   41MOL   C22413904   7.181   2.540   2.971  0.8906 -0.2066  0.1504
   41MOL   C22513905   7.179   2.474   3.107 -0.0499 -0.7305 -0.3728
   41MOL   C22613906   7.207   2.340   3.118 -0.8798 -0.0420 -0.0614
   41MOL   C22713907   7.186   2.275   3.242 -0.1509 -0.7497  0.0759
   41MOL   C22813908   7.139   2.347   3.355 -0.9954 -0.5662 -0.9557
   41MOL   C22913909   7.117   2.487   3.351 -0.1995 -0.3686 -0.1541
   41MOL   C23013910   7.134   2.548   3.218  0.1613 -0.5667  0.0339
   41MOL   O23113911   7.307   2.514   2.906  0.1340  0.2616  0.1740
   41MOL   H23213912   6.976   2.478   2.948 -0.6236 -0.4134 -0.5934
   41MOL   H23313913   7.083   2.390   2.840  2.7421 -0.0786  1.0250
   41MOL   H23413914   7.178   2.649   2.974  2.0011 -0.1614 -0.0678
   41MOL   H23513915   7.235   2.285   3.029  0.2393  0.1883  0.1385
   41MOL   H23613916   7.206   2.170   3.259  0.5002 -0.7441 -0.5695
   41MOL   H23713917   7.110   2.301   3.448 -1.0204  2.2253  0.4745
   41MOL   H23813918   7.064   2.524   3.437  1.8272 -3.0148  2.3138
   41MOL   H23913919   7.118   2.654   3.207 -0.4071 -0.6152  0.3461
   41MOL   C24013920   7.405   2.597   2.957  0.5781  0.3095 -0.2696
   41MOL   C24113921   7.453   2.692   2.853  0.1615 -0.4621  0.0220
   41MOL   C24213922   7.545   2.794   2.916  0.3677  0.5246 -0.1672
   41MOL   C24313923   7.499   2.922   2.959 -0.6133 -0.1251  0.0725
   41MOL   C24413924   7.584   3.012   3.028  0.4554 -0.4786  0.2001
   41MOL   C24513925   7.719   2.976   3.037 -0.7165  0.1287  0.3394
   41MOL   C24613926   7.770   2.850   2.996  0.9513 -0.1019 -0.2768
   41MOL   C24713927   7.681   2.758   2.948 -0.1228  0.2467 -0.1990
   41MOL   O24813928   7.518   2.624   2.746 -0.2884  0.0654 -0.0748
   41MOL   H24913929   7.379   2.644   3.051  0.6142 -1.4382  0.6373
   41MOL   H25013930   7.487   2.529   2.981 -1.4689 -2.0155  0.3703
   41MOL   H25113931   7.365   2.742   2.812  1.2730  0.8122 -0.8912
   41MOL   H25213932   7.397   2.954   2.940 -1.4968 -0.7602  3.4181
   41MOL   H25313933   7.552   3.112   3.054  0.3878 -0.5797  0.5082
   41MOL   H25413934   7.788   3.053   3.069  0.1424 -0.6502  0.3819
   41MOL   H25513935   7.875   2.827   3.012  0.9630  0.6295  0.7460
   41MOL   H25613936   7.719   2.663   2.915 -0.6059  0.5116 -1.5309
   41MOL   C25713937   7.508   2.700   2.623 -0.6064  0.0887 -0.1409
   41MOL   C25813938   7.612   2.652   2.520  0.2921  0.5696 -0.1784
   41MOL   C25913939   7.572   2.523   2.451 -0.2349 -0.6618  0.0687
   41MOL   C26013940   7.503   2.536   2.329 -0.8432 -0.3658  0.7040
   41MOL   C26113941   7.466   2.426   2.250  0.1699  0.1553 -0.3907
   41MOL   C26213942   7.494   2.298   2.294 -0.1581  0.2965 -0.7417
   41MOL   C26313943   7.545   2.281   2.428 -0.6043 -0.2058 -0.5792
   41MOL   C26413944   7.591   2.396   2.502  0.0860 -0.2829 -0.0569
   41MOL   O26513945   7.743   2.636   2.584  0.2564  0.0795 -0.0287
   41MOL   H26613946   7.525   2.804   2.649  3.4240 -0.9900  2.0137
   41MOL   H26713947   7.406   2.696   2.585 -0.3138  1.1148 -1.0558
   41MOL   H26813948   7.619   2.733   2.448 -1.0357  0.1029 -0.8482
   41MOL   H26913949   7.486   2.637   2.293  1.0984 -0.2272  0.1213
   41MOL   H27013950   7.423   2.436   2.151  0.3767 -1.2784 -0.6419
   41MOL   H27113951   7.464   2.220   2.225 -0.0679  0.0022 -0.4517
   41MOL   H27213952   7.569   2.182   2.466 -0.1869  0.0278 -0.2215
   41MOL   H27313953   7.632   2.391   2.602  2.1576  1.3294 -0.7987
   41MOL   C27413954   7.851   2.589   2.497  0.1828  0.5437 -0.1228
   41MOL   C27513955   7.969   2.557   2.588 -0.6760  0.5626 -0.0849
   41MOL   C27613956   0.021   2.544   2.507  0.3814 -0.1064  0.1915
   41MOL   C27713957   0.099   2.421   2.514 -0.3287 -0.0232  0.1532
   41MOL   C27813958   0.212   2.416   2.432 -0.7167 -0.2386 -0.1365
   41MOL   C27913959   0.251   2.520   2.348 -0.1716  0.2991  0.0267
   41MOL   C28013960   0.180   2.642   2.355 -0.1595 -0.7088 -0.7167
   41MOL   C28113961   0.062   2.647   2.425  0.3361 -0.3951  0.1717
   41MOL   O28213962   7.941   2.445   2.667  0.0447  0.5876 -0.8018
   41MOL   H28313963   7.825   2.507   2.431  0.7430  1.1536 -1.1029
   41MOL   H28413964   7.870   2.674   2.431 -0.6156  0.1062 -0.9217
   41MOL   H28513965   7.981   2.645   2.652  0.6215 -0.0555  0.5389
   41MOL   H28613966   0.067   2.336   2.572 -1.7163  0.9073  0.7958
   41MOL   H28713967   0.264   2.321   2.429 -1.1188 -0.5193  1.2780
   41MOL   H28813968   0.334   2.508   2.281 -0.3344  0.6069 -0.2339
   41MOL   H28913969   0.206   2.720   2.286 -1.3411  1.5069  1.2931
   41MOL   H29013970   8.079   2.734   2.411 -1.2590 -2.0224 -3.4196
   41MOL   C29113971   7.861   2.476   2.779 -0.0031  0.2885  0.8691
   41MOL   C29213972   7.880   2.378   2.899  0.1269 -0.0715  0.5365
   41MOL   C29313973   8.008   2.411   2.978 -0.2828 -0.5265 -0.2393
   41MOL   C29413974   8.004   2.494   3.089 -0.6168  0.3960 -0.7227
   41MOL   C29513975   0.044   2.512   3.171  0.1993 -0.0699  0.0275
   41MOL   C29613976   0.165   2.462   3.120  0.1611 -0.0319 -0.8060
   41MOL   C29713977   0.171   2.386   3.004  0.2961  0.4193 -0.0260
   41MOL   C29813978   0.056   2.358   2.933 -0.5211  0.2903  0.6951
   41MOL   O29913979   7.767   2.382   2.980  0.0173  0.6947 -0.1171
   41MOL   H30013980   7.758   2.482   2.744  0.9201  1.4103 -1.7370
   41MOL   H30113981   7.878   2.575   2.822  0.4095 -0.1700  1.7726
   41MOL   H30213982   7.892   2.278   2.857 -1.8542 -0.0211 -0.2248
   41MOL   H30313983   7.907   2.532   3.118 -0.9538  0.3243 -1.7181
   41MOL   H30413984   0.041   2.567   3.264 -0.1187 -1.0791  0.6253
   41MOL   H30513985   0.255   2.478   3.176  0.0300  1.5700 -1.0284
   41MOL   H30613986   0.265   2.342   2.973 -0.9507 -1.4619 -1.2537
   41MOL   H30713987   0.051   2.294   2.846 -1.4449  0.3527  0.6997
   41MOL   C30813988   7.753   2.265   3.070 -0.2336  0.1890 -0.3284
   41MOL   C30913989   7.615   2.275   3.146  0.0544  0.1242 -0.0669
   41MOL   C31013990   7.564   2.135   3.185  0.6786 -0.4573 -0.1266
   41MOL   C31113991   7.488   2.059   3.096 -0.1387  0.4867  0.0736
   41MOL   C31213992   7.422   1.945   3.138 -0.0578  0.1931 -0.3225
   41MOL   C31313993   7.461   1.883   3.262 -0.4309  0.3933  0.0639
   41MOL   C31413994   7.547   1.950   3.349  0.4090 -0.1019  0.5172
   41MOL   C31513995   7.594   2.082   3.313  0.0300  0.0229 -0.8087
   41MOL   O31613996   7.631   2.364   3.259  0.2525  0.0534  0.5643
   41MOL   H31713997   7.832   2.258   3.145 -0.5002  0.2881 -0.0332
   41MOL   H31813998   7.757   2.168   3.020  2.4621 -0.5153  1.1811
   41MOL   H31913999   7.532   2.309   3.085  0.6877  0.4071 -0.7784
   41MOL   H32014000   7.466   2.104   3.000  0.6686 -0.4444 -0.5577
   41MOL   H32114001   7.367   1.885   3.067  0.1891 -2.8692  1.9541
   41MOL   H32214002   7.425   1.783   3.277  0.3741 -0.3377 -2.6659
   41MOL   H32314003   7.579   1.892   3.435 -2.4705 -2.2344  0.2169
   41MOL   H32414004   7.655   2.136   3.383 -2.2715  2.5028 -0.6328
   41MOL   C32514005   7.517   2.430   3.315  0.0139 -0.2106  0.1052
   41MOL   C32614006   7.576   2.527   3.415  0.6858  0.1384  0.6299
   41MOL   C32714007   7.657   2.461   3.533 -0.4422  0.0845 -0.0301
   41MOL   C32814008   7.781   2.507   3.576 -0.4261 -0.0077 -0.1179
   41MOL   C32914009   7.865   2.437   3.664  0.0744 -0.1741 -0.0491
   41MOL   C33014010   7.818   2.322   3.720 -0.1295 -0.2444  0.0639
   41MOL   C33114011   7.689   2.271   3.688  0.4649 -0.9633  0.6374
   41MOL   C33214012   7.608   2.343   3.595  0.4877 -0.3844  0.1030
   41MOL   O33314013   7.656   2.609   3.336  0.2786 -0.2026 -0.3635
   41MOL   H33414014   7.444   2.370   3.370  1.5210 -0.2609  2.1330
   41MOL   H33514015   7.465   2.485   3.237 -0.7087  1.1507  1.5294
   41MOL   H33614016   7.506   2.595   3.464  2.8090  1.0296  2.5091
   41MOL   H33714017   7.823   2.585   3.514  0.6528 -2.4853 -2.6420
   41MOL   H33814018   7.964   2.470   3.691  0.4071 -0.6487 -0.6902
   41MOL   H33914019   7.874   2.274   3.798 -1.2427  1.8965  2.2380
   41MOL   H34014020   7.645   2.181   3.729 -0.9730 -0.6307 -0.1541
   41MOL   H34114021   7.506   2.309   3.585  0.4847 -0.0619 -1.0398
   41MOL   H34214022   7.688   2.543   3.276  0.5965 -0.1179 -0.2890
   42MOL     C114023   0.345   7.047   5.077  0.4840 -0.2323  0.2160
   42MOL     C214024   0.464   6.964   5.134  0.0389  0.0579 -0.5052
   42MOL     C314025   0.553   6.912   5.023  0.5163  1.0421  0.3418
   42MOL     C414026   0.651   6.996   4.968  0.4988  0.8465  0.0284
   42MOL     C514027   0.746   6.943   4.877 -0.3289  0.7350  0.6114
   42MOL     C614028   0.742   6.804   4.837 -0.5895 -0.5838 -0.6163
   42MOL     C714029   0.634   6.726   4.888 -0.2981 -0.5236 -0.0602
   42MOL     C814030   0.547   6.774   4.986  0.6590  0.3651 -0.9889
   42MOL     O914031   0.402   6.860   5.206 -0.5145 -0.0266 -0.9123
   42MOL    H1014032   0.281   7.076   5.160  0.0913 -2.0030  0.5407
   42MOL    H1114033   0.380   7.136   5.024  1.4404 -0.5101  0.3610
   42MOL    H1214034   0.524   7.032   5.194 -0.7676  1.6969 -1.5243
   42MOL    H1314035   0.647   7.101   4.992  0.5276  0.3077  2.4553
   42MOL    H1414036   0.824   7.002   4.832 -0.5748  0.0854 -0.6798
   42MOL    H1514037   0.818   6.763   4.772 -0.7694 -0.4462 -0.9159
   42MOL    H1614038   0.624   6.620   4.871 -1.6308 -0.8599  2.5841
   42MOL    H1714039   0.463   6.717   5.023  0.6429  0.6838 -0.5272
   42MOL    H1814040   0.284   6.998   5.001 -0.4702  0.9431  0.1977
   42MOL    C1914041   0.457   6.845   5.337 -1.0444 -0.1695  0.9651
   42MOL    C2014042   0.392   6.728   5.417 -0.1988  0.2196 -0.1240
   42MOL    C2114043   0.397   6.593   5.349 -0.4231 -0.0535  0.5824
   42MOL    C2214044   0.300   6.565   5.248 -0.2147  0.0746  0.6195
   42MOL    C2314045   0.295   6.441   5.180  0.5818 -0.1530 -0.8334
   42MOL    C2414046   0.395   6.347   5.214 -0.7292  0.1893 -0.3085
   42MOL    C2514047   0.492   6.377   5.314  0.0439  1.0063 -0.0198
   42MOL    C2614048   0.498   6.499   5.380 -0.7091  0.6789 -0.2386
   42MOL    O2714049   0.262   6.774   5.453  0.2475  0.0803  0.1082
   42MOL    H2814050   0.559   6.811   5.316 -1.6647 -0.5446 -1.6970
   42MOL    H2914051   0.451   6.935   5.398  1.4915  0.9420 -0.3712
   42MOL    H3014052   0.449   6.721   5.510  0.5719  1.7056 -0.4657
   42MOL    H3114053   0.229   6.643   5.225 -2.3348 -2.5726 -2.2383
   42MOL    H3214054   0.216   6.432   5.107 -2.0039  1.0795  1.6891
   42MOL    H3314055   0.389   6.247   5.174  1.9926 -0.0789 -0.1208
   42MOL    H3414056   0.567   6.302   5.334  1.5804  1.5303 -3.4141
   42MOL    H3514057   0.576   6.526   5.449 -0.5391  0.8419 -0.4938
   42MOL    C3614058   0.203   6.701   5.570 -0.1980 -0.7010  0.5938
   42MOL    C3714059   0.084   6.781   5.621  0.1670 -0.2287 -0.1914
   42MOL    C3814060   0.131   6.895   5.715 -0.4531  0.0836 -0.0756
   42MOL    C3914061   0.151   7.027   5.668 -0.5058  0.0743 -0.6747
   42MOL    C4014062   0.197   7.130   5.752 -0.5574  0.6090  0.5229
   42MOL    C4114063   0.220   7.100   5.886 -0.1411 -0.2848 -0.4301
   42MOL    C4214064   0.192   6.973   5.932 -0.3008 -0.2455  0.2299
   42MOL    C4314065   0.148   6.872   5.846  0.2736 -0.4561  0.3120
   42MOL    O4414066   8.074   6.689   5.677 -0.5461 -0.2381 -0.2382
   42MOL    H4514067   0.174   6.603   5.532  0.2357 -1.9426  3.3678
   42MOL    H4614068   0.281   6.680   5.643 -0.2827  0.3203  0.9802
   42MOL    H4714069   0.029   6.835   5.544 -0.5488  0.5546  0.8544
   42MOL    H4814070   0.146   7.053   5.563  0.8192 -2.0914 -1.2993
   42MOL    H4914071   0.223   7.216   5.692  1.9022 -1.9440 -2.2696
   42MOL    H5014072   0.243   7.183   5.952  1.8983 -0.6631 -0.6560
   42MOL    H5114073   0.212   6.956   6.036 -1.2626  2.0136  0.8170
   42MOL    H5214074   0.122   6.776   5.888 -0.2023 -1.1636 -1.5618
   42MOL    C5314075   7.961   6.759   5.728  0.1145  0.6000  0.4738
   42MOL    C5414076   7.889   6.678   5.836 -0.2463 -0.0669  0.2431
   42MOL    C5514077   7.946   6.691   5.977  0.0491 -0.7189 -0.3954
   42MOL    C5614078   8.049   6.612   6.027  0.1709 -0.4653 -0.5518
   42MOL    C5714079   0.008   6.628   6.164  0.4754  0.3986 -0.0892
   42MOL    C5814080   8.062   6.744   6.235  0.1739  0.8349  0.2198
   42MOL    C5914081   7.965   6.832   6.179 -0.3915 -0.6177  0.4803
   42MOL    C6014082   7.901   6.801   6.055  0.6223  0.3026  0.2382
   42MOL    O6114083   7.755   6.736   5.831 -0.4731 -0.0817 -0.2317
   42MOL    H6214084   7.975   6.860   5.765  1.2404 -0.0839  1.9988
   42MOL    H6314085   7.893   6.768   5.643  0.8960 -0.4771 -0.2850
   42MOL    H6414086   7.892   6.573   5.806 -0.1870  0.3228 -1.1345
   42MOL    H6514087   0.012   6.526   5.976  0.8553 -0.1362 -0.5422
   42MOL    H6614088   0.058   6.547   6.215 -0.9809  0.9533  2.2820
   42MOL    H6714089   0.024   6.766   6.332 -1.1703  2.3497  0.4781
   42MOL    H6814090   7.920   6.912   6.237  0.8547  2.4010 -2.5681
   42MOL    H6914091   7.818   6.862   6.024 -0.0347 -1.0936 -0.7775
   42MOL    C7014092   7.655   6.674   5.903  0.8813 -0.2370 -0.0074
   42MOL    C7114093   7.524   6.738   5.870 -0.3663  0.0926 -0.2302
   42MOL    C7214094   7.522   6.763   5.719  0.1496 -0.1754  0.1722
   42MOL    C7314095   7.530   6.891   5.663  0.5686 -0.8987  0.1707
   42MOL    C7414096   7.509   6.908   5.527 -0.6491  0.6519 -0.0045
   42MOL    C7514097   7.496   6.797   5.444  0.6578 -0.6772 -0.1301
   42MOL    C7614098   7.509   6.665   5.497  0.3011  1.0970 -0.1112
   42MOL    C7714099   7.513   6.653   5.637  0.4276  0.5905  0.6601
   42MOL    O7814100   7.504   6.859   5.946  0.3955  0.3120 -0.4367
   42MOL    H7914101   7.650   6.569   5.877  1.8677 -0.0830 -0.8123
   42MOL    H8014102   7.680   6.677   6.009  1.6420  2.2590 -0.2379
   42MOL    H8114103   7.450   6.667   5.909 -0.7547  1.4197  1.5324
   42MOL    H8214104   7.554   6.975   5.726  0.0094  0.1737 -1.0454
   42MOL    H8314105   7.512   7.008   5.485  2.5426 -0.3688 -2.3776
   42MOL    H8414106   7.483   6.797   5.337 -0.5680 -2.3561 -0.0051
   42MOL    H8514107   7.496   6.576   5.439 -1.8116  1.1965  0.1783
   42MOL    H8614108   7.519   6.559   5.689 -0.5281  0.2232  0.1070
   42MOL    C8714109   7.365   6.893   5.961  0.7735  0.0995  0.0239
   42MOL    C8814110   7.338   7.041   5.997 -0.4394 -0.3117  0.2147
   42MOL    C8914111   7.389   7.073   6.136 -0.1982  0.1496  0.5963
   42MOL    C9014112   7.518   7.130   6.152 -0.2289  0.3275 -0.3573
   42MOL    C9114113   7.555   7.171   6.285  0.3294 -0.1722  0.2017
   42MOL    C9214114   7.463   7.169   6.388  0.2652  0.4082  0.2451
   42MOL    C9314115   7.335   7.116   6.363  0.5572  0.3666  0.2955
   42MOL    C9414116   7.298   7.063   6.242 -0.0843 -0.0997 -0.6389
   42MOL    O9514117   7.200   7.055   5.981  0.5669  0.8276  0.0695
   42MOL    H9614118   7.318   6.827   6.034  0.1943 -0.5747 -0.9511
   42MOL    H9714119   7.316   6.860   5.870 -2.2540  1.5096  1.0509
   42MOL    H9814120   7.404   7.089   5.925 -0.1165 -0.4709  0.3993
   42MOL    H9914121   7.584   7.143   6.067  0.4188 -0.5170  0.0070
   42MOL   H10014122   7.651   7.209   6.317  0.9705 -0.2805 -1.5098
   42MOL   H10114123   7.492   7.208   6.484 -0.4160  0.0697  0.5952
   42MOL   H10214124   7.271   7.116   6.449  0.6268  0.5961  0.3445
   42MOL   H10314125   7.202   7.014   6.235 -0.0896 -0.3880  1.0782
   42MOL   C10414126   7.138   7.189   5.987  0.2445 -0.2618 -0.2996
   42MOL   C10514127   6.988   7.177   5.986 -0.0294  0.8615  0.3675
   42MOL   C10614128   6.930   7.129   5.848  1.0499  0.8379  0.3122
   42MOL   C10714129   6.923   6.990   5.825  0.8232  0.1502 -0.6695
   42MOL   C10814130   6.879   6.938   5.702 -0.1536 -0.5068  0.0496
   42MOL   C10914131   6.849   7.029   5.596 -0.3325  0.8183  0.0345
   42MOL   C11014132   6.847   7.171   5.630  0.3004 -0.4392 -0.3370
   42MOL   C11114133   6.885   7.225   5.753  0.5711 -1.1334 -0.3625
   42MOL   O11214134   6.962   7.081   6.088 -0.0089 -0.3179  0.3544
   42MOL   H11314135   7.158   7.221   6.089  1.8114 -2.3346  0.0787
   42MOL   H11414136   7.169   7.252   5.904 -0.2097  1.3566  0.7364
   42MOL   H11514137   6.948   7.274   6.014 -0.6443  0.9375 -0.7525
   42MOL   H11614138   6.952   6.925   5.906  0.4897 -0.6215 -1.1647
   42MOL   H11714139   6.873   6.832   5.685 -2.0701  0.0989 -3.5463
   42MOL   H11814140   6.800   7.001   5.504 -2.4948  3.8523  0.1656
   42MOL   H11914141   6.798   7.236   5.559 -0.1075 -1.7933 -1.3089
   42MOL   H12014142   6.890   7.331   5.771  2.1844 -1.0993 -0.9056
   42MOL   C12114143   6.838   7.088   6.154  0.5858  0.5322 -0.6441
   42MOL   C12214144   6.832   6.984   6.265 -0.5951  0.2900  0.0114
   42MOL   C12314145   6.839   6.849   6.199 -0.4170 -0.1682 -0.6425
   42MOL   C12414146   6.970   6.792   6.181 -0.7619  0.6610 -0.1916
   42MOL   C12514147   6.990   6.661   6.123  0.4947  0.3134 -0.1223
   42MOL   C12614148   6.874   6.598   6.065 -0.2130  0.1171 -0.4518
   42MOL   C12714149   6.749   6.661   6.075 -0.4409 -0.8336  0.0009
   42MOL   C12814150   6.728   6.778   6.146 -0.0971 -0.0447 -0.4920
   42MOL   O12914151   6.944   7.011   6.357 -0.7867 -0.4484  0.0058
   42MOL   H13014152   6.758   7.075   6.080  0.3757 -1.2126 -0.1435
   42MOL   H13114153   6.814   7.187   6.191 -2.0471 -0.1201 -0.4992
   42MOL   H13214154   6.731   6.988   6.306  0.2488  0.9856  2.0567
   42MOL   H13314155   7.063   6.834   6.217 -0.6290  0.1217  0.1080
   42MOL   H13414156   7.083   6.607   6.120 -0.2750 -1.0362 -0.2516
   42MOL   H13514157   6.883   6.515   5.997  1.0034  0.6587 -0.9680
   42MOL   H13614158   6.660   6.610   6.042 -1.3520  1.0107 -0.3880
   42MOL   H13714159   6.628   6.817   6.145 -0.1026 -0.0468 -0.0149
   42MOL   C13814160   6.924   6.930   6.472 -0.1490 -0.5779 -0.1708
   42MOL   C13914161   7.060   6.916   6.546  0.2679 -0.3587 -0.2545
   42MOL   C14014162   7.045   6.859   6.682  1.2514  0.0486 -0.5720
   42MOL   C14114163   7.098   6.939   6.785 -0.2829 -0.1100  0.4279
   42MOL   C14214164   7.105   6.891   6.917  0.1770  0.1668 -0.0327
   42MOL   C14314165   7.079   6.755   6.939 -0.4075  0.7210  0.7405
   42MOL   C14414166   7.005   6.677   6.840  0.0201  0.1949  0.5523
   42MOL   C14514167   6.998   6.727   6.705 -0.2728  0.7543 -0.0182
   42MOL   O14614168   7.138   6.837   6.468  0.6986 -0.3453 -0.1124
   42MOL   H14714169   6.893   6.828   6.448 -1.7537 -0.0114 -0.5586
   42MOL   H14814170   6.853   6.986   6.533 -0.4523 -1.2466  0.1010
   42MOL   H14914171   7.104   7.015   6.562  0.3004 -0.8097  2.5634
   42MOL   H15014172   7.126   7.042   6.765 -0.1120 -0.3566 -0.6018
   42MOL   H15114173   7.155   6.949   6.993  2.6598  0.8838 -2.1726
   42MOL   H15214174   7.092   6.720   7.040 -0.6664 -0.3490  0.4098
   42MOL   H15314175   6.982   6.573   6.860 -0.9610  0.6086  1.6094
   42MOL   H15414176   6.969   6.669   6.619 -1.0356 -1.1553  1.4998
   42MOL   C15514177   7.271   6.811   6.501  0.5675  0.2958 -0.8845
   42MOL   C15614178   7.336   6.714   6.399  0.2290  0.0738 -0.4575
   42MOL   C15714179   7.487   6.703   6.431  0.5542 -0.1799  0.5841
   42MOL   C15814180   7.542   6.597   6.518 -0.5660 -0.4719  0.0053
   42MOL   C15914181   7.686   6.578   6.530  0.1328 -0.6855 -0.6653
   42MOL   C16014182   7.769   6.671   6.463 -0.1813  0.4254 -0.0009
   42MOL   C16114183   7.714   6.785   6.399  0.4613  0.0675  0.0279
   42MOL   C16214184   7.575   6.794   6.376  0.0025  0.2091 -0.6494
   42MOL   O16314185   7.261   6.597   6.419 -0.0829  0.6837  0.0215
   42MOL   H16414186   7.273   6.767   6.601 -0.0165 -0.9466 -1.4115
   42MOL   H16514187   7.332   6.901   6.505  1.2260 -0.1827  0.2205
   42MOL   H16614188   7.313   6.741   6.296 -1.0144  0.4445 -0.0900
   42MOL   H16714189   7.473   6.531   6.569  0.5842 -2.0122 -0.3969
   42MOL   H16814190   7.724   6.491   6.580  0.0013 -0.3678 -0.0019
   42MOL   H16914191   7.874   6.670   6.486  0.3855 -0.4113 -2.4537
   42MOL   H17014192   7.785   6.860   6.369 -0.3312  1.5869  1.7882
   42MOL   H17114193   7.531   6.883   6.334 -1.3187 -0.2435 -0.2496
   42MOL   C17214194   7.277   6.483   6.337  0.1063 -0.0461  0.4474
   42MOL   C17314195   7.166   6.383   6.362  0.1811 -0.1551  0.3600
   42MOL   C17414196   7.189   6.311   6.498 -0.6679 -0.3817 -0.0491
   42MOL   C17514197   7.181   6.385   6.617  0.3153 -0.2133 -0.6968
   42MOL   C17614198   7.201   6.317   6.743  0.1862 -0.0872  0.7027
   42MOL   C17714199   7.224   6.177   6.740  0.0573 -0.4281  0.0816
   42MOL   C17814200   7.251   6.113   6.616  0.5363  0.0043  0.3763
   42MOL   C17914201   7.235   6.182   6.499  0.4410  0.4757  0.5169
   42MOL   O18014202   7.155   6.292   6.255 -0.0865 -0.0533  0.8871
   42MOL   H18114203   7.291   6.516   6.234  1.4849 -0.8071  0.3940
   42MOL   H18214204   7.373   6.442   6.366 -0.0502 -1.2814 -0.7311
   42MOL   H18314205   7.074   6.442   6.359  1.6205  2.0762 -0.7054
   42MOL   H18414206   7.148   6.488   6.619  0.4562 -0.1740 -0.4043
   42MOL   H18514207   7.190   6.374   6.834  0.3985 -1.0078  1.3050
   42MOL   H18614208   7.237   6.118   6.829  1.8147  0.2674  0.3076
   42MOL   H18714209   7.297   6.016   6.605  0.6296  0.3382 -2.3382
   42MOL   H18814210   7.257   6.137   6.403 -0.3478  1.3723 -0.0940
   42MOL   C18914211   7.022   6.231   6.247 -0.0808  0.3745  0.6034
   42MOL   C19014212   7.031   6.102   6.155  0.0631  0.1564 -0.2183
   42MOL   C19114213   7.130   6.000   6.211  0.9486  0.2196  0.3890
   42MOL   C19214214   7.090   5.922   6.320 -0.4302 -0.2610 -0.3961
   42MOL   C19314215   7.181   5.832   6.380  0.2302  0.8645 -0.9136
   42MOL   C19414216   7.307   5.814   6.329 -0.3012 -0.1812 -0.6196
   42MOL   C19514217   7.346   5.903   6.223 -0.1922  0.0124  0.1338
   42MOL   C19614218   7.257   5.995   6.157  0.0338 -0.1327 -0.6289
   42MOL   O19714219   7.055   6.146   6.023 -0.1187 -0.6718  0.5084
   42MOL   H19814220   6.993   6.211   6.350  2.4854  3.2760  1.9666
   42MOL   H19914221   6.947   6.304   6.215  1.0803  1.7919  1.0684
   42MOL   H20014222   6.929   6.066   6.163  0.1032 -0.0190 -0.5098
   42MOL   H20114223   6.993   5.937   6.366 -1.5889 -1.8345 -2.2474
   42MOL   H20214224   7.148   5.766   6.458  0.1580  1.5117 -0.3872
   42MOL   H20314225   7.380   5.739   6.353  2.2414  2.2612 -0.4450
   42MOL   H20414226   7.442   5.883   6.178 -0.3097 -0.1576 -0.0425
   42MOL   H20514227   7.286   6.059   6.076  2.0645  0.8068  0.8067
   42MOL   C20614228   7.037   6.050   5.926  0.2058  0.3929  0.4914
   42MOL   C20714229   7.060   6.110   5.785 -0.2604 -0.4064 -0.3301
   42MOL   C20814230   7.202   6.158   5.774  0.1884 -0.1499  0.5502
   42MOL   C20914231   7.301   6.070   5.731 -0.4750 -0.2458 -1.0571
   42MOL   C21014232   7.434   6.112   5.735  0.0684  0.1779 -0.0938
   42MOL   C21114233   7.473   6.240   5.766  0.6003  0.3546  0.1225
   42MOL   C21214234   7.373   6.331   5.816 -0.1667 -0.3720 -0.1176
   42MOL   C21314235   7.236   6.290   5.816 -0.7514 -0.2604 -0.8077
   42MOL   O21414236   6.967   6.217   5.754  0.8230 -0.2035 -0.5334
   42MOL   H21514237   7.110   5.972   5.947  0.4377  1.2050  2.8826
   42MOL   H21614238   6.936   6.009   5.928  1.0280 -1.6316  2.4152
   42MOL   H21714239   7.042   6.032   5.711  0.8046 -2.5310  1.6132
   42MOL   H21814240   7.285   5.966   5.704  0.9399 -0.2546 -1.9033
   42MOL   H21914241   7.519   6.048   5.715 -0.8630 -0.9005 -0.6319
   42MOL   H22014242   7.576   6.273   5.770  0.8455 -0.4902  0.8620
   42MOL   H22114243   7.400   6.424   5.863 -0.9950 -0.2036  0.0257
   42MOL   H22214244   7.159   6.361   5.844 -0.9243 -0.7123 -0.1508
   42MOL   C22314245   6.975   6.266   5.622 -0.0629  0.6433 -0.1292
   42MOL   C22414246   6.912   6.405   5.609  0.0485  0.5138 -0.6245
   42MOL   C22514247   7.009   6.523   5.610  0.0564 -0.0779 -0.0830
   42MOL   C22614248   7.053   6.575   5.484  0.9336 -0.2055  0.6470
   42MOL   C22714249   7.129   6.693   5.479 -0.2741 -0.2328  0.2576
   42MOL   C22814250   7.179   6.751   5.596  0.2326 -0.3562 -0.4881
   42MOL   C22914251   7.138   6.696   5.721 -0.2012  0.7170  0.4710
   42MOL   C23014252   7.047   6.588   5.724 -0.4552  0.0274  0.0593
   42MOL   O23114253   6.843   6.412   5.481 -0.1949  0.5743  0.1672
   42MOL   H23214254   7.081   6.259   5.597 -0.4095  0.2651 -1.5515
   42MOL   H23314255   6.916   6.198   5.560 -1.1722  2.3867 -0.9971
   42MOL   H23414256   6.842   6.415   5.692  0.9672  2.5214 -0.0732
   42MOL   H23514257   7.022   6.541   5.386 -3.3104  1.7501  1.1994
   42MOL   H23614258   7.152   6.734   5.382  3.4691 -0.4299  0.9604
   42MOL   H23714259   7.234   6.844   5.597 -0.5130  0.0863  0.8262
   42MOL   H23814260   7.171   6.744   5.811  0.1272  0.3002  0.5733
   42MOL   H23914261   7.027   6.542   5.819  0.0399 -1.2374 -0.4445
   42MOL   C24014262   6.708   6.360   5.480 -0.7714  0.4435 -0.2558
   42MOL   C24114263   6.688   6.308   5.335  0.9850 -0.3512  0.0494
   42MOL   C24214264   6.755   6.395   5.223  0.8745 -0.4806 -0.1496
   42MOL   C24314265   6.676   6.485   5.151 -0.5492 -0.1095 -0.1209
   42MOL   C24414266   6.732   6.562   5.048  0.1763  0.2877  0.5012
   42MOL   C24514267   6.871   6.550   5.021  0.2893  0.2943 -0.2314
   42MOL   C24614268   6.949   6.465   5.097  0.1697  0.2887 -0.1484
   42MOL   C24714269   6.894   6.389   5.195  0.6521  0.2203 -0.1634
   42MOL   O24814270   6.745   6.182   5.330 -0.7914  0.1097  0.4760
   42MOL   H24914271   6.694   6.272   5.542 -0.8951  0.1013 -0.7688
   42MOL   H25014272   6.635   6.437   5.504  1.5580  2.7122 -0.1037
   42MOL   H25114273   6.582   6.288   5.323  0.7968  0.0287  0.9743
   42MOL   H25214274   6.568   6.495   5.153 -0.5881 -0.5191 -0.1949
   42MOL   H25314275   6.664   6.627   4.995  0.6436  0.5496  0.2159
   42MOL   H25414276   6.925   6.606   4.946  0.6306 -0.4563 -0.5533
   42MOL   H25514277   7.055   6.450   5.080  0.2063 -1.0009  1.0946
   42MOL   H25614278   6.957   6.318   5.247  0.4457  0.7232  0.7941
   42MOL   C25714279   6.710   6.102   5.209  0.3355  0.1170 -0.5634
   42MOL   C25814280   6.659   5.968   5.251 -0.2665 -0.3847 -0.9936
   42MOL   C25914281   6.517   5.990   5.307 -0.0891 -0.1315 -0.4169
   42MOL   C26014282   6.409   6.014   5.220  0.5326  0.0231  0.4814
   42MOL   C26114283   6.284   6.053   5.274  0.6400 -0.4636 -0.1614
   42MOL   C26214284   6.267   6.052   5.420  0.3931 -0.0651  0.1236
   42MOL   C26314285   6.382   6.037   5.505 -0.0008 -0.7766 -0.5335
   42MOL   C26414286   6.501   6.008   5.443  0.8885  0.3248  0.1881
   42MOL   O26514287   6.752   5.903   5.334 -0.1614 -0.1062 -0.1842
   42MOL   H26614288   6.796   6.091   5.143 -0.0893  0.6653 -1.2172
   42MOL   H26714289   6.633   6.154   5.152  0.2643 -0.3907 -0.9304
   42MOL   H26814290   6.644   5.911   5.160  1.1762 -3.1299  0.4414
   42MOL   H26914291   6.418   6.015   5.113  0.0767  0.6808  0.4492
   42MOL   H27014292   6.194   6.062   5.215  0.7836 -1.4575 -0.5460
   42MOL   H27114293   6.176   6.080   5.472  0.6392  1.9440 -0.4807
   42MOL   H27214294   6.381   6.028   5.613  0.1097 -1.5750 -0.5954
   42MOL   H27314295   6.594   5.990   5.495  1.4172 -0.3549 -0.9692
   42MOL   C27414296   6.741   5.760   5.331  0.2752  0.6573  0.1853
   42MOL   C27514297   6.854   5.703   5.423 -0.5802 -0.1849 -0.0693
   42MOL   C27614298   6.989   5.770   5.393  0.0955 -0.2914 -0.1543
   42MOL   C27714299   7.076   5.713   5.305  0.2237 -0.3668  0.5113
   42MOL   C27814300   7.197   5.774   5.273 -0.0527  0.0465 -0.0020
   42MOL   C27914301   7.230   5.900   5.323 -0.0187 -0.4600 -0.0797
   42MOL   C28014302   7.147   5.964   5.409 -0.3517  1.0130  0.1058
   42MOL   C28114303   7.019   5.904   5.441 -0.0847  0.0013 -0.5100
   42MOL   O28214304   6.854   5.566   5.395 -0.3342 -0.0097 -0.5847
   42MOL   H28314305   6.643   5.743   5.374  0.0703  2.7332  0.5847
   42MOL   H28414306   6.750   5.721   5.229 -0.0705 -0.0730  0.4292
   42MOL   H28514307   6.828   5.718   5.528 -0.9502  1.4381 -0.3839
   42MOL   H28614308   7.053   5.613   5.269 -0.0552  0.8848 -2.9586
   42MOL   H28714309   7.271   5.721   5.215  0.8114  2.3614 -1.0716
   42MOL   H28814310   7.325   5.945   5.298  0.6162 -1.2455  0.9132
   42MOL   H28914311   7.164   6.056   5.463 -0.2391  1.1581 -0.1799
   42MOL   H29014312   6.959   5.963   5.508  0.0697  0.5938 -0.8919
   42MOL   C29114313   6.904   5.482   5.498  0.5966  0.0867  0.8097
   42MOL   C29214314   6.780   5.414   5.563 -0.1103 -0.3504  0.7052
   42MOL   C29314315   6.813   5.305   5.670  0.9594  0.2748  0.5870
   42MOL   C29414316   6.790   5.326   5.810  0.2919 -0.2468 -0.3633
   42MOL   C29514317   6.822   5.223   5.903  0.2226  0.0046  0.3935
   42MOL   C29614318   6.871   5.101   5.857 -0.2099 -0.4316  0.6471
   42MOL   C29714319   6.887   5.080   5.721 -0.1637  1.1673  0.3267
   42MOL   C29814320   6.865   5.182   5.631  0.2399 -0.6672  0.0177
   42MOL   O29914321   6.708   5.522   5.612  0.0982  0.5371  0.0117
   42MOL   H30014322   6.966   5.542   5.565  1.9095 -2.2116  1.7399
   42MOL   H30114323   6.962   5.406   5.446  1.1555  0.4855  0.8509
   42MOL   H30214324   6.714   5.363   5.492 -0.4365 -0.0888  0.8211
   42MOL   H30314325   6.753   5.421   5.847  0.6421 -0.7023  1.1454
   42MOL   H30414326   6.816   5.240   6.009  1.5391 -0.9486  0.6301
   42MOL   H30514327   6.889   5.022   5.929  1.1021 -0.3452  0.4381
   42MOL   H30614328   6.912   4.984   5.679 -1.6442  2.2104 -3.0994
   42MOL   H30714329   6.889   5.154   5.530  2.1312 -1.4908  0.6773
   42MOL   C30814330   6.562   5.505   5.618 -0.4221 -1.0376  0.6031
   42MOL   C30914331   6.505   5.632   5.670  0.9399  0.6729 -0.1570
   42MOL   C31014332   6.356   5.650   5.642 -0.6247 -0.6224 -0.4566
   42MOL   C31114333   6.310   5.711   5.521 -0.4069 -0.5863 -0.3696
   42MOL   C31214334   6.172   5.717   5.501 -0.5750 -0.2359  0.0426
   42MOL   C31314335   6.086   5.669   5.598 -0.1801 -0.6330  0.7971
   42MOL   C31414336   6.129   5.614   5.718 -0.6031  0.3134  0.2233
   42MOL   C31514337   6.265   5.598   5.739 -0.0409 -0.8205  0.2494
   42MOL   O31614338   6.536   5.643   5.809  0.6433 -0.0891 -0.2417
   42MOL   H31714339   6.544   5.417   5.680  2.1891 -3.5772 -2.0855
   42MOL   H31814340   6.530   5.469   5.520  0.2826  0.1397 -0.0621
   42MOL   H31914341   6.548   5.717   5.618  1.3841  0.2675 -0.4586
   42MOL   H32014342   6.381   5.747   5.448 -0.8209 -0.9423 -0.9589
   42MOL   H32114343   6.130   5.754   5.409  2.8896 -1.8936 -2.2931
   42MOL   H32214344   5.980   5.681   5.583 -0.0812  0.7824  1.1859
   42MOL   H32314345   6.061   5.583   5.796  0.9063  0.0155  1.4221
   42MOL   H32414346   6.312   5.548   5.823 -0.4084 -0.9720  0.3675
   42MOL   C32514347   6.544   5.771   5.865 -0.4080  0.3224 -0.6622
   42MOL   C32614348   6.675   5.848   5.832  0.2687  0.0535 -0.3059
   42MOL   C32714349   6.663   5.992   5.882 -0.1843  0.0269 -0.5708
   42MOL   C32814350   6.650   6.096   5.797  0.0742  0.0724  0.2063
   42MOL   C32914351   6.634   6.223   5.850 -0.7106  0.0489  0.5682
   42MOL   C33014352   6.639   6.249   5.987 -0.0073 -0.4371 -0.7111
   42MOL   C33114353   6.661   6.144   6.076 -0.2790  0.3792 -0.3648
   42MOL   C33214354   6.669   6.014   6.022 -0.5834 -0.1916 -0.2100
   42MOL   O33314355   6.783   5.776   5.889  0.0855  0.3818 -0.0873
   42MOL   H33414356   6.520   5.776   5.972 -2.5947  0.5321 -1.1565
   42MOL   H33514357   6.460   5.824   5.820 -1.6545 -1.5120 -0.5651
   42MOL   H33614358   6.691   5.857   5.725 -1.3372  0.9325 -0.4755
   42MOL   H33714359   6.650   6.083   5.690  1.2651  1.0896  0.0712
   42MOL   H33814360   6.632   6.305   5.780  3.1730 -0.2832 -0.0324
   42MOL   H33914361   6.636   6.347   6.031  0.8866 -0.5530 -0.3862
   42MOL   H34014362   6.664   6.151   6.184  1.7796 -3.4497 -0.0757
   42MOL   H34114363   6.698   5.931   6.085  3.6418  1.6116  0.4150
   42MOL   H34214364   6.767   5.686   5.866 -2.8596  0.6010  0.9711
   43MOL     C114365   0.682   3.394   7.440  0.4239 -0.4386 -0.0118
   43MOL     C214366   0.610   3.531   7.444 -0.0032 -0.5744  0.5872
   43MOL     C314367   0.673   3.634   7.535  0.1739 -0.2041 -0.2660
   43MOL     C414368   0.635   3.644   7.670 -0.8871 -0.0628  0.0683
   43MOL     C514369   0.693   3.736   7.759  0.4791  0.4300 -0.3375
   43MOL     C614370   0.779   3.839   7.705 -0.4973 -0.8453  0.1131
   43MOL     C714371   0.814   3.835   7.570  0.0837 -0.1445  0.0811
   43MOL     C814372   0.760   3.738   7.486  0.7188 -0.1328 -0.0089
   43MOL     O914373   0.474   3.494   7.484  0.2821 -0.1519 -0.3604
   43MOL    H1014374   0.669   3.337   7.532  1.1705  1.3646  1.2262
   43MOL    H1114375   0.657   3.347   7.345  1.5425  2.8483 -2.0349
   43MOL    H1214376   0.599   3.575   7.345 -1.0768 -0.4820  0.7412
   43MOL    H1314377   0.559   3.576   7.707 -0.2753 -0.4015  0.7098
   43MOL    H1414378   0.669   3.740   7.864  4.1180  0.3234  0.5617
   43MOL    H1514379   0.822   3.916   7.767 -0.6795 -1.0777  0.5285
   43MOL    H1614380   0.877   3.916   7.538 -0.9685  0.0227 -1.5942
   43MOL    H1714381   0.796   3.732   7.384  0.7133  1.9825 -0.1570
   43MOL    H1814382   0.788   3.422   7.434  0.2067 -0.1243 -3.1649
   43MOL    C1914383   0.388   3.601   7.505 -0.5269 -0.1712 -0.2424
   43MOL    C2014384   0.252   3.559   7.451  0.7878  0.3424  0.1510
   43MOL    C2114385   0.236   3.571   7.298 -0.1627 -0.5147 -0.6793
   43MOL    C2214386   0.300   3.487   7.205  0.4629  0.5658  1.0404
   43MOL    C2314387   0.298   3.521   7.067 -0.0733  0.1306 -0.7228
   43MOL    C2414388   0.226   3.634   7.024  0.8431  0.0818  0.0403
   43MOL    C2514389   0.172   3.721   7.118  0.2272 -0.2136 -0.3784
   43MOL    C2614390   0.169   3.689   7.253 -0.2112 -0.4256 -0.0351
   43MOL    O2714391   0.162   3.643   7.531 -0.4610 -0.0024 -0.1264
   43MOL    H2814392   0.388   3.625   7.611 -2.1362  1.4193 -0.5917
   43MOL    H2914393   0.421   3.688   7.449 -0.1238 -1.4264 -2.0001
   43MOL    H3014394   0.233   3.457   7.483 -0.4080  0.0714 -1.3702
   43MOL    H3114395   0.353   3.398   7.235  2.1740  0.6040 -1.6964
   43MOL    H3214396   0.337   3.450   6.996 -2.5575 -1.8783 -0.1449
   43MOL    H3314397   0.201   3.641   6.919 -1.8356 -0.6909  0.6044
   43MOL    H3414398   0.114   3.809   7.096  1.4835  0.2427 -1.8871
   43MOL    H3514399   0.127   3.760   7.323 -1.3186 -2.1798  1.1172
   43MOL    C3614400   0.028   3.601   7.548 -0.4147 -0.0803 -0.2074
   43MOL    C3714401   8.030   3.706   7.634  0.1323  0.4190  0.7047
   43MOL    C3814402   8.024   3.833   7.552  0.1276  0.2225 -0.0141
   43MOL    C3914403   0.048   3.930   7.552 -0.7950 -0.4603 -0.5290
   43MOL    C4014404   0.059   4.031   7.452 -0.6072 -0.2814 -0.2141
   43MOL    C4114405   8.035   4.039   7.354 -0.8308 -0.2176 -0.2593
   43MOL    C4214406   7.927   3.950   7.361 -0.6811 -0.1539  1.0740
   43MOL    C4314407   7.926   3.842   7.450  0.9906  0.2284 -0.6431
   43MOL    O4414408   0.015   3.731   7.758 -0.3852 -0.0534 -0.3284
   43MOL    H4514409   8.071   3.590   7.446 -1.4713 -0.8931  0.2511
   43MOL    H4614410   0.021   3.502   7.594 -0.5322  0.0048 -0.0434
   43MOL    H4714411   7.931   3.665   7.654  0.7144 -0.9740  0.7963
   43MOL    H4814412   0.121   3.919   7.630 -0.5239  1.6784 -0.4412
   43MOL    H4914413   0.139   4.104   7.451 -1.7564  1.0220  0.7676
   43MOL    H5014414   8.040   4.114   7.276 -1.5325 -1.4112 -1.4691
   43MOL    H5114415   7.851   3.951   7.284 -0.3058  0.2502  0.7132
   43MOL    H5214416   7.852   3.765   7.434  1.3307 -0.2602  0.1340
   43MOL    C5314417   8.020   3.806   7.863  0.1817 -0.1148  0.3127
   43MOL    C5414418   0.034   3.809   7.984 -0.6324  0.7374 -0.2571
   43MOL    C5514419   0.155   3.895   7.948 -0.5925 -0.1574  0.0846
   43MOL    C5614420   0.270   3.825   7.904 -0.2630 -0.1247 -0.2484
   43MOL    C5714421   0.383   3.901   7.867 -0.4269  0.1604 -0.1245
   43MOL    C5814422   0.385   4.037   7.897  0.2041 -0.5866 -0.1216
   43MOL    C5914423   0.268   4.109   7.934  0.3243 -0.0160 -0.1776
   43MOL    C6014424   0.151   4.034   7.964 -0.1241  0.2784 -0.1157
   43MOL    O6114425   8.039   3.864   0.010  0.2273  0.7928  0.0228
   43MOL    H6214426   8.006   3.908   7.828 -0.3375 -0.2614  0.0937
   43MOL    H6314427   7.935   3.747   7.896  1.0130 -2.8125 -2.1072
   43MOL    H6414428   0.077   3.710   8.000 -0.4773  0.4305 -2.4080
   43MOL    H6514429   0.271   3.718   7.888  3.5831 -0.1261 -0.4603
   43MOL    H6614430   0.467   3.853   7.820 -1.0133 -1.1598  0.1537
   43MOL    H6714431   0.475   4.097   7.895 -0.1192 -0.1061 -0.3998
   43MOL    H6814432   0.281   4.215   7.951  0.2707  0.0847 -0.7715
   43MOL    H6914433   0.073   4.090   8.012 -0.7576 -0.3273 -0.4287
   43MOL    C7014434   0.011   3.825   0.132  0.9372 -0.3458  0.1045
   43MOL    C7114435   8.026   3.907   0.241  0.0164 -0.3608 -0.2252
   43MOL    C7214436   8.047   4.054   0.219 -0.0788 -0.5513 -0.6241
   43MOL    C7314437   7.956   4.134   0.151  0.5520 -0.3570  0.1613
   43MOL    C7414438   7.982   4.274   0.137 -0.2299  0.0029  0.2390
   43MOL    C7514439   0.025   4.327   0.183 -0.3179  0.2686 -0.5088
   43MOL    C7614440   0.117   4.243   0.247  1.0934 -0.0188 -0.3920
   43MOL    C7714441   0.085   4.108   0.268  0.5603  0.5341 -0.9228
   43MOL    O7814442   0.008   3.856   0.361  0.1616  0.1609 -0.4286
   43MOL    H7914443   8.077   3.721   0.159 -0.7892 -0.5083 -1.3411
   43MOL    H8014444   0.117   3.850   0.137  1.0688 -0.8065 -0.4150
   43MOL    H8114445   7.922   3.878   0.231 -0.7442  2.2650 -0.4246
   43MOL    H8214446   7.857   4.099   0.122  0.1796  0.6181  0.2156
   43MOL    H8314447   7.911   4.343   0.094 -1.0681  0.2361  1.9346
   43MOL    H8414448   0.057   4.430   0.181 -0.3636  0.2990  0.0913
   43MOL    H8514449   0.200   4.295   0.293 -0.6206  1.4537  1.0803
   43MOL    H8614450   0.153   4.042   0.320  0.5699 -1.2386 -3.1476
   43MOL    C8714451   7.999   3.874   0.475  0.0595 -0.1275 -0.1511
   43MOL    C8814452   8.076   3.824   0.592 -0.4181  0.2349  0.0227
   43MOL    C8914453   0.002   3.670   0.607  0.1916 -0.1787 -0.2018
   43MOL    C9014454   7.983   3.606   0.681  0.6448 -0.0275 -0.5308
   43MOL    C9114455   7.973   3.467   0.685  0.1086  0.2094 -0.2994
   43MOL    C9214456   8.058   3.388   0.608 -0.3132 -0.0110 -0.2365
   43MOL    C9314457   0.084   3.455   0.534  0.8846  0.0877  0.1975
   43MOL    C9414458   0.097   3.595   0.532  0.0195  0.2110 -0.0525
   43MOL    O9514459   8.031   3.889   0.709  0.2008  0.1543  0.3437
   43MOL    H9614460   7.899   3.832   0.470 -0.7691  1.7573  0.1391
   43MOL    H9714461   7.980   3.980   0.491  0.0877  0.0633 -1.2962
   43MOL    H9814462   0.098   3.856   0.570  0.4845 -2.9826 -0.6842
   43MOL    H9914463   7.913   3.669   0.733  0.4733  0.2046 -1.0395
   43MOL   H10014464   7.897   3.421   0.746 -0.5865  0.9252 -0.6244
   43MOL   H10114465   8.040   3.281   0.606 -1.2525  0.0953  1.6185
   43MOL   H10214466   0.150   3.398   0.470  2.5824  1.2547  0.8772
   43MOL   H10314467   0.166   3.645   0.466 -0.1573  1.5031  0.7309
   43MOL   C10414468   0.047   3.935   0.803  0.5035 -0.2290 -0.5835
   43MOL   C10514469   8.053   3.990   0.926 -0.5566  0.1815  0.5234
   43MOL   C10614470   7.948   3.898   0.990  0.2501  0.2376 -0.0917
   43MOL   C10714471   7.985   3.816   1.104 -0.3949 -0.3584 -0.4010
   43MOL   C10814472   7.892   3.727   1.156  0.0770 -0.3111 -0.4437
   43MOL   C10914473   7.757   3.722   1.104 -0.5381  0.2213 -0.9342
   43MOL   C11014474   7.718   3.810   1.006  0.1734 -0.4149  0.3239
   43MOL   C11114475   7.811   3.898   0.944  0.2274 -0.4403  0.1390
   43MOL   O11214476   0.067   4.033   1.024 -0.0838 -0.1312  0.8542
   43MOL   H11314477   0.098   3.849   0.847 -0.5215 -1.6249 -2.1007
   43MOL   H11414478   0.123   3.998   0.757  1.4318  0.3532  1.6891
   43MOL   H11514479   7.995   4.076   0.892  1.4830  0.1361 -3.3998
   43MOL   H11614480   0.005   3.811   1.145 -0.3727 -2.7647 -0.6815
   43MOL   H11714481   7.918   3.667   1.242 -1.3929  1.9736  1.6571
   43MOL   H11814482   7.687   3.651   1.146 -2.0849  0.6372 -2.7753
   43MOL   H11914483   7.615   3.800   0.975  0.7008 -0.2978 -1.5267
   43MOL   H12014484   7.781   3.960   0.860  0.2467  1.1269  1.2842
   43MOL   C12114485   0.139   4.150   0.979  0.2350  1.3109  0.5855
   43MOL   C12214486   0.105   4.276   1.059  0.4453  0.2196  0.6360
   43MOL   C12314487   0.174   4.270   1.191 -0.4403 -0.0219  0.0450
   43MOL   C12414488   0.305   4.326   1.202  0.4626  0.5720 -0.0985
   43MOL   C12514489   0.353   4.330   1.329 -0.1620  0.5811  0.2507
   43MOL   C12614490   0.281   4.277   1.445 -0.6517 -0.1251  0.7177
   43MOL   C12714491   0.156   4.218   1.431 -0.0993 -0.2227  0.3116
   43MOL   C12814492   0.103   4.210   1.299 -0.2411  0.0766  0.4254
   43MOL   O12914493   0.139   4.389   0.980 -0.6669 -0.0820 -0.1762
   43MOL   H13014494   0.123   4.167   0.872  1.4493  1.1616  0.3750
   43MOL   H13114495   0.245   4.129   0.995  0.1295 -0.2680 -0.6908
   43MOL   H13214496   8.079   4.276   1.082  0.3919  0.2049  0.3811
   43MOL   H13314497   0.364   4.375   1.126  2.2252  1.7062  1.9432
   43MOL   H13414498   0.452   4.372   1.338 -0.1948  0.6614  0.2348
   43MOL   H13514499   0.337   4.284   1.537 -1.8072  0.5217  1.3765
   43MOL   H13614500   0.105   4.166   1.511 -2.0621 -1.2753 -1.5673
   43MOL   H13714501   0.013   4.156   1.275  1.4068 -2.8224  0.5724
   43MOL   C13814502   0.079   4.513   1.020  0.3754 -0.1615 -1.0843
   43MOL   C13914503   8.019   4.547   0.965 -0.1210  0.0697  0.3317
   43MOL   C14014504   7.999   4.521   0.819 -0.4408 -0.0123  0.3395
   43MOL   C14114505   7.962   4.630   0.734 -1.0607  0.5482  0.4807
   43MOL   C14214506   7.937   4.609   0.597 -0.5941 -0.3419 -0.1606
   43MOL   C14314507   7.936   4.479   0.546 -0.0751  0.4068 -0.3908
   43MOL   C14414508   7.972   4.367   0.637 -0.1332 -0.1462  0.2218
   43MOL   C14514509   8.009   4.391   0.774 -0.1693 -0.6918 -0.8787
   43MOL   O14614510   7.919   4.475   1.043 -0.4500 -0.0582  0.7380
   43MOL   H14714511   0.150   4.584   0.976  2.6612 -2.5782 -1.3930
   43MOL   H14814512   0.085   4.525   1.128  0.4897 -0.3293 -1.0729
   43MOL   H14914513   7.998   4.651   0.990 -0.7925 -0.1647  0.7615
   43MOL   H15014514   7.956   4.726   0.782 -1.8912  0.6669  0.1358
   43MOL   H15114515   7.914   4.687   0.526 -1.2408 -0.4398 -0.0599
   43MOL   H15214516   7.927   4.461   0.440  0.2268 -1.6329 -0.1003
   43MOL   H15314517   7.962   4.267   0.598  1.0895  0.7027 -2.3665
   43MOL   H15414518   8.031   4.312   0.844  0.8195 -0.4797 -0.9445
   43MOL   C15514519   7.791   4.535   1.071  0.0090  0.2330  0.0429
   43MOL   C15614520   7.696   4.419   1.113  0.3924  0.3947  1.2605
   43MOL   C15714521   7.745   4.313   1.214  0.2394 -0.4272  0.3875
   43MOL   C15814522   7.792   4.355   1.343 -0.3590  0.6561  0.5000
   43MOL   C15914523   7.849   4.259   1.435  0.3197 -0.6201 -0.4692
   43MOL   C16014524   7.852   4.122   1.402  0.0620 -0.2674  0.1773
   43MOL   C16114525   7.801   4.085   1.277 -0.2321  0.6837  0.4339
   43MOL   C16214526   7.741   4.177   1.188  0.0423  0.9890 -0.7345
   43MOL   O16314527   7.578   4.474   1.162  0.1338 -0.1266 -0.3704
   43MOL   H16414528   7.763   4.605   0.993  0.4820 -1.1664 -1.4250
   43MOL   H16514529   7.809   4.593   1.162  0.6028  1.0481 -0.5870
   43MOL   H16614530   7.686   4.365   1.018 -1.7187  3.5735 -0.4206
   43MOL   H16714531   7.795   4.459   1.370  1.0980  0.7515  0.0129
   43MOL   H16814532   7.900   4.284   1.526 -1.2009 -3.9262  1.3771
   43MOL   H16914533   7.881   4.044   1.471  1.7925 -0.3299 -0.5756
   43MOL   H17014534   7.805   3.982   1.246 -0.3723  0.7264  0.2727
   43MOL   H17114535   7.721   4.151   1.085 -0.8617 -0.6951 -0.1551
   43MOL   C17214536   7.469   4.389   1.125  0.0857  0.5086  0.4335
   43MOL   C17314537   7.337   4.441   1.191  0.0027 -0.4893  0.0030
   43MOL   C17414538   7.218   4.350   1.159  0.3165 -0.1292  0.4616
   43MOL   C17514539   7.167   4.262   1.255 -0.2822 -0.5498  0.2526
   43MOL   C17614540   7.065   4.172   1.221  0.2291  0.0319 -0.9384
   43MOL   C17714541   7.009   4.171   1.087  0.3476  0.7154 -0.2513
   43MOL   C17814542   7.069   4.258   0.991  0.7689  0.3461 -0.1416
   43MOL   C17914543   7.169   4.344   1.025  0.1811  0.3127  0.5651
   43MOL   O18014544   7.315   4.566   1.125 -0.1156 -0.3740  0.5076
   43MOL   H18114545   7.455   4.384   1.017 -2.5717 -1.3744  0.8205
   43MOL   H18214546   7.486   4.286   1.157  1.2449  0.8464  0.9434
   43MOL   H18314547   7.347   4.453   1.298 -0.0086 -0.0928 -0.0398
   43MOL   H18414548   7.204   4.261   1.356 -3.0419  0.5000  1.3414
   43MOL   H18514549   7.023   4.108   1.298 -0.0735 -0.1762 -1.2725
   43MOL   H18614550   6.922   4.115   1.057  0.6780  1.2672 -2.3498
   43MOL   H18714551   7.022   4.263   0.894  0.0519  0.5022  0.2167
   43MOL   H18814552   7.213   4.404   0.946  0.5520  0.7557  1.0961
   43MOL   C18914553   7.243   4.660   1.196  0.2834 -0.7282 -0.0945
   43MOL   C19014554   7.173   4.757   1.107  0.0777  0.2503 -0.2463
   43MOL   C19114555   7.058   4.691   1.031  0.0432  0.7979 -0.0281
   43MOL   C19214556   7.086   4.629   0.907  0.2591  0.7512  0.1189
   43MOL   C19314557   6.993   4.559   0.834  0.0552  0.6925 -0.2740
   43MOL   C19414558   6.859   4.562   0.879 -0.3853  0.0768  0.1626
   43MOL   C19514559   6.823   4.636   0.994  0.5033  0.4063 -0.1715
   43MOL   C19614560   6.924   4.697   1.068  0.1409  0.4443 -0.6058
   43MOL   O19714561   7.248   4.824   1.010  0.1451 -0.0092  0.3124
   43MOL   H19814562   7.162   4.621   1.257 -0.3667  0.4752 -0.1778
   43MOL   H19914563   7.307   4.716   1.264 -0.4600 -0.3391  0.2805
   43MOL   H20014564   7.131   4.842   1.160  0.4344 -0.7817  1.7457
   43MOL   H20114565   7.189   4.620   0.874 -0.1552 -0.0083 -0.9878
   43MOL   H20214566   7.008   4.500   0.745  0.2400 -2.0835  1.5293
   43MOL   H20314567   6.784   4.508   0.823  0.8692 -1.3836 -0.1218
   43MOL   H20414568   6.721   4.655   1.024  0.7454  3.8399 -1.2146
   43MOL   H20514569   6.894   4.760   1.151 -1.0390 -0.5957 -0.2214
   43MOL   C20614570   7.359   4.903   1.051  0.0133  0.0330  1.0388
   43MOL   C20714571   7.406   4.983   0.926 -0.5857 -0.5466 -0.0246
   43MOL   C20814572   7.452   4.896   0.816  1.1415  0.4347  0.5297
   43MOL   C20914573   7.358   4.818   0.748  0.2358 -0.4885 -0.0785
   43MOL   C21014574   7.392   4.725   0.646 -0.7242  0.0535  0.3484
   43MOL   C21114575   7.531   4.716   0.620 -0.1113  0.5957  0.0095
   43MOL   C21214576   7.625   4.792   0.677  0.0512  0.1110  0.1391
   43MOL   C21314577   7.585   4.889   0.773  0.4350  0.7200 -0.0010
   43MOL   O21414578   7.499   5.089   0.951  0.4500 -0.1685  0.2238
   43MOL   H21514579   7.340   4.964   1.138  1.5619  1.9810  0.0552
   43MOL   H21614580   7.443   4.839   1.079  0.3564 -0.7005 -1.4848
   43MOL   H21714581   7.323   5.031   0.874 -1.7988 -2.4181  0.1520
   43MOL   H21814582   7.252   4.823   0.769  0.5803 -0.7483  1.8218
   43MOL   H21914583   7.312   4.670   0.599 -0.2186 -1.2161  0.9552
   43MOL   H22014584   7.569   4.639   0.555  1.0954 -0.4226  1.8575
   43MOL   H22114585   7.727   4.773   0.648 -0.0819 -0.0649 -0.2073
   43MOL   H22214586   7.660   4.958   0.810  0.0512  0.7360  0.7508
   43MOL   C22314587   7.435   5.209   1.004 -0.4140 -0.2730  0.9308
   43MOL   C22414588   7.527   5.326   1.046 -0.4714 -0.3222  0.0397
   43MOL   C22514589   7.606   5.368   0.926  0.8925 -0.7209 -0.6868
   43MOL   C22614590   7.726   5.299   0.896 -0.6882 -0.7054 -0.5204
   43MOL   C22714591   7.812   5.340   0.794  0.0108 -0.7217 -1.5285
   43MOL   C22814592   7.768   5.445   0.709  0.1086  0.0164 -0.0010
   43MOL   C22914593   7.637   5.501   0.718 -0.1069 -0.1982  0.0624
   43MOL   C23014594   7.566   5.471   0.838 -0.8298 -0.0760 -0.3208
   43MOL   O23114595   7.430   5.420   1.103  0.0632 -0.3903  0.5734
   43MOL   H23214596   7.361   5.243   0.932 -1.2214 -2.5086  0.6819
   43MOL   H23314597   7.383   5.188   1.098 -0.9913  0.5758  0.7978
   43MOL   H23414598   7.597   5.289   1.120 -0.0155  1.9640  0.7765
   43MOL   H23514599   7.752   5.217   0.962 -0.8469 -1.6810 -1.6559
   43MOL   H23614600   7.907   5.291   0.780  1.0039  0.9505 -0.7747
   43MOL   H23714601   7.822   5.478   0.621  0.4403 -0.5057  0.0086
   43MOL   H23814602   7.604   5.575   0.647 -0.9227 -0.7476 -0.1321
   43MOL   H23914603   7.471   5.513   0.867 -1.7029 -0.9974 -1.7904
   43MOL   C24014604   7.474   5.508   1.201  0.8707 -0.7064  0.2645
   43MOL   C24114605   7.527   5.643   1.141 -1.1830 -0.1879 -0.2381
   43MOL   C24214606   7.462   5.759   1.220  0.0847 -0.3615 -0.0246
   43MOL   C24314607   7.515   5.809   1.333 -0.1002 -1.0215  0.0710
   43MOL   C24414608   7.446   5.906   1.408 -0.8083  0.0355  0.0618
   43MOL   C24514609   7.305   5.924   1.386  0.2193 -0.4012  0.3149
   43MOL   C24614610   7.248   5.876   1.266 -0.0788  0.0502 -0.0883
   43MOL   C24714611   7.329   5.802   1.178  0.6909  0.5852 -0.8688
   43MOL   O24814612   7.672   5.650   1.133  0.0894 -0.4708 -0.1474
   43MOL   H24914613   7.388   5.530   1.265  1.5612  1.3664  0.5099
   43MOL   H25014614   7.550   5.455   1.258  0.6052  1.1325  2.3850
   43MOL   H25114615   7.486   5.652   1.040 -0.8194  2.2924 -0.2010
   43MOL   H25214616   7.616   5.781   1.358 -0.0892 -0.9139  0.1458
   43MOL   H25314617   7.498   5.933   1.499  1.2296  0.3352 -1.1606
   43MOL   H25414618   7.255   5.978   1.465 -0.0816  0.6243 -0.5502
   43MOL   H25514619   7.147   5.902   1.239  0.3640 -0.0007 -1.8755
   43MOL   H25614620   7.287   5.757   1.088  1.9184 -0.6754 -0.8279
   43MOL   C25714621   7.729   5.770   1.091  0.6090 -0.2973  0.2823
   43MOL   C25814622   7.839   5.749   0.987 -0.0513  0.2273 -0.1289
   43MOL   C25914623   7.970   5.696   1.044 -0.2926  0.6283  0.7501
   43MOL   C26014624   8.064   5.787   1.110  0.0617  0.8157  0.3610
   43MOL   C26114625   0.099   5.736   1.169 -0.1411  0.2752 -0.0963
   43MOL   C26214626   0.126   5.601   1.167  0.6741 -0.7323 -0.0548
   43MOL   C26314627   0.044   5.512   1.097 -0.5933  0.2194 -0.3835
   43MOL   C26414628   8.008   5.561   1.031  0.4025 -0.1457  0.3703
   43MOL   O26514629   7.854   5.869   0.919 -0.2080 -0.4417 -0.1028
   43MOL   H26614630   7.765   5.829   1.175  0.3912  0.7875 -0.3669
   43MOL   H26714631   7.654   5.829   1.038  0.5410  0.4302  1.1828
   43MOL   H26814632   7.800   5.681   0.911  0.6361  0.4482 -0.6800
   43MOL   H26914633   8.033   5.890   1.114  3.1654  1.7545  1.5717
   43MOL   H27014634   0.163   5.800   1.227  0.7557 -2.0428  1.5628
   43MOL   H27114635   0.218   5.563   1.210  1.7686  0.7616 -1.0056
   43MOL   H27214636   0.076   5.409   1.092 -0.0778  0.3893 -0.6315
   43MOL   H27314637   7.953   5.485   0.978  1.0344 -0.8387  0.6920
   43MOL   C27414638   7.934   5.865   0.797  0.2140 -0.1184  0.3720
   43MOL   C27514639   7.876   5.972   0.702  0.0651  0.0315 -0.1495
   43MOL   C27614640   7.753   5.923   0.637 -0.6474 -0.0671 -0.4775
   43MOL   C27714641   7.748   5.891   0.500  0.2451 -0.3783 -0.7445
   43MOL   C27814642   7.634   5.844   0.443 -0.5354 -0.5304  0.1596
   43MOL   C27914643   7.518   5.823   0.524 -0.5711  0.3760  0.1650
   43MOL   C28014644   7.518   5.868   0.659  0.6018  0.2510  0.6312
   43MOL   C28114645   7.638   5.916   0.718  0.5733  0.3869 -0.1174
   43MOL   O28214646   7.978   6.014   0.617 -0.2030 -0.2925  0.0608
   43MOL   H28314647   8.037   5.889   0.826 -0.1807 -1.4337  2.9702
   43MOL   H28414648   7.936   5.772   0.740  0.3577 -0.2837  0.6499
   43MOL   H28514649   7.845   6.061   0.757 -3.4680  0.3408 -2.4758
   43MOL   H28614650   7.833   5.903   0.434 -1.2315 -0.0120 -2.6223
   43MOL   H28714651   7.624   5.809   0.341 -2.0531  1.9409 -0.5780
   43MOL   H28814652   7.421   5.798   0.483  0.8684  0.0530 -3.1216
   43MOL   H28914653   7.434   5.855   0.725  0.8542  1.0785  1.1173
   43MOL   H29014654   7.640   5.933   0.824 -0.3565 -0.7371  0.0966
   43MOL   C29114655   8.016   6.153   0.623 -0.2146  0.4412  0.3746
   43MOL   C29214656   0.019   6.199   0.745 -0.0047 -0.6670  0.4740
   43MOL   C29314657   0.050   6.348   0.736 -0.5921 -0.6890  0.5085
   43MOL   C29414658   0.181   6.387   0.696 -0.3020  0.3523  0.0661
   43MOL   C29514659   0.220   6.523   0.678  0.6193 -0.4948 -0.4422
   43MOL   C29614660   0.127   6.624   0.699 -0.0757 -0.1814 -0.1372
   43MOL   C29714661   8.073   6.589   0.733  0.1710  0.2959  0.9522
   43MOL   C29814662   8.035   6.453   0.753 -0.3056 -0.2706 -0.2129
   43MOL   O29914663   8.029   6.162   0.868  0.3486 -0.1588  0.7576
   43MOL   H30014664   7.926   6.211   0.602 -0.1080 -0.1265 -1.8496
   43MOL   H30114665   0.002   6.178   0.540 -0.8008  3.4564  0.7639
   43MOL   H30214666   0.109   6.137   0.747  1.4572  1.4211  1.1840
   43MOL   H30314667   0.260   6.319   0.670 -0.4520 -0.0744  0.7299
   43MOL   H30414668   0.317   6.544   0.636  0.6481 -0.1528 -0.2017
   43MOL   H30514669   0.151   6.728   0.679 -2.8480  0.1805 -1.8594
   43MOL   H30614670   8.000   6.669   0.737 -0.8673 -0.4715 -1.3974
   43MOL   H30714671   7.929   6.431   0.761 -0.3079  0.0843  0.8428
   43MOL   C30814672   0.025   6.188   0.988 -0.9340  0.2239  0.5846
   43MOL   C30914673   8.030   6.287   1.085 -0.3794 -1.0391  0.8039
   43MOL   C31014674   7.885   6.245   1.112 -0.8212  0.6198 -0.4043
   43MOL   C31114675   7.848   6.192   1.243 -0.0048 -0.5007 -0.3569
   43MOL   C31214676   7.716   6.143   1.265 -0.2100  0.2731  0.2757
   43MOL   C31314677   7.623   6.140   1.159  0.1998 -0.1984 -0.9141
   43MOL   C31414678   7.659   6.193   1.031 -0.5859 -0.7316 -0.1087
   43MOL   C31514679   7.789   6.244   1.010  0.3346 -0.3853  0.1243
   43MOL   O31614680   0.030   6.301   1.202  0.3541 -0.0183  0.6108
   43MOL   H31714681   0.125   6.229   0.980 -0.4568 -0.9055  0.6230
   43MOL   H31814682   0.052   6.095   1.038 -0.8092 -0.2969 -0.4374
   43MOL   H31914683   8.021   6.384   1.036  0.1881 -1.6142 -0.4681
   43MOL   H32014684   7.924   6.193   1.319  3.5376 -2.4456 -3.7188
   43MOL   H32114685   7.691   6.108   1.364 -2.9825  0.6335 -0.2748
   43MOL   H32214686   7.529   6.090   1.176 -0.0135  0.9242  1.4315
   43MOL   H32314687   7.588   6.194   0.949 -0.7633  0.8645  0.0647
   43MOL   H32414688   7.805   6.286   0.912 -1.6047  3.9167  1.4889
   43MOL   C32514689   0.026   6.428   1.266  0.1079 -0.5368  0.2246
   43MOL   C32614690   0.131   6.523   1.195  0.4639  0.3209  0.3508
   43MOL   C32714691   0.142   6.658   1.261 -0.2521  1.2414 -0.0416
   43MOL   C32814692   0.161   6.670   1.402  0.1275 -0.1531 -0.3661
   43MOL   C32914693   0.187   6.793   1.462  0.6916  0.2826  0.2352
   43MOL   C33014694   0.167   6.912   1.394 -0.4248  0.6713  1.1743
   43MOL   C33114695   0.140   6.904   1.258  0.2034  0.1273  0.2511
   43MOL   C33214696   0.135   6.777   1.184 -0.5395 -0.3022  0.0341
   43MOL   O33314697   0.250   6.462   1.187 -0.0492 -0.0326 -0.7171
   43MOL   H33414698   0.037   6.425   1.375  1.1169  2.2826  0.2482
   43MOL   H33514699   8.010   6.476   1.248  0.0927  0.9061  3.7783
   43MOL   H33614700   0.105   6.534   1.089 -2.4646  3.5073  1.2855
   43MOL   H33714701   0.167   6.583   1.465  0.4210  0.1540  0.0350
   43MOL   H33814702   0.208   6.809   1.567  1.3255  0.6451  0.0554
   43MOL   H33914703   0.171   7.006   1.447  3.4879  0.8226  0.7516
   43MOL   H34014704   0.127   6.994   1.200  1.1660 -0.4553 -0.9113
   43MOL   H34114705   0.113   6.789   1.079  1.7947 -1.2740 -0.6130
   43MOL   H34214706   0.294   6.441   1.269  0.8958 -2.4188 -1.7988
   44MOL     C114707   6.886   4.347   8.075  0.6485  0.2955 -0.3181
   44MOL     C214708   6.846   4.469   0.082  0.5728  0.2785 -1.0292
   44MOL     C314709   6.692   4.489   0.098 -0.0241 -0.2099 -0.5813
   44MOL     C414710   6.655   4.571   0.207  0.5665 -0.0527 -0.8423
   44MOL     C514711   6.523   4.596   0.227 -0.0599 -0.7357 -0.0469
   44MOL     C614712   6.428   4.558   0.130 -0.4331  0.2931  0.2751
   44MOL     C714713   6.463   4.478   0.023 -0.2812 -0.5221  1.1801
   44MOL     C814714   6.598   4.436   0.007  0.4532 -0.9490  0.5430
   44MOL     O914715   6.906   4.590   0.050 -0.0064  0.5164  0.4680
   44MOL    H1014716   6.842   4.254   0.030 -1.7048  1.1933 -0.8534
   44MOL    H1114717   6.841   4.352   7.976 -0.1092  0.2605  0.0236
   44MOL    H1214718   6.890   4.440   0.178 -0.5012  3.0512  0.3471
   44MOL    H1314719   6.726   4.616   0.275  0.2674 -0.5201 -0.2153
   44MOL    H1414720   6.489   4.657   0.310 -0.4572 -2.4105  1.0472
   44MOL    H1514721   6.328   4.592   0.156 -0.8092  0.3540 -1.2115
   44MOL    H1614722   6.392   4.432   8.035 -0.2899 -0.6229  1.2574
   44MOL    H1714723   6.621   4.369   8.005 -0.5347 -0.7522  0.0958
   44MOL    H1814724   6.994   4.328   8.074  0.8221  1.2568 -1.4822
   44MOL    C1914725   7.047   4.598   0.062  0.1873  0.0369  1.0649
   44MOL    C2014726   7.070   4.747   0.044  0.2967  0.2368 -0.0944
   44MOL    C2114727   7.068   4.786   7.978 -0.0458  0.1541  0.1082
   44MOL    C2214728   7.181   4.759   7.897 -0.3695 -0.9895 -0.7632
   44MOL    C2314729   7.183   4.791   7.760 -0.7995  0.2763 -0.4271
   44MOL    C2414730   7.072   4.858   7.703 -0.5372  0.1109 -0.3537
   44MOL    C2514731   6.958   4.882   7.781  0.1235  0.3546  0.3198
   44MOL    C2614732   6.956   4.847   7.919  0.0365 -0.7861  1.1308
   44MOL    O2714733   7.194   4.781   0.096 -0.6137 -0.0073 -0.1267
   44MOL    H2814734   7.088   4.566   0.158  2.6763 -3.5121 -1.0613
   44MOL    H2914735   7.095   4.544   8.060  0.5280 -0.0628  1.3287
   44MOL    H3014736   7.002   4.804   0.107 -0.4826 -0.1462 -0.5948
   44MOL    H3114737   7.268   4.720   7.949 -0.3789  1.3504  1.0965
   44MOL    H3214738   7.273   4.761   7.708 -1.5639  1.0223 -2.2207
   44MOL    H3314739   7.067   4.876   7.597 -0.6193 -1.7163 -0.6864
   44MOL    H3414740   6.873   4.937   7.744 -1.4839 -2.0663  0.2184
   44MOL    H3514741   6.871   4.869   7.983 -0.2835  1.9841 -0.1628
   44MOL    C3614742   7.207   4.894   0.171  0.0329 -0.4175  0.0001
   44MOL    C3714743   7.351   4.918   0.215  0.3197  0.5075  0.6682
   44MOL    C3814744   7.367   5.052   0.286  0.0337 -0.0983  0.7225
   44MOL    C3914745   7.384   5.165   0.208 -0.1890  0.2691  0.8341
   44MOL    C4014746   7.419   5.286   0.273 -0.1995  0.8876 -0.3007
   44MOL    C4114747   7.432   5.295   0.410 -0.3862 -0.8960  0.1662
   44MOL    C4214748   7.401   5.183   0.488 -0.4585  0.0373  0.6243
   44MOL    C4314749   7.378   5.060   0.423  0.1490  0.3636  0.1589
   44MOL    O4414750   7.423   4.904   0.092 -0.3138  0.4878  0.0970
   44MOL    H4514751   7.168   4.977   0.112  1.5488  1.3861  1.4608
   44MOL    H4614752   7.146   4.890   0.262 -0.5272 -1.6894 -0.4229
   44MOL    H4714753   7.371   4.831   0.278 -0.3473 -0.4772 -0.4552
   44MOL    H4814754   7.363   5.151   0.103  0.6492  1.0773  0.5558
   44MOL    H4914755   7.415   5.377   0.216  0.2154  0.5159 -0.9371
   44MOL    H5014756   7.447   5.396   0.446 -1.6607  0.0856 -1.9600
   44MOL    H5114757   7.408   5.187   0.596  3.2128 -1.1028  0.4959
   44MOL    H5214758   7.367   4.973   0.485  1.6401  0.9975  1.3502
   44MOL    C5314759   7.556   4.862   0.122 -0.0224 -0.8219 -0.4768
   44MOL    C5414760   7.641   4.835   8.080 -0.2600 -0.1373  0.1655
   44MOL    C5514761   7.791   4.879   0.028  0.0314 -0.0822  0.3180
   44MOL    C5614762   7.886   4.783   0.076  0.1816 -0.6281 -1.2475
   44MOL    C5714763   8.014   4.837   0.113  0.4614 -0.1151 -0.4427
   44MOL    C5814764   8.044   4.972   0.077 -0.1712  0.3249  0.0959
   44MOL    C5914765   7.950   5.059   0.024 -0.4762  0.3572 -0.5950
   44MOL    C6014766   7.825   5.008   8.066 -0.7806 -0.1847  0.1713
   44MOL    O6114767   7.650   4.702   8.045  0.1573  0.4245  0.0500
   44MOL    H6214768   7.615   4.941   0.168 -0.4144  0.5032 -2.2033
   44MOL    H6314769   7.559   4.772   0.184 -1.5840 -0.2807  0.4227
   44MOL    H6414770   7.605   4.892   7.994  1.1873  0.4677 -0.0682
   44MOL    H6514771   7.852   4.686   0.110  0.6483 -0.8624 -1.4594
   44MOL    H6614772   0.015   4.776   0.149  0.0464 -0.6854 -0.4674
   44MOL    H6714773   0.055   5.025   0.101 -0.5469  2.2123 -2.3922
   44MOL    H6814774   7.974   5.163   0.009 -0.8882  0.4941 -0.2937
   44MOL    H6914775   7.753   5.079   8.027  1.0226  1.4790 -0.2368
   44MOL    C7014776   7.526   4.664   7.995 -0.8148 -0.0583  0.0745
   44MOL    C7114777   7.513   4.509   8.016 -0.5248  0.5211 -0.1480
   44MOL    C7214778   7.528   4.462   0.079 -0.0485 -0.5457 -0.2981
   44MOL    C7314779   7.442   4.506   0.176  0.2489  0.5979  0.0441
   44MOL    C7414780   7.454   4.469   0.313 -0.1921  0.2131  0.4392
   44MOL    C7514781   7.552   4.376   0.352 -0.1291  0.3036 -0.5956
   44MOL    C7614782   7.644   4.327   0.255 -0.7719 -0.0223 -0.2011
   44MOL    C7714783   7.635   4.377   0.121  1.4272  0.1343 -0.4307
   44MOL    O7814784   7.604   4.443   7.928  0.2479  0.2073 -0.7395
   44MOL    H7914785   7.436   4.704   8.042 -1.4685  1.5544 -2.4164
   44MOL    H8014786   7.518   4.691   7.890 -0.9250  1.9359  0.5916
   44MOL    H8114787   7.418   4.468   7.983  0.0774 -0.4199 -0.7454
   44MOL    H8214788   7.356   4.566   0.151 -2.2954 -2.6487  0.6820
   44MOL    H8314789   7.382   4.498   0.388  1.2371  0.4558  1.7671
   44MOL    H8414790   7.552   4.356   0.458 -1.0752  0.1981 -0.6153
   44MOL    H8514791   7.718   4.256   0.289 -0.6052 -0.3595 -1.2366
   44MOL    H8614792   7.693   4.333   0.041  0.8713  0.0702 -0.8001
   44MOL    C8714793   7.566   4.440   7.794 -0.0646  0.6697  0.3926
   44MOL    C8814794   7.673   4.463   7.685 -0.5307  0.1373 -0.4280
   44MOL    C8914795   7.819   4.419   7.717 -0.1040 -0.0612 -0.1809
   44MOL    C9014796   7.883   4.482   7.831 -0.2797 -0.8152  0.0174
   44MOL    C9114797   8.006   4.441   7.873  0.6356  0.0033  0.0140
   44MOL    C9214798   8.071   4.335   7.804 -0.0277 -0.2157 -0.0343
   44MOL    C9314799   8.017   4.278   7.690 -0.0661  1.0653  0.0104
   44MOL    C9414800   7.885   4.314   7.646 -0.4257  0.9248  0.0358
   44MOL    O9514801   7.680   4.603   7.656 -0.8085  0.1929  0.1738
   44MOL    H9614802   7.474   4.490   7.763 -0.8308 -0.9331  0.0402
   44MOL    H9714803   7.541   4.336   7.778 -2.4633  1.1201  1.0707
   44MOL    H9814804   7.644   4.413   7.593 -2.8168  1.0898 -0.2662
   44MOL    H9914805   7.842   4.568   7.881 -1.9080 -0.9383 -1.0787
   44MOL   H10014806   8.052   4.488   7.959  0.8084  0.8198 -0.5138
   44MOL   H10114807   0.078   4.292   7.851 -0.5499 -0.5398  0.6650
   44MOL   H10214808   8.065   4.197   7.638  0.1387  0.0751  1.7056
   44MOL   H10314809   7.832   4.268   7.564  1.0321 -0.3735 -0.2011
   44MOL   C10414810   7.728   4.636   7.529  0.0012  0.4721 -0.0174
   44MOL   C10514811   7.739   4.788   7.500  0.2538  0.4402  0.2605
   44MOL   C10614812   7.606   4.851   7.466 -1.0770  0.6464 -0.2868
   44MOL   C10714813   7.552   4.840   7.333  0.5270  0.7095 -0.7629
   44MOL   C10814814   7.433   4.909   7.300  0.3947  0.1606  0.2269
   44MOL   C10914815   7.352   4.968   7.397 -0.0584  0.1822  0.1924
   44MOL   C11014816   7.399   4.975   7.528  0.5292 -0.2241 -0.1610
   44MOL   C11114817   7.528   4.920   7.564 -0.6762  0.8245  0.1036
   44MOL   O11214818   7.808   4.864   7.606  0.0956  0.3995 -0.7117
   44MOL   H11314819   7.821   4.584   7.506 -0.9184 -1.4618  0.5109
   44MOL   H11414820   7.664   4.600   7.449 -0.6432  1.1718  0.1822
   44MOL   H11514821   7.799   4.808   7.412 -1.6133 -2.2220 -1.6889
   44MOL   H11614822   7.603   4.783   7.257 -1.5826 -0.1240 -1.6050
   44MOL   H11714823   7.397   4.902   7.199 -1.7758  1.1880  0.9166
   44MOL   H11814824   7.258   5.013   7.371  0.2417 -0.5012 -2.1466
   44MOL   H11914825   7.343   5.031   7.601 -0.9375  0.3440 -1.6968
   44MOL   H12014826   7.567   4.928   7.664 -1.7154 -0.4565  0.6243
   44MOL   C12114827   7.949   4.867   7.609  0.0927 -1.6799 -0.0524
   44MOL   C12214828   7.997   4.962   7.720 -0.0353  0.0038 -0.0236
   44MOL   C12314829   0.057   4.926   7.768 -0.0175  0.4488  0.2266
   44MOL   C12414830   0.165   4.989   7.700 -0.1805  0.5206 -0.3145
   44MOL   C12514831   0.299   4.950   7.729 -0.6173 -0.0614 -0.3278
   44MOL   C12614832   0.319   4.835   7.813 -0.0535  0.4939 -0.2362
   44MOL   C12714833   0.215   4.769   7.873 -0.1829  0.2237 -0.2661
   44MOL   C12814834   0.084   4.818   7.856 -0.1178  0.1449  0.2276
   44MOL   O12914835   7.982   5.096   7.683 -0.4035 -0.6525  0.0685
   44MOL   H13014836   7.989   4.894   7.511  1.7810  1.9557  1.5432
   44MOL   H13114837   7.984   4.769   7.641  1.9551 -0.2386  2.5035
   44MOL   H13214838   7.923   4.939   7.796 -0.9940  1.6392 -0.4513
   44MOL   H13314839   0.142   5.059   7.622  1.4957  1.6086  0.1567
   44MOL   H13414840   0.385   5.000   7.688 -1.5265 -0.0330 -2.2551
   44MOL   H13514841   0.417   4.791   7.827 -0.1640  0.3376  0.0485
   44MOL   H13614842   0.236   4.681   7.933  0.2925 -0.0227 -0.7891
   44MOL   H13714843   0.001   4.755   7.884 -1.5040  1.7057 -0.2392
   44MOL   C13814844   8.013   5.190   7.779  0.0347 -0.6036 -0.0746
   44MOL   C13914845   8.004   5.328   7.724 -0.0164 -0.4643 -0.6870
   44MOL   C14014846   0.015   5.353   7.605 -0.4204  0.1825 -0.0005
   44MOL   C14114847   0.157   5.361   7.624  0.1776 -0.3642 -0.3136
   44MOL   C14214848   0.232   5.368   7.506 -0.3169  0.5785 -0.3139
   44MOL   C14314849   0.180   5.375   7.375  0.2083  0.1617  0.3518
   44MOL   C14414850   0.042   5.367   7.359  0.5378  0.4213  0.5029
   44MOL   C14514851   8.038   5.347   7.477 -0.0316 -1.1874  0.0804
   44MOL   O14614852   7.863   5.351   7.699 -0.2714  0.3737 -0.5173
   44MOL   H14714853   0.034   5.188   7.820  0.6560  4.0873 -1.0048
   44MOL   H14814854   7.944   5.162   7.859  0.0428 -0.4733 -0.0216
   44MOL   H14914855   8.023   5.392   7.810 -0.4936 -0.0765 -0.8607
   44MOL   H15014856   0.202   5.350   7.722  1.0085  0.5012 -0.5885
   44MOL   H15114857   0.339   5.367   7.520 -0.3224 -1.4745 -0.3102
   44MOL   H15214858   0.257   5.380   7.299 -0.3762 -0.6348 -0.3034
   44MOL   H15314859   0.004   5.372   7.258 -0.6839  0.8812  0.9747
   44MOL   H15414860   7.934   5.321   7.463  0.0643 -0.5431 -1.9982
   44MOL   C15514861   7.826   5.486   7.691  0.0238 -0.5809 -0.5172
   44MOL   C15614862   7.680   5.501   7.655 -0.3759 -0.7470 -0.2380
   44MOL   C15714863   7.620   5.638   7.675 -0.2638  0.3382 -0.2504
   44MOL   C15814864   7.574   5.687   7.800 -0.0566  0.0430 -0.1150
   44MOL   C15914865   7.518   5.812   7.823  0.1877  0.0138 -0.4562
   44MOL   C16014866   7.501   5.899   7.713  1.0726  0.2027 -0.0014
   44MOL   C16114867   7.542   5.852   7.586 -0.0370 -0.0540 -0.2690
   44MOL   C16214868   7.601   5.725   7.568  0.4716  0.0668  0.7685
   44MOL   O16314869   7.660   5.446   7.522  0.0032 -0.3245 -0.9789
   44MOL   H16414870   7.889   5.543   7.623 -1.3872  0.8640 -0.6327
   44MOL   H16514871   7.839   5.536   7.787 -2.4716  0.3338 -0.6251
   44MOL   H16614872   7.632   5.430   7.722 -2.7033 -0.7761 -1.8588
   44MOL   H16714873   7.591   5.618   7.881  0.5440  0.9824  0.5654
   44MOL   H16814874   7.482   5.842   7.921 -1.7681 -0.1523 -1.1022
   44MOL   H16914875   7.448   5.993   7.719  0.4095 -0.0789 -1.2928
   44MOL   H17014876   7.520   5.905   7.495 -0.7222 -1.1118 -0.7266
   44MOL   H17114877   7.628   5.698   7.467 -1.3445 -2.1419  0.8330
   44MOL   C17214878   7.627   5.305   7.516 -0.4758 -0.2643  0.3376
   44MOL   C17314879   7.578   5.277   7.366 -0.7779 -0.0644 -0.1732
   44MOL   C17414880   7.698   5.284   7.269 -0.3108  0.2991 -0.0157
   44MOL   C17514881   7.733   5.399   7.198 -0.3399 -0.0434  0.4152
   44MOL   C17614882   7.840   5.397   7.106 -0.8128  0.0744 -0.1735
   44MOL   C17714883   7.919   5.279   7.092 -0.1202 -0.0591 -0.1089
   44MOL   C17814884   7.884   5.161   7.166 -0.4354 -0.2924  0.1779
   44MOL   C17914885   7.773   5.161   7.253  1.0345 -0.4637  0.2897
   44MOL   O18014886   7.455   5.350   7.334  0.4555  0.4534  0.6114
   44MOL   H18114887   7.715   5.243   7.531 -0.4955 -0.5048 -0.5309
   44MOL   H18214888   7.548   5.281   7.587 -2.0496 -0.5338 -1.4722
   44MOL   H18314889   7.553   5.171   7.371 -2.1784  0.2894  0.5860
   44MOL   H18414890   7.681   5.493   7.209  2.5811  1.4907  1.9022
   44MOL   H18514891   7.871   5.483   7.049 -0.7328  0.6429  0.7139
   44MOL   H18614892   8.008   5.279   7.031 -1.6235 -2.3824 -2.4049
   44MOL   H18714893   7.955   5.080   7.169  0.3759  0.3629 -0.9800
   44MOL   H18814894   7.745   5.079   7.318 -0.7367  0.1020  0.2517
   44MOL   C18914895   7.379   5.287   7.224  0.8955  0.1065 -0.9356
   44MOL   C19014896   7.236   5.347   7.226 -0.8082  0.1919 -0.7994
   44MOL   C19114897   7.145   5.276   7.325 -0.6306 -0.3379 -0.0696
   44MOL   C19214898   7.170   5.298   7.462 -0.3642  0.4722  0.0415
   44MOL   C19314899   7.094   5.244   7.570 -0.2296  0.1351 -0.3210
   44MOL   C19414900   6.991   5.151   7.536  0.2232 -0.1970  0.8150
   44MOL   C19514901   6.966   5.121   7.397  0.1464  0.0002 -0.6300
   44MOL   C19614902   7.044   5.182   7.293 -0.2269 -0.1281  0.3119
   44MOL   O19714903   7.188   5.354   7.091  1.0874 -0.1374 -0.0379
   44MOL   H19814904   7.434   5.316   7.134  0.3403 -2.3217 -2.0901
   44MOL   H19914905   7.363   5.180   7.220 -0.5884  0.2546  0.4824
   44MOL   H20014906   7.247   5.451   7.256 -0.4178 -0.5620  1.8109
   44MOL   H20114907   7.257   5.358   7.485  0.2701 -1.0617  1.8209
   44MOL   H20214908   7.112   5.276   7.672 -2.7645 -1.0627  0.5556
   44MOL   H20314909   6.940   5.091   7.610 -1.0883 -1.1488 -0.8205
   44MOL   H20414910   6.904   5.036   7.373  0.6360 -1.0827  1.8342
   44MOL   H20514911   7.033   5.163   7.188  2.2350 -0.6899  0.1304
   44MOL   C20614912   7.107   5.469   7.081  0.0964  0.3631  0.3121
   44MOL   C20714913   6.986   5.454   6.979 -0.4260  0.7183  0.6056
   44MOL   C20814914   7.025   5.433   6.833 -0.7925 -0.7634 -0.5015
   44MOL   C20914915   7.123   5.517   6.776  0.2638  0.1654  0.3865
   44MOL   C21014916   7.156   5.514   6.636  0.7543 -0.0259  0.1795
   44MOL   C21114917   7.091   5.414   6.555 -0.2592  0.0126 -0.0096
   44MOL   C21214918   7.009   5.318   6.620  0.0639 -0.0378 -0.2413
   44MOL   C21314919   6.978   5.332   6.756  0.6820  0.5497  0.1204
   44MOL   O21414920   6.920   5.572   7.001  0.4431  0.3179  0.3627
   44MOL   H21514921   7.048   5.484   7.171 -0.0152  0.2255  0.2616
   44MOL   H21614922   7.175   5.553   7.061  0.4770  0.1671  0.7674
   44MOL   H21714923   6.922   5.374   7.015  0.8226  0.1898  1.6964
   44MOL   H21814924   7.163   5.587   6.848 -0.3710 -0.9231  1.7928
   44MOL   H21914925   7.228   5.587   6.602 -1.3341  1.0709 -2.0930
   44MOL   H22014926   7.116   5.401   6.450 -1.0518 -0.6142 -0.1271
   44MOL   H22114927   6.945   5.260   6.555  1.0003 -0.8504 -0.4502
   44MOL   H22214928   6.904   5.265   6.799 -0.5533  1.6896 -0.2125
   44MOL   C22314929   6.786   5.569   6.962  0.1908  0.3610 -0.0455
   44MOL   C22414930   6.733   5.711   6.956  1.1745  0.1526 -0.5097
   44MOL   C22514931   6.770   5.788   7.084 -0.2186  0.0664 -1.2196
   44MOL   C22614932   6.893   5.862   7.081 -0.0705  0.9732  0.6022
   44MOL   C22714933   6.930   5.928   7.203  0.0948  0.0081  0.4430
   44MOL   C22814934   6.850   5.905   7.314 -0.4207  0.6223 -0.2329
   44MOL   C22914935   6.728   5.848   7.307  0.3045 -0.3744 -0.6119
   44MOL   C23014936   6.686   5.781   7.193  0.3493 -0.1056 -0.0417
   44MOL   O23114937   6.772   5.780   6.840 -0.6398  0.0911  0.4521
   44MOL   H23214938   6.776   5.512   6.869 -0.2552  0.7003 -0.2084
   44MOL   H23314939   6.734   5.504   7.032  0.1373 -1.0357 -1.3391
   44MOL   H23414940   6.624   5.710   6.957  1.1826 -0.3818  1.0208
   44MOL   H23514941   6.962   5.861   6.998 -2.3365  0.8470 -1.3327
   44MOL   H23614942   7.028   5.973   7.210  1.2550 -2.3147 -0.3552
   44MOL   H23714943   6.888   5.957   7.401 -0.3677  2.4867 -1.3316
   44MOL   H23814944   6.668   5.826   7.394 -3.5043  0.6432 -2.8713
   44MOL   H23914945   6.598   5.717   7.188  0.3104  0.0287 -1.1560
   44MOL   C24014946   6.685   5.866   6.770  0.5548  0.3206 -0.1919
   44MOL   C24114947   6.766   5.937   6.656 -0.0555 -1.0579 -0.9042
   44MOL   C24214948   6.763   5.860   6.528  0.2679 -0.1649  0.3413
   44MOL   C24314949   6.845   5.746   6.507  0.1453 -0.7400 -0.3979
   44MOL   C24414950   6.828   5.662   6.396  0.2137 -0.0198 -0.2239
   44MOL   C24514951   6.727   5.694   6.308 -0.1204  0.1164 -0.4909
   44MOL   C24614952   6.634   5.800   6.328 -0.6400  0.0210  0.1734
   44MOL   C24714953   6.656   5.879   6.441  0.8963  0.2549 -0.3965
   44MOL   O24814954   6.714   6.068   6.629 -0.6780 -0.6296 -0.1337
   44MOL   H24914955   6.617   5.799   6.717 -0.3343  2.5742 -1.9833
   44MOL   H25014956   6.630   5.931   6.839 -0.4216  2.2544 -2.7047
   44MOL   H25114957   6.871   5.948   6.684 -0.3427  2.6224 -1.0777
   44MOL   H25214958   6.923   5.726   6.580 -0.5948 -2.5829 -0.0734
   44MOL   H25314959   6.887   5.571   6.391 -0.2603 -0.2553 -1.8271
   44MOL   H25414960   6.714   5.628   6.223  0.0135 -2.0918  1.1550
   44MOL   H25514961   6.542   5.810   6.271 -1.1337 -2.3644  0.5185
   44MOL   H25614962   6.589   5.962   6.458  0.6541 -0.0078 -0.0657
   44MOL   C25714963   6.799   6.163   6.556  0.3418  0.1806 -0.4985
   44MOL   C25814964   6.802   6.308   6.614 -0.1587 -0.2933  0.2609
   44MOL   C25914965   6.792   6.313   6.766  0.0644 -0.3691  0.1652
   44MOL   C26014966   6.727   6.422   6.828 -0.3049  0.5681  0.3950
   44MOL   C26114967   6.728   6.437   6.962 -0.8365 -0.0742  0.0657
   44MOL   C26214968   6.795   6.350   7.051  0.0050  0.6734 -0.1263
   44MOL   C26314969   6.857   6.232   6.992  0.3328 -0.4792  0.2123
   44MOL   C26414970   6.856   6.222   6.851 -0.0943 -0.0605  0.3370
   44MOL   O26514971   6.694   6.371   6.552 -0.3883  0.4754 -0.7911
   44MOL   H26614972   6.785   6.163   6.448  1.0364 -0.0428 -0.5958
   44MOL   H26714973   6.902   6.126   6.559  0.6697  1.1707  1.8977
   44MOL   H26814974   6.895   6.363   6.599 -0.8609  1.0675  0.8142
   44MOL   H26914975   6.686   6.503   6.770  0.2059  0.9679  0.5913
   44MOL   H27014976   6.689   6.526   7.010  1.8988  0.9276  0.5285
   44MOL   H27114977   6.779   6.357   7.158  0.5666 -1.0254  0.0764
   44MOL   H27214978   6.914   6.164   7.054  2.9143 -1.0003 -2.6423
   44MOL   H27314979   6.913   6.137   6.817  0.0573  0.8254 -1.7231
   44MOL   C27414980   6.727   6.487   6.468 -0.3084  0.4000  0.0879
   44MOL   C27514981   6.598   6.573   6.435 -0.2008  0.3687  0.7922
   44MOL   C27614982   6.518   6.619   6.549 -0.2673 -0.1471 -0.0995
   44MOL   C27714983   6.498   6.759   6.578  0.6183  0.3431 -0.3395
   44MOL   C27814984   6.407   6.795   6.679  0.4928 -0.1251  0.1818
   44MOL   C27914985   6.346   6.694   6.756  0.0490  0.0182 -0.8335
   44MOL   C28014986   6.366   6.559   6.729 -0.6840  0.0416  1.1063
   44MOL   C28114987   6.450   6.519   6.625 -0.4335  0.3554  0.6852
   44MOL   O28214988   6.508   6.495   6.353  0.1063 -0.3900 -0.2543
   44MOL   H28314989   6.788   6.556   6.527 -0.0425 -0.5903  0.9719
   44MOL   H28414990   6.788   6.454   6.384 -0.7187  0.5436 -0.2708
   44MOL   H28514991   6.636   6.656   6.376  0.2094 -0.6427 -0.4017
   44MOL   H28614992   6.550   6.825   6.511  3.2512 -1.1357  0.1848
   44MOL   H28714993   6.387   6.900   6.695 -3.0937 -0.5886 -0.7890
   44MOL   H28814994   6.279   6.718   6.838 -0.1540 -2.0190 -0.3804
   44MOL   H28914995   6.306   6.493   6.790  0.7565 -1.9133  0.4604
   44MOL   H29014996   6.462   6.418   6.590  0.9645  0.7847 -0.1065
   44MOL   C29114997   6.421   6.580   6.276  0.4676  0.0065 -0.0759
   44MOL   C29214998   6.293   6.505   6.227  0.0376 -0.4489 -0.4953
   44MOL   C29314999   6.170   6.600   6.204 -0.5012 -0.0471  0.2114
   44MOL   C29415000   6.131   6.636   6.075  0.2406 -0.6331  0.5749
   44MOL   C29515001   6.013   6.708   6.051  0.0361 -0.1527  0.9083
   44MOL   C29615002   5.937   6.755   6.164 -0.0947 -0.5682 -0.2824
   44MOL   C29715003   5.978   6.731   6.298  0.2884 -0.4707  0.2287
   44MOL   C29815004   6.093   6.647   6.316  0.2952 -0.1034 -0.1475
   44MOL   O29915005   6.317   6.419   6.123  0.5753  0.0144  0.0933
   44MOL   H30015006   6.478   6.628   6.196  0.1025  0.9551  0.2226
   44MOL   H30115007   6.390   6.664   6.338  0.5718 -0.1784  0.2238
   44MOL   H30215008   6.265   6.444   6.313 -0.5992  0.2842 -0.1706
   44MOL   H30315009   6.183   6.586   5.994  0.1844  0.4472 -0.1358
   44MOL   H30415010   5.956   6.724   5.961 -1.5163 -0.8784  1.7426
   44MOL   H30515011   5.841   6.800   6.145  0.4791  1.8828  2.1754
   44MOL   H30615012   5.925   6.778   6.380  0.9593  2.9358 -1.2189
   44MOL   H30715013   6.129   6.626   6.416 -0.0348 -0.3630 -0.0824
   44MOL   C30815014   6.220   6.313   6.103  0.1269  0.0820  0.3659
   44MOL   C30915015   6.261   6.239   5.974  0.0480 -0.1942 -0.8172
   44MOL   C31015016   6.203   6.100   5.983  0.4302 -0.0200 -0.2793
   44MOL   C31115017   6.065   6.083   5.999  0.2938  0.6435 -0.5517
   44MOL   C31215018   6.012   5.958   6.022 -0.3526 -0.0737 -0.1255
   44MOL   C31315019   6.093   5.846   6.015 -1.1799 -0.6514 -0.0044
   44MOL   C31415020   6.234   5.859   6.000 -0.6701  0.5277  0.0407
   44MOL   C31515021   6.288   5.988   5.978  0.1513 -0.3748 -0.1941
   44MOL   O31615022   6.214   6.312   5.863  0.5478 -0.4678 -0.1322
   44MOL   H31715023   6.117   6.348   6.100  0.5842  1.4227 -0.2208
   44MOL   H31815024   6.225   6.254   6.194  2.1764 -1.1807 -0.5077
   44MOL   H31915025   6.370   6.239   5.970  0.1628  1.6817  1.6023
   44MOL   H32015026   6.004   6.173   6.003 -0.9844 -0.2735  0.9257
   44MOL   H32115027   5.908   5.949   6.051  0.0636 -0.3944  1.2869
   44MOL   H32215028   6.049   5.751   6.040  0.0641 -1.6160 -1.4176
   44MOL   H32315029   6.291   5.768   5.998  1.6856  1.9476  0.9533
   44MOL   H32415030   6.395   5.997   5.975  0.2024 -1.3651 -2.2873
   44MOL   C32515031   6.257   6.255   5.738  0.0083  0.0375 -0.1571
   44MOL   C32615032   6.281   6.363   5.632  0.8808  0.3519  0.4129
   44MOL   C32715033   6.174   6.465   5.624  0.8058 -0.1141 -0.4610
   44MOL   C32815034   6.184   6.582   5.705 -0.1127 -0.1120  0.0508
   44MOL   C32915035   6.082   6.681   5.692  0.0169 -0.5615 -0.7724
   44MOL   C33015036   5.967   6.659   5.610  0.0642  0.4611  0.3370
   44MOL   C33115037   5.955   6.538   5.540  1.0451  0.2194 -0.7704
   44MOL   C33215038   6.061   6.442   5.543  0.5608 -0.4983  0.4097
   44MOL   O33315039   6.408   6.424   5.656 -0.0852  0.4551 -0.3390
   44MOL   H33415040   6.176   6.191   5.704  0.1274  0.8745 -2.0893
   44MOL   H33515041   6.342   6.186   5.739  1.4159  1.7195  1.7639
   44MOL   H33615042   6.287   6.319   5.533 -2.2037  1.4255 -0.2997
   44MOL   H33715043   6.275   6.592   5.762  1.2617 -0.6892 -1.9834
   44MOL   H33815044   6.098   6.772   5.748 -0.7688 -0.5558 -0.5465
   44MOL   H33915045   5.894   6.739   5.611 -0.6362 -0.1895  0.6609
   44MOL   H34015046   5.867   6.511   5.484  0.5825 -1.0304  0.5122
   44MOL   H34115047   6.051   6.355   5.479  1.8386  0.0954 -0.6408
   44MOL   H34215048   6.402   6.468   5.740  1.2289 -0.2222  0.1277
   45MOL     C115049   3.329   1.592   1.944  0.7907 -0.4181  0.0753
   45MOL     C215050   3.431   1.529   1.845  0.7237  0.1364  0.0698
   45MOL     C315051   3.400   1.379   1.825  1.4393 -0.8756 -0.4968
   45MOL     C415052   3.395   1.331   1.695 -0.3709  0.4479  0.1759
   45MOL     C515053   3.384   1.191   1.678  0.5760 -1.2476  0.2477
   45MOL     C615054   3.357   1.106   1.786  0.5699 -0.5796  0.4861
   45MOL     C715055   3.356   1.162   1.915  0.6691  0.5083 -0.1950
   45MOL     C815056   3.382   1.297   1.933  0.1187  0.2190 -0.8348
   45MOL     O915057   3.563   1.552   1.907  0.2859  0.1790  0.1740
   45MOL    H1015058   3.355   1.566   2.046  0.4304 -0.7682  0.0827
   45MOL    H1115059   3.318   1.700   1.938  0.4675 -0.4221  0.5850
   45MOL    H1215060   3.415   1.580   1.751 -0.0185 -0.2299 -0.0104
   45MOL    H1315061   3.412   1.396   1.610  1.0780 -1.3375 -0.9422
   45MOL    H1415062   3.402   1.162   1.575  2.6259 -0.5290  0.3981
   45MOL    H1515063   3.355   1.000   1.769  1.4274 -0.7057  1.1684
   45MOL    H1615064   3.337   1.096   1.999  2.2415  1.0206  0.5709
   45MOL    H1715065   3.387   1.336   2.034 -0.6434  0.0620 -0.7387
   45MOL    H1815066   3.232   1.549   1.916 -0.8526 -0.1623  4.9983
   45MOL    C1915067   3.671   1.574   1.816  0.4170  0.5917 -0.5714
   45MOL    C2015068   3.742   1.440   1.778 -0.4082 -0.9094 -0.0237
   45MOL    C2115069   3.777   1.356   1.900 -0.5657 -0.4185  0.4523
   45MOL    C2215070   3.713   1.232   1.923  0.5070 -0.0503 -0.4497
   45MOL    C2315071   3.752   1.149   2.033 -0.1520  0.2842 -1.2130
   45MOL    C2415072   3.853   1.198   2.124 -0.5958 -0.4913  0.9935
   45MOL    C2515073   3.909   1.325   2.099  0.0085 -0.3702 -0.5562
   45MOL    C2615074   3.880   1.406   1.988 -0.3027  0.1225  0.2418
   45MOL    O2715075   3.859   1.477   1.706  0.1911 -0.4712 -0.2058
   45MOL    H2815076   3.645   1.639   1.733  3.8025  1.9332 -0.6793
   45MOL    H2915077   3.748   1.630   1.871 -0.4781  1.1775  0.0988
   45MOL    H3015078   3.676   1.378   1.718 -0.0112 -0.2720 -1.1290
   45MOL    H3115079   3.634   1.201   1.857  0.1957  0.9548 -0.5549
   45MOL    H3215080   3.704   1.054   2.054 -0.8349  0.4012 -2.1950
   45MOL    H3315081   3.879   1.152   2.218  0.8592 -0.1824  0.7587
   45MOL    H3415082   3.984   1.360   2.169 -0.4293  1.8829 -1.1797
   45MOL    H3515083   3.929   1.502   1.978 -1.3021  0.7940  1.4843
   45MOL    C3615084   3.934   1.381   1.638  0.5776 -0.4689  0.0535
   45MOL    C3715085   4.039   1.454   1.548 -0.0360  0.5093 -0.0616
   45MOL    C3815086   4.045   1.399   1.405 -0.1150 -0.1461  0.3079
   45MOL    C3915087   4.102   1.268   1.389 -0.3319 -0.0770  0.3448
   45MOL    C4015088   4.104   1.209   1.260  0.2963  0.3045 -0.2013
   45MOL    C4115089   4.045   1.280   1.151 -0.3006  0.0719  0.7964
   45MOL    C4215090   3.993   1.411   1.166  0.5839 -0.3389  0.3240
   45MOL    C4315091   3.995   1.471   1.296  0.3922 -0.0166  0.3298
   45MOL    O4415092   4.166   1.445   1.615  0.1672 -0.1889 -0.4319
   45MOL    H4515093   3.989   1.322   1.712 -2.0295 -1.7526  1.0442
   45MOL    H4615094   3.873   1.312   1.580 -1.3393  1.2037  0.0427
   45MOL    H4715095   4.016   1.561   1.555  0.4224  0.5240  1.5189
   45MOL    H4815096   4.139   1.210   1.473 -0.7556 -2.1706 -0.8580
   45MOL    H4915097   4.152   1.113   1.250  0.5422  0.3030  0.8613
   45MOL    H5015098   4.040   1.233   1.054  0.2868 -1.9012  1.6997
   45MOL    H5115099   3.951   1.463   1.081  1.8274  0.2564  0.0621
   45MOL    H5215100   3.967   1.574   1.309  1.9734  0.8258 -2.3543
   45MOL    C5315101   4.265   1.540   1.574 -0.1487 -0.0842 -0.2894
   45MOL    C5415102   4.404   1.476   1.616  0.4088  0.1386 -0.7854
   45MOL    C5515103   4.440   1.358   1.531  0.0394  0.1535  0.0514
   45MOL    C5615104   4.449   1.224   1.575 -0.3890 -0.0581  0.6350
   45MOL    C5715105   4.494   1.127   1.484  0.0254  0.3649 -0.5627
   45MOL    C5815106   4.538   1.162   1.352 -0.2198  0.1741 -0.5817
   45MOL    C5915107   4.528   1.297   1.309  0.2454  0.1400  0.5366
   45MOL    C6015108   4.467   1.387   1.396  0.1299 -0.2798  0.2862
   45MOL    O6115109   4.502   1.573   1.648  0.1532  0.7157  0.4094
   45MOL    H6215110   4.248   1.568   1.471 -2.5133 -0.2617  0.0344
   45MOL    H6315111   4.260   1.630   1.635 -1.6372 -1.9191  2.4316
   45MOL    H6415112   4.387   1.432   1.714  0.7867 -1.2585 -1.3296
   45MOL    H6515113   4.413   1.200   1.674 -2.5495  0.0823 -0.0862
   45MOL    H6615114   4.488   1.025   1.519  0.0960 -0.0748 -1.8001
   45MOL    H6715115   4.572   1.086   1.283 -0.2411  0.4293 -0.8713
   45MOL    H6815116   4.561   1.329   1.211  0.9203 -1.7814  0.1196
   45MOL    H6915117   4.470   1.488   1.357  0.2794 -1.4636 -2.9570
   45MOL    C7015118   4.603   1.512   1.730  0.0552 -0.0699  0.4151
   45MOL    C7115119   4.741   1.552   1.679  0.1943 -0.1516 -0.2102
   45MOL    C7215120   4.833   1.427   1.681  0.5868 -0.6491  0.2095
   45MOL    C7315121   4.834   1.340   1.570  0.3118  0.7950  0.1750
   45MOL    C7415122   4.931   1.239   1.565  0.2071 -0.1991  0.4000
   45MOL    C7515123   5.019   1.219   1.673  0.1804 -0.5299 -0.1161
   45MOL    C7615124   5.007   1.301   1.788  0.2141  0.6121  0.5767
   45MOL    C7715125   4.910   1.401   1.797 -0.3641  0.1040 -0.0663
   45MOL    O7815126   4.789   1.640   1.769  0.5035 -0.1091  0.4306
   45MOL    H7915127   4.592   1.534   1.836 -0.6566  1.3574  0.0551
   45MOL    H8015128   4.595   1.403   1.726 -2.7196  0.1603 -1.8019
   45MOL    H8115129   4.733   1.592   1.578 -2.7016 -0.8831 -0.3269
   45MOL    H8215130   4.766   1.363   1.489  0.1439 -2.7631 -0.7551
   45MOL    H8315131   4.936   1.163   1.488  1.9918 -0.5424  0.8353
   45MOL    H8415132   5.089   1.138   1.658  0.1987 -0.2173 -1.8816
   45MOL    H8515133   5.078   1.283   1.867 -2.4921 -1.9413  2.5422
   45MOL    H8615134   4.917   1.473   1.877  1.2860 -0.7489  0.5856
   45MOL    C8715135   4.764   1.777   1.733 -0.2969 -0.3035 -0.6700
   45MOL    C8815136   4.801   1.876   1.843  1.0884  0.2525  0.3379
   45MOL    C8915137   4.739   2.022   1.830 -0.3982 -0.1592 -0.0586
   45MOL    C9015138   4.812   2.140   1.842  0.4215  0.6977 -0.2997
   45MOL    C9115139   4.755   2.271   1.831 -0.6494 -0.3507 -0.5370
   45MOL    C9215140   4.618   2.274   1.808  0.3471 -0.9170 -0.6122
   45MOL    C9315141   4.536   2.161   1.802 -0.9376  0.6904 -0.0450
   45MOL    C9415142   4.598   2.031   1.812  0.3997 -0.1878 -0.0225
   45MOL    O9515143   4.944   1.883   1.855 -0.6627 -0.0601  0.2364
   45MOL    H9615144   4.664   1.794   1.692  0.0868  1.6656 -0.8096
   45MOL    H9715145   4.830   1.804   1.650 -0.2435  0.2075 -0.4614
   45MOL    H9815146   4.741   1.844   1.928 -2.0112  1.0406 -1.4684
   45MOL    H9915147   4.916   2.139   1.871  0.1815 -1.7777  0.5335
   45MOL   H10015148   4.808   2.363   1.849 -0.1544 -0.7565  0.1179
   45MOL   H10115149   4.570   2.371   1.808  0.1865 -0.9978  0.8445
   45MOL   H10215150   4.430   2.172   1.785 -0.7840  0.6117 -1.0888
   45MOL   H10315151   4.544   1.938   1.804  2.1289 -1.0479 -2.2484
   45MOL   C10415152   4.986   1.829   1.984 -0.4302  0.3514  0.8428
   45MOL   C10515153   5.137   1.822   1.998  0.5793  0.8426  0.4519
   45MOL   C10615154   5.195   1.969   1.983  0.1510  0.3282  0.2325
   45MOL   C10715155   5.258   2.009   1.865 -0.4674 -0.0982 -0.0718
   45MOL   C10815156   5.308   2.145   1.855 -0.0599  0.0544  0.4704
   45MOL   C10915157   5.293   2.229   1.971 -0.0225 -0.0484 -0.3048
   45MOL   C11015158   5.218   2.191   2.082 -0.4243 -0.5948  0.1270
   45MOL   C11115159   5.173   2.060   2.081  0.2541 -0.7758  0.5297
   45MOL   O11215160   5.164   1.781   2.134  0.0501 -0.4502  0.3636
   45MOL   H11315161   4.937   1.889   2.061 -1.7470  1.4313 -0.7804
   45MOL   H11415162   4.962   1.723   1.991  1.4179 -0.1978 -0.7054
   45MOL   H11515163   5.174   1.762   1.914  4.2359  1.3076  1.6250
   45MOL   H11615164   5.281   1.946   1.781  0.7329  0.1075  0.0805
   45MOL   H11715165   5.366   2.185   1.773 -1.5765  0.7358 -0.2957
   45MOL   H11815166   5.334   2.329   1.971  0.6883 -0.3363 -0.0833
   45MOL   H11915167   5.202   2.260   2.163  0.7154  0.0134 -0.1584
   45MOL   H12015168   5.103   2.039   2.162 -0.3921 -2.4091 -0.4322
   45MOL   C12115169   5.294   1.725   2.161  0.9995  0.2649 -0.2669
   45MOL   C12215170   5.313   1.710   2.309  0.2858 -0.1983  0.0845
   45MOL   C12315171   5.291   1.835   2.385  0.2590  0.2813 -0.3361
   45MOL   C12415172   5.405   1.911   2.432 -0.3033  0.3504 -0.0807
   45MOL   C12515173   5.395   2.028   2.502 -0.4436  0.3436  0.1002
   45MOL   C12615174   5.267   2.081   2.524  0.4625 -0.3207 -0.9011
   45MOL   C12715175   5.156   2.010   2.486 -0.1666 -0.0199 -0.1672
   45MOL   C12815176   5.164   1.890   2.416  0.0458  0.1853  0.5967
   45MOL   O12915177   5.224   1.603   2.346  0.8159 -0.5099 -0.1390
   45MOL   H13015178   5.364   1.799   2.123 -0.2946  0.5546 -2.1891
   45MOL   H13115179   5.300   1.635   2.100  0.2075 -0.7413  1.1047
   45MOL   H13215180   5.414   1.676   2.331  0.4391  1.6110  2.3792
   45MOL   H13315181   5.505   1.870   2.419  0.5711  1.8974  1.5182
   45MOL   H13415182   5.480   2.079   2.545 -1.7356  1.4551  1.4317
   45MOL   H13515183   5.265   2.178   2.570  0.8387  0.2067 -1.9821
   45MOL   H13615184   5.058   2.051   2.503  0.0540  0.2292  0.5512
   45MOL   H13715185   5.076   1.834   2.388 -0.3964  1.9202 -1.6818
   45MOL   C13815186   5.252   1.546   2.471  0.8521  0.3114 -0.0849
   45MOL   C13915187   5.149   1.453   2.536 -0.2060 -0.5208 -1.0653
   45MOL   C14015188   5.215   1.384   2.656  0.3136 -0.8156 -0.0311
   45MOL   C14115189   5.208   1.437   2.792 -0.7881 -0.2257 -0.2756
   45MOL   C14215190   5.274   1.365   2.892 -0.6246 -0.5481  0.2981
   45MOL   C14315191   5.329   1.232   2.872 -0.1564 -0.1429 -0.4673
   45MOL   C14415192   5.326   1.184   2.739 -1.0830 -0.1364  0.0616
   45MOL   C14515193   5.263   1.252   2.634 -0.1018 -0.1200  0.2427
   45MOL   O14615194   5.028   1.525   2.563  0.0722 -0.0047 -0.3935
   45MOL   H14715195   5.280   1.614   2.551  0.1058  2.8367 -1.9119
   45MOL   H14815196   5.344   1.489   2.452 -0.8986 -2.5535 -0.3548
   45MOL   H14915197   5.130   1.378   2.459  0.9645 -0.8409 -1.0461
   45MOL   H15015198   5.154   1.529   2.814 -3.5193 -2.0092  0.8116
   45MOL   H15115199   5.261   1.421   2.984  1.3009 -1.5138  1.1818
   45MOL   H15215200   5.388   1.191   2.952 -1.9798 -0.5600  0.7071
   45MOL   H15315201   5.370   1.089   2.715  0.7641  0.6348  0.2769
   45MOL   H15415202   5.279   1.224   2.531  1.3429  0.9775  0.1573
   45MOL   C15515203   4.922   1.449   2.614 -0.7094 -0.5720  0.3959
   45MOL   C15615204   4.790   1.536   2.615 -0.0356 -0.6664  0.9904
   45MOL   C15715205   4.738   1.576   2.475  0.3042  0.7105  0.5650
   45MOL   C15815206   4.616   1.532   2.422  0.0937  0.4302  0.2383
   45MOL   C15915207   4.569   1.570   2.292 -0.4139 -0.6879 -0.2592
   45MOL   C16015208   4.649   1.651   2.211  0.1448 -0.1413  0.0512
   45MOL   C16115209   4.776   1.694   2.255  0.7416  0.0673 -0.1331
   45MOL   C16215210   4.817   1.658   2.385  0.4429 -0.0572 -0.0908
   45MOL   O16315211   4.699   1.475   2.696  0.4947 -0.5800 -0.2711
   45MOL   H16415212   4.936   1.404   2.712 -2.8935 -1.9811  0.1159
   45MOL   H16515213   4.914   1.363   2.547  2.6612 -0.5847 -0.0501
   45MOL   H16615214   4.809   1.635   2.657  0.5972 -0.5040  0.3374
   45MOL   H16715215   4.563   1.462   2.484 -0.7850  0.1445 -0.8070
   45MOL   H16815216   4.476   1.530   2.254 -0.3166  1.0251 -2.3951
   45MOL   H16915217   4.611   1.672   2.113 -0.1997 -0.3856  0.1339
   45MOL   H17015218   4.834   1.757   2.189  3.9863 -0.3803  2.1631
   45MOL   H17115219   4.914   1.688   2.420 -0.7025  2.3052  1.1872
   45MOL   C17215220   4.717   1.486   2.837 -0.1662 -0.1844 -0.4614
   45MOL   C17315221   4.594   1.497   2.917  0.2383  0.1520  0.5710
   45MOL   C17415222   4.498   1.383   2.896 -0.8759  0.6368  0.5264
   45MOL   C17515223   4.416   1.379   2.777  0.1693  0.7200 -0.0163
   45MOL   C17615224   4.319   1.283   2.758  0.1672  0.4120 -0.1790
   45MOL   C17715225   4.305   1.186   2.859 -0.3219 -0.4077  0.0840
   45MOL   C17815226   4.384   1.184   2.974  0.4396  0.1919  0.7213
   45MOL   C17915227   4.481   1.283   2.992 -0.2185  0.5072  0.2008
   45MOL   O18015228   4.525   1.622   2.885  0.8683  0.1111  0.1053
   45MOL   H18115229   4.764   1.394   2.873 -0.9911 -0.5114 -0.2079
   45MOL   H18215230   4.781   1.571   2.862  0.8835 -1.1423  0.1444
   45MOL   H18315231   4.616   1.497   3.024 -0.2024  1.1656  0.6690
   45MOL   H18415232   4.446   1.458   2.710  2.5825 -0.9174 -0.9253
   45MOL   H18515233   4.254   1.284   2.672  1.6157 -0.4249 -1.2909
   45MOL   H18615234   4.232   1.110   2.839 -0.5548  0.1544 -1.2259
   45MOL   H18715235   4.384   1.099   3.041 -0.8570 -0.2826  0.1458
   45MOL   H18815236   4.538   1.283   3.084 -1.5742  0.3662  1.0493
   45MOL   C18915237   4.558   1.729   2.972  0.0425  0.1024 -0.1261
   45MOL   C19015238   4.530   1.866   2.908 -0.3053  0.1053  0.3660
   45MOL   C19115239   4.611   1.883   2.783  1.2086  0.1931 -0.0647
   45MOL   C19215240   4.549   1.875   2.657  0.3673  0.5904  0.3969
   45MOL   C19315241   4.623   1.896   2.537 -1.1360  0.3711  0.4661
   45MOL   C19415242   4.763   1.930   2.553 -0.6418  0.6646  0.0367
   45MOL   C19515243   4.825   1.944   2.681  0.3810 -0.2817 -0.3511
   45MOL   C19615244   4.749   1.919   2.797  0.4576  0.3294 -0.1555
   45MOL   O19715245   4.545   1.973   3.004 -0.4246 -0.3826 -0.2129
   45MOL   H19815246   4.495   1.725   3.061 -1.0015 -1.3385 -0.9042
   45MOL   H19915247   4.658   1.732   3.015 -0.8170  0.2884  1.9499
   45MOL   H20015248   4.424   1.874   2.881 -0.4528  0.5374  1.0631
   45MOL   H20115249   4.446   1.846   2.645  0.6759 -0.1480 -0.5470
   45MOL   H20215250   4.580   1.868   2.442 -0.5118 -1.7069  0.7701
   45MOL   H20315251   4.821   1.940   2.463 -2.5957  0.9221 -1.2409
   45MOL   H20415252   4.929   1.967   2.697 -0.1286 -0.0006  2.8188
   45MOL   H20515253   4.802   1.922   2.891  2.5647  1.2971 -1.3236
   45MOL   C20615254   4.516   2.104   2.956  0.1090  0.2143 -0.3551
   45MOL   C20715255   4.489   2.195   3.075 -0.0430  0.2976  0.4474
   45MOL   C20815256   4.387   2.304   3.032 -0.3326  0.6906 -0.3233
   45MOL   C20915257   4.437   2.400   2.941  0.2431 -0.6595 -0.5604
   45MOL   C21015258   4.360   2.508   2.897 -0.6782 -0.7271 -0.1914
   45MOL   C21115259   4.223   2.508   2.931  0.3827  0.7057  0.2635
   45MOL   C21215260   4.169   2.417   3.023  0.3075 -0.0474  0.1810
   45MOL   C21315261   4.251   2.318   3.078 -0.1891  0.3740 -0.3052
   45MOL   O21415262   4.606   2.265   3.113 -0.1446 -0.0840 -0.7019
   45MOL   H21515263   4.598   2.142   2.895  0.9098 -1.1922 -0.1755
   45MOL   H21615264   4.422   2.097   2.902 -0.4154  0.0435  0.5752
   45MOL   H21715265   4.445   2.143   3.160  0.8001 -2.6508 -0.8882
   45MOL   H21815266   4.537   2.388   2.901 -0.6622  1.8836 -3.7473
   45MOL   H21915267   4.398   2.577   2.823  1.7562 -0.3864  1.2908
   45MOL   H22015268   4.164   2.588   2.889 -0.6800  0.5522  1.4536
   45MOL   H22115269   4.073   2.440   3.065 -0.0839  0.2094 -0.8305
   45MOL   H22215270   4.233   2.263   3.169 -0.1546  0.3220 -0.3304
   45MOL   C22315271   4.708   2.194   3.191 -0.0061 -0.5535 -0.1281
   45MOL   C22415272   4.848   2.263   3.186 -0.3221  0.5104 -0.2311
   45MOL   C22515273   4.898   2.273   3.040  0.3775  1.3271  0.7412
   45MOL   C22615274   4.853   2.378   2.962  0.3642 -0.0190 -0.3170
   45MOL   C22715275   4.895   2.385   2.826 -0.0881  0.1824 -0.0165
   45MOL   C22815276   4.971   2.279   2.772  0.6085 -0.1738  0.1266
   45MOL   C22915277   5.009   2.171   2.851  0.4377  0.2842 -0.6808
   45MOL   C23015278   4.977   2.172   2.988 -0.5459  0.3450 -0.0688
   45MOL   O23115279   4.843   2.383   3.256 -0.6363  0.7512  0.5040
   45MOL   H23215280   4.663   2.188   3.290  1.4097 -1.2196  0.4975
   45MOL   H23315281   4.719   2.089   3.163  2.1947  0.2547 -2.5480
   45MOL   H23415282   4.915   2.200   3.245 -0.4916  0.9866  0.4818
   45MOL   H23515283   4.777   2.444   3.003 -0.3054 -0.4513 -0.8583
   45MOL   H23615284   4.853   2.457   2.757  0.2863 -0.2362 -0.6961
   45MOL   H23715285   4.993   2.272   2.667 -1.2117 -0.1454 -0.2608
   45MOL   H23815286   5.074   2.095   2.808  0.7683 -0.2109  0.6586
   45MOL   H23915287   4.999   2.087   3.050 -1.6452 -1.8471 -2.6006
   45MOL   C24015288   4.967   2.448   3.291 -0.0591  1.0752 -0.4339
   45MOL   C24115289   4.939   2.540   3.412  0.3183  0.5553  0.1633
   45MOL   C24215290   4.900   2.467   3.543 -0.3831 -0.0890 -0.3053
   45MOL   C24315291   4.778   2.400   3.557 -0.4370 -0.4279  0.6364
   45MOL   C24415292   4.757   2.325   3.674  0.2997 -0.0392 -0.0281
   45MOL   C24515293   4.848   2.325   3.777  0.0276  0.1938  0.7053
   45MOL   C24615294   4.963   2.400   3.768  0.7424 -1.0333  0.6114
   45MOL   C24715295   4.992   2.483   3.654  0.3269  0.2063  0.3563
   45MOL   O24815296   5.054   2.623   3.423  0.4233 -0.4533 -0.3091
   45MOL   H24915297   5.043   2.373   3.308  0.0529  1.1312 -0.6859
   45MOL   H25015298   5.000   2.504   3.203  1.7415 -0.4922 -0.7785
   45MOL   H25115299   4.854   2.597   3.373 -1.3839 -1.8573  0.2492
   45MOL   H25215300   4.708   2.397   3.476 -0.7311  1.3940  0.7955
   45MOL   H25315301   4.664   2.272   3.678 -0.6807  1.6636  0.2257
   45MOL   H25415302   4.814   2.276   3.868 -2.2511  1.3696  0.5229
   45MOL   H25515303   5.018   2.404   3.861  1.6726  0.5502  0.0133
   45MOL   H25615304   5.087   2.534   3.648  0.7015 -0.3984  0.9713
   45MOL   C25715305   5.034   2.755   3.380 -0.1498  0.3862  0.0442
   45MOL   C25815306   5.161   2.841   3.420  0.5487  0.2302  0.1678
   45MOL   C25915307   5.180   2.851   3.569 -1.0064 -0.5458  0.3605
   45MOL   C26015308   5.267   2.765   3.639  0.1651 -0.0417  0.0818
   45MOL   C26115309   5.275   2.777   3.775 -0.5266  0.6699  0.1076
   45MOL   C26215310   5.189   2.869   3.843  0.2188  0.3203 -0.0312
   45MOL   C26315311   5.102   2.953   3.776 -0.4696 -0.2095  0.5066
   45MOL   C26415312   5.105   2.953   3.638  0.7610 -0.2791 -0.4129
   45MOL   O26515313   5.159   2.969   3.357 -0.5372 -0.2578 -0.3744
   45MOL   H26615314   4.945   2.808   3.413 -0.5365  0.4552 -1.0669
   45MOL   H26715315   5.020   2.758   3.272  0.9461 -0.3201 -0.1248
   45MOL   H26815316   5.253   2.789   3.392 -1.3371 -1.6016 -2.9099
   45MOL   H26915317   5.330   2.690   3.593 -1.0735  0.2647 -2.1671
   45MOL   H27015318   5.344   2.710   3.824 -2.4848 -1.0283  0.6063
   45MOL   H27115319   5.208   2.898   3.946  0.7340  2.5669 -0.7351
   45MOL   H27215320   5.042   3.029   3.823 -1.4044 -2.1051  2.4659
   45MOL   H27315321   5.055   3.024   3.575 -0.6722 -0.8159  0.1173
   45MOL   C27415322   5.241   2.976   3.243 -0.8851  0.0286 -0.1437
   45MOL   C27515323   5.234   3.120   3.194  0.3585  0.6144  0.4923
   45MOL   C27615324   5.270   3.137   3.045 -0.1249 -0.0347 -0.3331
   45MOL   C27715325   5.174   3.150   2.938  0.5831  0.3726 -1.1973
   45MOL   C27815326   5.215   3.148   2.803  0.2821 -0.3076 -0.5687
   45MOL   C27915327   5.350   3.132   2.769 -0.5321  0.3248  0.3300
   45MOL   C28015328   5.444   3.115   2.871  0.2317  0.0428 -0.5627
   45MOL   C28115329   5.407   3.122   3.007  0.3619 -0.4426  0.3689
   45MOL   O28215330   5.323   3.199   3.272  0.2497 -0.0280 -0.0253
   45MOL   H28315331   5.347   2.960   3.266 -0.3988  0.7171 -1.8400
   45MOL   H28415332   5.212   2.911   3.161 -2.3091  2.3129 -1.4723
   45MOL   H28515333   5.130   3.149   3.202 -0.3215 -2.0033  1.4855
   45MOL   H28615334   5.072   3.172   2.965 -0.1665 -1.1478 -2.7089
   45MOL   H28715335   5.147   3.163   2.720  1.0440  4.8597 -0.4477
   45MOL   H28815336   5.385   3.136   2.667  1.4970 -0.5410  0.9832
   45MOL   H28915337   5.547   3.093   2.846  0.1947  1.6718 -2.1984
   45MOL   H29015338   5.477   3.088   3.082  2.2982 -1.7327 -1.9464
   45MOL   C29115339   5.274   3.328   3.304  0.2295  0.1202 -0.6302
   45MOL   C29215340   5.386   3.421   3.333 -0.0031  0.6115 -0.2812
   45MOL   C29315341   5.482   3.438   3.219 -0.4751  0.2408 -0.1041
   45MOL   C29415342   5.592   3.348   3.216  0.0598  0.3247  0.1091
   45MOL   C29515343   5.677   3.364   3.109 -0.3800 -0.4900  0.0367
   45MOL   C29615344   5.670   3.467   3.018 -0.8790  0.2676  0.2413
   45MOL   C29715345   5.564   3.562   3.029 -0.7077  0.2523  0.6786
   45MOL   C29815346   5.471   3.551   3.131  0.0809 -0.2560 -0.1413
   45MOL   O29915347   5.328   3.548   3.380  0.2219  0.0502  0.0423
   45MOL   H30015348   5.207   3.322   3.390 -0.1301  0.3544 -0.8945
   45MOL   H30115349   5.209   3.360   3.223 -0.6362 -0.0548 -0.0114
   45MOL   H30215350   5.439   3.379   3.419 -0.6257 -2.6962 -1.4456
   45MOL   H30315351   5.617   3.281   3.297 -0.9444  1.0938  1.0808
   45MOL   H30415352   5.763   3.299   3.098  0.7231 -0.1851  5.2405
   45MOL   H30515353   5.754   3.485   2.952  0.6327 -1.9080  1.4837
   45MOL   H30615354   5.571   3.643   2.958  0.4130  2.1597  2.9247
   45MOL   H30715355   5.382   3.611   3.139  0.5571  0.2451  1.8319
   45MOL   C30815356   5.418   3.622   3.465  0.1046 -0.0347  0.1418
   45MOL   C30915357   5.399   3.581   3.612 -0.6775 -0.6999  0.1262
   45MOL   C31015358   5.263   3.531   3.648 -0.9196  0.3369  0.2932
   45MOL   C31115359   5.239   3.395   3.649  0.5985 -0.3764  1.0175
   45MOL   C31215360   5.121   3.342   3.697 -0.1737 -0.3143 -0.6739
   45MOL   C31315361   5.013   3.425   3.733 -0.3010  0.1266  0.3757
   45MOL   C31415362   5.035   3.563   3.731 -0.0063  0.1957  0.2371
   45MOL   C31515363   5.164   3.619   3.690  0.9283 -0.7070 -0.1709
   45MOL   O31615364   5.496   3.491   3.657 -0.2116 -0.0574 -0.3048
   45MOL   H31715365   5.361   3.713   3.445 -1.0837 -1.3320 -2.7427
   45MOL   H31815366   5.516   3.615   3.418  0.5735  0.8434  0.9589
   45MOL   H31915367   5.399   3.673   3.671  0.0230  0.1900 -1.2352
   45MOL   H32015368   5.324   3.332   3.629  1.4305  0.7480  0.9674
   45MOL   H32115369   5.105   3.236   3.709 -2.3301  0.1089  0.2435
   45MOL   H32215370   4.921   3.389   3.776 -0.9396  1.4101  0.1344
   45MOL   H32315371   4.952   3.629   3.755 -1.8842 -2.1885  0.5321
   45MOL   H32415372   5.185   3.724   3.701  0.4759 -0.7478  1.2253
   45MOL   C32515373   5.589   3.549   3.745 -0.5501  0.6024 -0.2404
   45MOL   C32615374   5.700   3.449   3.780  0.4309 -0.0524 -0.6157
   45MOL   C32715375   5.802   3.455   3.671  0.2303 -0.1506 -0.0615
   45MOL   C32815376   5.919   3.526   3.688  0.6738 -0.5248 -0.0809
   45MOL   C32915377   6.013   3.527   3.592  0.2078 -0.1094  0.2317
   45MOL   C33015378   5.993   3.438   3.481 -0.6293 -0.2365  0.0591
   45MOL   C33115379   5.882   3.361   3.465 -0.5062 -0.3558 -0.1463
   45MOL   C33215380   5.784   3.365   3.561 -0.2307 -0.6024 -0.4201
   45MOL   O33315381   5.757   3.479   3.908  0.3793  0.0401 -0.1355
   45MOL   H33415382   5.532   3.568   3.836  0.0423  2.6266 -0.2765
   45MOL   H33515383   5.625   3.646   3.713 -1.1754  0.9827  0.1982
   45MOL   H33615384   5.646   3.355   3.783 -1.6403  1.0611 -1.7180
   45MOL   H33715385   5.938   3.588   3.775  0.7490 -0.4682 -0.1378
   45MOL   H33815386   6.103   3.585   3.604  0.8451 -0.7854 -1.2457
   45MOL   H33915387   6.078   3.436   3.415 -1.4804  2.6981 -1.2234
   45MOL   H34015388   5.871   3.300   3.376 -1.4704  0.3695 -0.5273
   45MOL   H34115389   5.706   3.291   3.558 -2.0462  1.2458 -0.0826
   45MOL   H34215390   5.696   3.456   3.977  1.9626 -1.9754  0.6562
   46MOL     C115391   1.605   2.598   6.050 -0.2375  0.1273  0.1091
   46MOL     C215392   1.513   2.496   6.122  0.3677 -0.2086 -0.3788
   46MOL     C315393   1.482   2.531   6.267  0.0733 -0.4320  0.1023
   46MOL     C415394   1.348   2.549   6.305 -0.2707 -0.3614  0.2945
   46MOL     C515395   1.308   2.565   6.443  0.0130  0.3265  0.3740
   46MOL     C615396   1.412   2.567   6.539 -0.3733 -0.3943  0.0547
   46MOL     C715397   1.544   2.564   6.502  0.3140 -0.2465  0.8090
   46MOL     C815398   1.576   2.546   6.364 -0.7704 -0.9776 -0.5440
   46MOL     O915399   1.574   2.369   6.113  0.6292 -0.7319  0.2284
   46MOL    H1015400   1.708   2.589   6.085  0.5921  2.2613 -1.6527
   46MOL    H1115401   1.610   2.580   5.943 -0.2066 -0.5825  0.2319
   46MOL    H1215402   1.424   2.500   6.060 -0.4509 -1.2986  0.7138
   46MOL    H1315403   1.266   2.553   6.236  1.1917 -1.7326 -1.5735
   46MOL    H1415404   1.206   2.555   6.477 -0.2975  2.0042 -0.0338
   46MOL    H1515405   1.379   2.580   6.641 -1.6145  1.6334 -0.5807
   46MOL    H1615406   1.626   2.563   6.572  0.1836  2.1947  1.0538
   46MOL    H1715407   1.681   2.534   6.344 -0.8387 -0.1664 -1.4195
   46MOL    H1815408   1.572   2.702   6.058  0.1006  0.4068 -1.9377
   46MOL    C1915409   1.484   2.264   6.139 -0.0410 -0.0560  0.3827
   46MOL    C2015410   1.532   2.125   6.094  0.7602  0.5044 -0.1548
   46MOL    C2115411   1.532   2.117   5.944  0.9073 -0.0394 -0.2342
   46MOL    C2215412   1.636   2.173   5.880 -0.2311 -0.0514  0.3245
   46MOL    C2315413   1.641   2.181   5.736  0.8561  0.1356 -1.3411
   46MOL    C2415414   1.534   2.137   5.661 -0.9927  0.6708 -0.0633
   46MOL    C2515415   1.416   2.094   5.729  0.7121  0.5625 -0.0838
   46MOL    C2615416   1.417   2.087   5.870 -0.5292  0.0760 -0.0222
   46MOL    O2715417   1.440   2.024   6.139  0.1177  0.2267 -0.1284
   46MOL    H2815418   1.483   2.271   6.248 -1.1712  0.7821  0.3192
   46MOL    H2915419   1.385   2.276   6.098 -0.4178  2.2694  1.8829
   46MOL    H3015420   1.628   2.102   6.140  0.7618 -0.5437 -0.6607
   46MOL    H3115421   1.728   2.199   5.930  1.0955 -2.8771 -0.5484
   46MOL    H3215422   1.735   2.217   5.694  2.1766 -0.2912  1.1587
   46MOL    H3315423   1.544   2.143   5.554 -1.1560  0.0803 -0.1147
   46MOL    H3415424   1.339   2.051   5.665  0.5663  0.3832  0.2130
   46MOL    H3515425   1.332   2.039   5.917  0.9224 -0.9200  1.6075
   46MOL    C3615426   1.487   1.930   6.236 -0.1266 -0.2960  0.3545
   46MOL    C3715427   1.372   1.821   6.244  0.5788  0.4786  0.4365
   46MOL    C3815428   1.426   1.701   6.335  0.9070 -0.0110 -0.2209
   46MOL    C3915429   1.407   1.699   6.467  0.2313 -0.2951 -0.1172
   46MOL    C4015430   1.459   1.593   6.546 -0.0057  1.3367 -0.0039
   46MOL    C4115431   1.526   1.486   6.485 -0.3921  0.3148 -0.3925
   46MOL    C4215432   1.538   1.485   6.338  1.1418  0.4807  0.3882
   46MOL    C4315433   1.497   1.599   6.267  0.3578  0.5635 -0.3472
   46MOL    O4415434   1.331   1.789   6.110  0.0083  0.1495 -0.3154
   46MOL    H4515435   1.578   1.884   6.197 -0.0629 -0.5539  0.7993
   46MOL    H4615436   1.503   1.971   6.336  0.8879  0.2023  0.0028
   46MOL    H4715437   1.294   1.861   6.310 -0.3456 -0.1918 -0.2319
   46MOL    H4815438   1.360   1.780   6.520  1.8839  0.1431  0.7182
   46MOL    H4915439   1.445   1.605   6.653 -0.5126 -0.3386  0.1213
   46MOL    H5015440   1.561   1.401   6.541 -0.9279  0.8703  0.7893
   46MOL    H5115441   1.588   1.404   6.286  0.9698  0.4232  0.3143
   46MOL    H5215442   1.522   1.605   6.162  0.8188  0.5414 -0.2393
   46MOL    C5315443   1.203   1.821   6.074  0.6445 -0.7234 -0.3358
   46MOL    C5415444   1.100   1.712   6.117 -0.5220 -0.0782 -0.6596
   46MOL    C5515445   1.133   1.578   6.061  0.3053  0.9050  0.0864
   46MOL    C5615446   1.091   1.540   5.933  0.7683  0.0144 -0.4822
   46MOL    C5715447   1.122   1.410   5.895 -0.3055  0.4588 -0.6408
   46MOL    C5815448   1.195   1.320   5.979  0.0892 -0.1002 -0.2512
   46MOL    C5915449   1.239   1.362   6.099  0.4941 -0.0421 -0.6297
   46MOL    C6015450   1.207   1.490   6.144  0.0978  0.6519 -0.4107
   46MOL    O6115451   1.077   1.712   6.260 -0.2768  0.2297 -0.2753
   46MOL    H6215452   1.168   1.916   6.115 -0.2229 -1.1106 -0.1626
   46MOL    H6315453   1.200   1.830   5.965 -0.1793 -1.7632 -0.4034
   46MOL    H6415454   1.000   1.732   6.076 -1.1763 -0.8601  0.5323
   46MOL    H6515455   1.039   1.603   5.861 -0.8810  0.2650  0.8940
   46MOL    H6615456   1.095   1.366   5.800 -0.3734 -1.0365  0.0578
   46MOL    H6715457   1.207   1.217   5.949  0.1216 -0.0292 -0.4791
   46MOL    H6815458   1.283   1.290   6.167 -1.7649 -0.1512  0.7467
   46MOL    H6915459   1.246   1.525   6.239 -1.9756  1.8330  0.0229
   46MOL    C7015460   0.945   1.657   6.301 -0.3895  0.4219  0.0079
   46MOL    C7115461   0.844   1.769   6.302 -0.2405  0.0265 -0.1786
   46MOL    C7215462   0.844   1.872   6.422 -0.0101  0.2553  0.0576
   46MOL    C7315463   0.745   1.970   6.416 -0.2668  0.4910 -0.2583
   46MOL    C7415464   0.731   2.064   6.521  0.2186 -0.4562  0.6239
   46MOL    C7515465   0.823   2.057   6.628 -0.5262  0.6499 -0.4224
   46MOL    C7615466   0.926   1.964   6.630 -0.3945 -1.0332  0.0022
   46MOL    C7715467   0.940   1.869   6.528  0.6465 -0.5528  0.0516
   46MOL    O7815468   0.715   1.710   6.282  0.8300  0.3744 -0.2592
   46MOL    H7915469   0.906   1.575   6.241  0.5209 -0.0305  0.0231
   46MOL    H8015470   0.957   1.617   6.402 -2.6195  0.0873  0.1579
   46MOL    H8115471   0.877   1.827   6.215 -0.7262 -0.1878 -0.5097
   46MOL    H8215472   0.660   1.963   6.351  0.8532 -0.1312 -1.6721
   46MOL    H8315473   0.661   2.146   6.527  0.8667  0.1094  0.4675
   46MOL    H8415474   0.821   2.135   6.703  0.8498  0.8013 -0.5296
   46MOL    H8515475   0.992   1.963   6.715 -3.8510  2.8313  2.8842
   46MOL    H8615476   1.024   1.801   6.531  0.3056 -1.0866 -1.8067
   46MOL    C8715477   0.668   1.633   6.391  0.0079 -0.3592  0.2563
   46MOL    C8815478   0.525   1.585   6.353  0.5003 -0.8092  0.5213
   46MOL    C8915479   0.500   1.507   6.216  0.0668  0.6496  0.8874
   46MOL    C9015480   0.509   1.367   6.205 -0.5175 -0.3390  0.7397
   46MOL    C9115481   0.477   1.303   6.083 -0.6458 -0.8379 -0.4358
   46MOL    C9215482   0.431   1.376   5.974  0.3159 -0.3927 -0.0065
   46MOL    C9315483   0.428   1.516   5.988  0.0795  0.4225 -0.3027
   46MOL    C9415484   0.456   1.579   6.106  0.1025 -0.3456  0.4122
   46MOL    O9515485   0.447   1.703   6.368  0.1440 -0.0711 -0.3795
   46MOL    H9615486   0.660   1.686   6.486  1.0566 -2.0601  1.3273
   46MOL    H9715487   0.738   1.551   6.408  0.3945  0.2903  1.8037
   46MOL    H9815488   0.500   1.507   6.424 -4.2836  1.5753  1.6204
   46MOL    H9915489   0.544   1.310   6.289  1.7046  0.4694  0.3990
   46MOL   H10015490   0.481   1.195   6.078  1.4860 -0.8570  0.9920
   46MOL   H10115491   0.420   1.329   5.877 -0.9241  0.5775 -0.3487
   46MOL   H10215492   0.391   1.571   5.903  0.5029  0.6975 -0.3125
   46MOL   H10315493   0.439   1.685   6.118  1.5480 -0.1240  0.6528
   46MOL   C10415494   0.318   1.694   6.427  0.1634 -0.3864  0.8806
   46MOL   C10515495   0.233   1.807   6.375 -0.0447 -0.8820 -0.1760
   46MOL   C10615496   0.305   1.941   6.375  0.2219 -0.6586 -0.7059
   46MOL   C10715497   0.370   1.989   6.260 -0.3348  0.9606  0.1253
   46MOL   C10815498   0.407   2.121   6.252  0.5985 -0.1396 -0.5690
   46MOL   C10915499   0.400   2.205   6.365  0.2623 -0.1848 -1.0707
   46MOL   C11015500   0.341   2.158   6.481 -0.2255  0.2248 -0.1492
   46MOL   C11115501   0.284   2.031   6.483  0.3094 -0.9299  0.2432
   46MOL   O11215502   0.174   1.791   6.246  0.0114  0.1555  0.2552
   46MOL   H11315503   0.283   1.595   6.398  0.8752  0.2117 -2.2399
   46MOL   H11415504   0.329   1.684   6.535  1.9208  0.8542  0.8439
   46MOL   H11515505   0.143   1.815   6.436  0.6879 -0.8612  0.9249
   46MOL   H11615506   0.373   1.924   6.173 -2.1446  1.6186 -0.4551
   46MOL   H11715507   0.440   2.169   6.161  0.9622  1.4291  0.3786
   46MOL   H11815508   0.440   2.305   6.361  0.7712 -0.3122  0.4700
   46MOL   H11915509   0.339   2.220   6.570  0.4331 -0.4079  0.3088
   46MOL   H12015510   0.227   2.005   6.571  2.7359 -1.1024  1.8110
   46MOL   C12115511   0.088   1.684   6.233 -0.0279  0.0816 -0.4587
   46MOL   C12215512   8.030   1.721   6.167 -0.0389  0.4244 -0.0058
   46MOL   C12315513   7.983   1.860   6.213  0.2527 -0.1198  0.4522
   46MOL   C12415514   7.962   1.964   6.121  0.0822  1.0787 -0.0753
   46MOL   C12515515   7.910   2.086   6.165 -0.4592 -0.4732  0.1479
   46MOL   C12615516   7.891   2.114   6.303 -0.1302  0.2483 -0.5579
   46MOL   C12715517   7.900   2.005   6.395 -0.2978 -0.2306  0.0128
   46MOL   C12815518   7.945   1.881   6.347  0.5759  0.4438  0.3430
   46MOL   O12915519   8.050   1.725   6.027 -0.4725 -0.0424  0.0518
   46MOL   H13015520   0.057   1.655   6.334  1.1452  1.3704  0.2861
   46MOL   H13115521   0.142   1.604   6.183 -2.2585 -1.4705 -0.4699
   46MOL   H13215522   7.955   1.648   6.197  2.0778 -1.9446 -0.3383
   46MOL   H13315523   7.973   1.944   6.015 -0.8762  0.8414 -0.1318
   46MOL   H13415524   7.916   2.167   6.093  0.0993  0.8428  1.6576
   46MOL   H13515525   7.869   2.214   6.339 -1.6896 -1.0596  2.3265
   46MOL   H13615526   7.887   2.026   6.500 -0.7488 -0.8797  0.0873
   46MOL   H13715527   7.977   1.809   6.422 -0.0883  0.0727  0.2685
   46MOL   C13815528   8.071   1.601   5.956  0.6679 -0.3942  0.1906
   46MOL   C13915529   8.040   1.617   5.807  0.6821 -0.1619 -0.3481
   46MOL   C14015530   0.041   1.506   5.736  1.2162 -0.3488 -0.1721
   46MOL   C14115531   8.060   1.379   5.711 -0.1000 -0.4630  0.9806
   46MOL   C14215532   0.045   1.276   5.654 -0.0777 -0.2223  0.6098
   46MOL   C14315533   0.181   1.296   5.611  0.1026  0.7165 -0.8243
   46MOL   C14415534   0.237   1.417   5.632  0.7796  0.0643  1.2464
   46MOL   C14515535   0.175   1.524   5.696  0.5480  0.3469  0.1878
   46MOL   O14615536   7.895   1.603   5.791 -0.4336 -0.0723 -0.0782
   46MOL   H14715537   8.030   1.508   5.994  2.6475 -1.2464  0.3123
   46MOL   H14815538   0.098   1.584   5.966  1.1723  2.9998  1.3238
   46MOL   H14915539   8.070   1.714   5.766 -0.4257 -0.0802 -0.9771
   46MOL   H15015540   7.959   1.377   5.751 -0.1053  0.2752  1.0110
   46MOL   H15115541   0.015   1.175   5.633  2.0706 -0.6299 -0.7136
   46MOL   H15215542   0.232   1.212   5.567 -0.7282 -1.6331  2.5494
   46MOL   H15315543   0.342   1.417   5.608  0.6654 -0.8193  0.7109
   46MOL   H15415544   0.229   1.617   5.684 -1.5892  1.2417 -3.2474
   46MOL   C15515545   7.827   1.727   5.778  0.1050  0.0367 -0.0179
   46MOL   C15615546   7.669   1.723   5.770 -0.2124 -0.4767  0.1091
   46MOL   C15715547   7.626   1.678   5.631  0.3552 -0.4854  0.1854
   46MOL   C15815548   7.537   1.569   5.621 -0.5898  0.6938 -0.3346
   46MOL   C15915549   7.480   1.529   5.497  0.0875 -0.8919 -0.0110
   46MOL   C16015550   7.509   1.609   5.387 -0.4787 -0.3108 -0.2456
   46MOL   C16115551   7.591   1.728   5.396  0.0785  0.4274 -0.0505
   46MOL   C16215552   7.656   1.752   5.517  0.2181 -0.4718 -0.1766
   46MOL   O16315553   7.617   1.647   5.879  0.1021 -0.3021  0.2852
   46MOL   H16415554   7.873   1.793   5.704 -0.4635  0.8058  0.3050
   46MOL   H16515555   7.859   1.790   5.861  2.9800  2.3802 -2.7615
   46MOL   H16615556   7.642   1.827   5.792  1.1467 -0.3559  1.2627
   46MOL   H16715557   7.513   1.506   5.705  4.3016  0.9875  1.4213
   46MOL   H16815558   7.429   1.434   5.494 -1.0682 -0.3104  1.0928
   46MOL   H16915559   7.486   1.577   5.286  0.3436  0.4281 -0.6710
   46MOL   H17015560   7.623   1.777   5.306 -1.2872  1.9853  0.2915
   46MOL   H17115561   7.711   1.842   5.543 -2.1386  0.3936  1.9352
   46MOL   C17215562   7.654   1.691   6.006  0.8684  0.1795 -0.3245
   46MOL   C17315563   7.608   1.599   6.120 -0.2786  0.3513 -0.3213
   46MOL   C17415564   7.645   1.659   6.261 -0.3118  0.3825 -0.0258
   46MOL   C17515565   7.584   1.777   6.303  0.3556 -0.5423 -0.0621
   46MOL   C17615566   7.606   1.823   6.434 -0.1382  0.6382  0.5123
   46MOL   C17715567   7.699   1.754   6.516 -0.5845 -0.5722  0.1880
   46MOL   C17815568   7.759   1.634   6.475  0.7032 -0.1465  0.0687
   46MOL   C17915569   7.738   1.590   6.341  0.2556  0.2286 -0.8060
   46MOL   O18015570   7.668   1.476   6.100  0.3979  1.0207 -0.2466
   46MOL   H18115571   7.763   1.696   6.011  0.9693 -1.3045 -0.7761
   46MOL   H18215572   7.613   1.787   6.037  0.9320 -0.3935  1.6082
   46MOL   H18315573   7.502   1.583   6.104  0.0336 -0.6478 -1.4781
   46MOL   H18415574   7.516   1.838   6.246 -1.0667 -1.6734  0.3861
   46MOL   H18515575   7.553   1.907   6.475 -0.0494  1.0198 -0.1537
   46MOL   H18615576   7.719   1.772   6.620  0.4595 -0.2659 -0.0624
   46MOL   H18715577   7.824   1.580   6.543  0.2079 -0.5942  0.1884
   46MOL   H18815578   7.789   1.500   6.311 -0.3161 -0.0553 -0.9440
   46MOL   C18915579   7.596   1.364   6.039  0.1370  0.3824  0.0135
   46MOL   C19015580   7.614   1.230   6.105  0.1717  0.3579 -0.0702
   46MOL   C19115581   7.605   1.232   6.258  0.2132  0.4429  0.4003
   46MOL   C19215582   7.485   1.270   6.324 -0.2305  0.3992 -0.0695
   46MOL   C19315583   7.472   1.263   6.460  0.4033  0.0363  0.6269
   46MOL   C19415584   7.582   1.233   6.544  0.3471 -0.3692  0.4716
   46MOL   C19515585   7.707   1.192   6.480  0.6205 -0.3132  0.3810
   46MOL   C19615586   7.719   1.201   6.339 -0.7457  0.1508 -0.5265
   46MOL   O19715587   7.741   1.185   6.058  0.7282  0.5268 -0.0027
   46MOL   H19815588   7.488   1.384   6.041 -0.2620 -1.3562 -1.8543
   46MOL   H19915589   7.618   1.357   5.932  0.1572  0.9766 -0.0231
   46MOL   H20015590   7.542   1.155   6.070 -0.2150 -0.5243  2.5408
   46MOL   H20115591   7.407   1.314   6.263  1.0629 -1.8742 -3.5217
   46MOL   H20215592   7.383   1.289   6.515 -1.2009  0.6575 -2.1815
   46MOL   H20315593   7.575   1.246   6.651 -4.8220  4.4014 -0.2173
   46MOL   H20415594   7.793   1.164   6.539  1.2647 -1.7792 -1.2139
   46MOL   H20515595   7.817   1.177   6.301 -0.7112 -1.0333  0.2801
   46MOL   C20615596   7.769   1.051   6.030  0.2644  0.4040  0.0470
   46MOL   C20715597   7.919   1.029   5.995  0.5549 -0.0078  0.4842
   46MOL   C20815598   7.932   0.889   5.927 -0.4192  0.4037 -0.0108
   46MOL   C20915599   7.998   0.777   5.982  0.0104 -0.3220 -0.3959
   46MOL   C21015600   8.012   0.662   5.908 -0.0043  0.8562 -0.7295
   46MOL   C21115601   7.974   0.653   5.774  0.2449  0.0101  0.9178
   46MOL   C21215602   7.914   0.767   5.713  0.1383 -0.6037  0.1031
   46MOL   C21315603   7.884   0.875   5.791  0.6159 -0.6984 -0.0030
   46MOL   O21415604   8.020   1.040   6.098  0.6234 -0.2651 -0.3737
   46MOL   H21515605   7.743   0.982   6.111 -0.8801 -0.5962 -1.1578
   46MOL   H21615606   7.715   1.024   5.940 -1.0006 -1.4110  1.3204
   46MOL   H21715607   7.938   1.102   5.917  1.7740  1.6213  2.2750
   46MOL   H21815608   8.042   0.782   6.080 -0.5298  0.9884 -0.2070
   46MOL   H21915609   8.056   0.576   5.956 -0.5283  0.6073 -0.6817
   46MOL   H22015610   7.993   0.566   5.713 -0.7958 -0.4337  1.2107
   46MOL   H22115611   7.875   0.745   5.615  0.7241  1.4037 -0.6126
   46MOL   H22215612   7.825   0.951   5.743  0.1210 -1.8421 -1.2610
   46MOL   C22315613   0.065   1.063   6.032 -0.5826  0.0489 -0.2591
   46MOL   C22415614   0.165   1.082   6.151  0.0149  0.2766  0.0341
   46MOL   C22515615   0.097   1.153   6.271  0.3451 -0.5110  0.6682
   46MOL   C22615616   0.059   1.289   6.258  0.3874  0.0277 -0.2542
   46MOL   C22715617   8.065   1.350   6.361 -0.5886  0.2698 -0.0232
   46MOL   C22815618   8.026   1.278   6.478 -0.0677  0.7388  0.3556
   46MOL   C22915619   8.059   1.140   6.486  0.6169  0.1680 -0.7036
   46MOL   C23015620   0.054   1.080   6.381 -0.2227 -0.9521  0.0965
   46MOL   O23115621   0.221   0.954   6.171  0.3255  0.3607 -0.2115
   46MOL   H23215622   0.100   0.974   5.979  1.5622  0.9107 -0.3661
   46MOL   H23315623   0.070   1.154   5.972 -0.0649  0.0423 -0.2277
   46MOL   H23415624   0.244   1.154   6.129 -0.1997  0.5362  0.1086
   46MOL   H23515625   0.090   1.348   6.173  1.9690  0.2784  0.4854
   46MOL   H23615626   8.052   1.458   6.360  1.0223  0.4717 -0.2795
   46MOL   H23715627   7.982   1.337   6.557  0.2476  0.0534  1.0514
   46MOL   H23815628   8.022   1.082   6.568 -0.7723  1.8705 -0.1097
   46MOL   H23915629   0.080   0.976   6.390  0.3350 -0.6440  2.4033
   46MOL   C24015630   0.319   0.944   6.267  0.2101 -0.0310  0.3150
   46MOL   C24115631   0.316   0.804   6.324  0.3309  0.2868  0.7888
   46MOL   C24215632   0.431   0.791   6.426  0.0966  0.2970  0.2449
   46MOL   C24315633   0.562   0.753   6.382 -0.1185 -0.0485  0.3896
   46MOL   C24415634   0.664   0.740   6.474  0.0358 -0.4055 -0.4232
   46MOL   C24515635   0.650   0.767   6.607  0.2159  0.0819  0.9533
   46MOL   C24615636   0.519   0.794   6.653  0.2362  0.3279  0.9819
   46MOL   C24715637   0.405   0.804   6.564 -0.3686 -0.6803  0.4147
   46MOL   O24815638   0.194   0.777   6.392 -0.4560 -0.8916  0.4836
   46MOL   H24915639   0.417   0.962   6.223  0.3268  0.0981  0.6232
   46MOL   H25015640   0.312   1.018   6.348  0.7655 -0.1174  0.4450
   46MOL   H25115641   0.335   0.740   6.237 -1.2762  0.0705  0.5945
   46MOL   H25215642   0.584   0.735   6.278  2.2002  0.7815  0.7154
   46MOL   H25315643   0.757   0.695   6.442 -0.6556 -2.0525 -0.1620
   46MOL   H25415644   0.739   0.754   6.668  0.2815  0.6179  0.9718
   46MOL   H25515645   0.516   0.807   6.760  2.5025  1.3015  0.9483
   46MOL   H25615646   0.314   0.826   6.619  0.2488 -0.1312  1.2466
   46MOL   C25715647   0.111   0.679   6.327  0.1295  0.2421 -0.5645
   46MOL   C25815648   8.053   0.671   6.396  0.7511 -0.3540  0.4437
   46MOL   C25915649   8.054   0.619   6.542 -0.6909 -0.0634  1.1011
   46MOL   C26015650   8.002   0.491   6.573  0.5097 -0.9224 -0.1643
   46MOL   C26115651   7.991   0.456   6.709  0.0216 -0.2208  0.1851
   46MOL   C26215652   8.053   0.539   6.808  0.4323  0.0952  0.1610
   46MOL   C26315653   0.027   0.663   6.780 -0.4842 -0.0461  0.1427
   46MOL   C26415654   0.015   0.707   6.643  0.2407 -0.5226  0.3571
   46MOL   O26515655   7.959   0.610   6.304  0.0179  0.3647 -0.0330
   46MOL   H26615656   0.154   0.578   6.331  0.6065  0.4696  0.0291
   46MOL   H26715657   0.096   0.695   6.220 -2.8147 -0.0219 -0.2242
   46MOL   H26815658   8.018   0.774   6.402 -1.9028 -1.1163 -1.2227
   46MOL   H26915659   7.953   0.428   6.500 -0.1424  0.5849 -1.0286
   46MOL   H27015660   7.945   0.364   6.742  1.1159  0.0284  2.4638
   46MOL   H27115661   8.050   0.496   6.907 -1.3155 -3.2362 -1.2508
   46MOL   H27215662   0.070   0.727   6.855  0.4514 -0.3110 -0.1591
   46MOL   H27315663   0.038   0.806   6.608  1.8092 -1.1870 -0.5415
   46MOL   C27415664   7.824   0.642   6.321  0.6435 -0.7377 -0.1307
   46MOL   C27515665   7.729   0.559   6.230  0.7591 -0.4539  0.3186
   46MOL   C27615666   7.604   0.635   6.189 -0.8432  0.6636  0.5939
   46MOL   C27715667   7.606   0.738   6.095 -0.3368  0.6978 -0.8405
   46MOL   C27815668   7.498   0.823   6.080 -0.0606  0.3807  0.0714
   46MOL   C27915669   7.385   0.800   6.155 -0.5329 -0.0060 -0.2721
   46MOL   C28015670   7.374   0.686   6.234  0.3783  0.2380 -0.1043
   46MOL   C28115671   7.485   0.608   6.260 -0.5636 -0.4431  0.1679
   46MOL   O28215672   7.697   0.433   6.284 -0.0252  0.2858  0.5047
   46MOL   H28315673   7.801   0.641   6.427  1.8124 -2.4145  0.1299
   46MOL   H28415674   7.823   0.749   6.298  0.2186 -1.1931 -2.3572
   46MOL   H28515675   7.783   0.549   6.136 -1.1475 -1.3122 -0.7165
   46MOL   H28615676   7.691   0.754   6.030  0.5609  0.0615  0.1628
   46MOL   H28715677   7.503   0.909   6.015  1.9058  0.1521 -0.1122
   46MOL   H28815678   7.292   0.853   6.137  0.8388  2.4477 -0.3760
   46MOL   H28915679   7.283   0.663   6.286  0.0170 -1.4710 -1.4243
   46MOL   H29015680   7.471   0.534   6.338 -1.8701  0.8658  1.1932
   46MOL   C29115681   7.688   0.333   6.185 -0.2535 -1.4032 -1.0532
   46MOL   C29215682   7.729   0.189   6.237 -0.1675 -0.2866 -0.2701
   46MOL   C29315683   7.850   0.191   6.330  0.2408 -0.8413 -0.4904
   46MOL   C29415684   7.852   0.132   6.460  0.4106 -0.2276 -0.1394
   46MOL   C29515685   7.964   0.132   6.542  0.0426  0.4265  0.4524
   46MOL   C29615686   0.008   0.188   6.494  0.2478  0.2016 -0.1067
   46MOL   C29715687   0.014   0.240   6.364  0.4466  0.4954 -0.2581
   46MOL   C29815688   7.976   0.238   6.283 -0.1526 -0.4379 -0.3992
   46MOL   O29915689   7.618   0.123   6.299 -0.0834  0.7342  0.1310
   46MOL   H30015690   7.760   0.357   6.107  0.9438  1.2148  0.8015
   46MOL   H30115691   7.590   0.333   6.137 -1.0215 -1.4361  0.4688
   46MOL   H30215692   7.764   0.124   6.157  1.3125 -0.4562  0.4891
   46MOL   H30315693   7.759   0.093   6.500  0.0006  0.4034 -0.4506
   46MOL   H30415694   7.961   0.090   6.641 -2.5668 -0.5795 -0.0078
   46MOL   H30515695   0.099   0.192   6.551  0.5756  0.4538 -0.6380
   46MOL   H30615696   0.113   0.263   6.326  0.2223  0.3454 -0.9306
   46MOL   H30715697   7.987   0.277   6.183 -2.4050 -3.5059 -1.9294
   46MOL   C30815698   7.528   0.084   6.201 -0.1125 -0.6217 -0.3410
   46MOL   C30915699   7.459   8.032   6.249  0.2010 -0.0399 -0.3818
   46MOL   C31015700   7.345   7.993   6.161  0.8911  0.0189 -0.2675
   46MOL   C31115701   7.226   8.057   6.193 -0.5842  0.4098 -0.2884
   46MOL   C31215702   7.105   8.021   6.126 -0.1838  0.1136 -0.1419
   46MOL   C31315703   7.107   7.929   6.022 -0.9910  0.0495  0.0940
   46MOL   C31415704   7.232   7.865   5.997  0.3944 -0.4812  0.0200
   46MOL   C31515705   7.356   7.899   6.062  0.4386  0.3039  0.5617
   46MOL   O31615706   7.547   7.928   6.261  0.7046  0.4729  0.5814
   46MOL   H31715707   7.571   0.069   6.102  0.8458 -0.5051  0.0519
   46MOL   H31815708   7.452   0.160   6.187  0.8633  0.4378  0.0551
   46MOL   H31915709   7.427   8.056   6.350  0.4775  1.8691 -0.7303
   46MOL   H32015710   7.225   0.046   6.277 -0.4905 -0.2821  0.2823
   46MOL   H32115711   7.013   8.066   6.159  0.3367  1.4961 -0.5309
   46MOL   H32215712   7.019   7.917   5.961 -0.4479  2.7038 -1.2740
   46MOL   H32315713   7.235   7.800   5.910  0.4095 -0.6972  0.1818
   46MOL   H32415714   7.449   7.852   6.033  1.4227  2.8217 -0.5133
   46MOL   C32515715   7.520   7.841   6.372 -0.1806  0.6263  0.0508
   46MOL   C32615716   7.617   7.718   6.366  0.4104  0.1001  0.4194
   46MOL   C32715717   7.600   7.649   6.233 -0.2926 -0.5488  0.4823
   46MOL   C32815718   7.522   7.536   6.217  0.0746 -0.0863 -0.4169
   46MOL   C32915719   7.510   7.478   6.086  0.2957  0.0161  0.1717
   46MOL   C33015720   7.573   7.538   5.970 -0.1262 -0.6676 -0.2692
   46MOL   C33115721   7.660   7.647   5.989  0.0956  0.3899 -0.6588
   46MOL   C33215722   7.681   7.695   6.120 -0.2662  0.5689 -0.3104
   46MOL   O33315723   7.749   7.769   6.398 -0.1722 -0.3141  0.5883
   46MOL   H33415724   7.415   7.813   6.368 -0.4462  1.7698 -1.4569
   46MOL   H33515725   7.542   7.884   6.470  0.5180 -0.4718  0.3965
   46MOL   H33615726   7.586   7.645   6.441 -0.8117 -1.7992 -1.8193
   46MOL   H33715727   7.470   7.489   6.298 -1.1769  1.1514 -0.4929
   46MOL   H33815728   7.448   7.390   6.078 -0.2794  0.1329  2.7703
   46MOL   H33915729   7.556   7.506   5.869 -1.1301  2.3930 -1.1231
   46MOL   H34015730   7.718   7.687   5.907  1.1578 -1.0583 -0.6378
   46MOL   H34115731   7.754   7.773   6.136  1.4377 -0.6259 -2.1935
   46MOL   H34215732   7.755   7.856   6.361  1.2368 -0.4828  0.3913
   47MOL     C115733   4.909   4.419   7.199 -0.7947  0.2679  0.3434
   47MOL     C215734   4.874   4.524   7.089 -0.0458 -0.6088 -0.4936
   47MOL     C315735   4.973   4.637   7.072 -0.1009 -0.4640 -0.6785
   47MOL     C415736   5.095   4.612   7.014 -1.0690 -0.0593 -0.7776
   47MOL     C515737   5.196   4.708   6.992  0.3415  0.0939 -0.2750
   47MOL     C615738   5.168   4.838   7.037 -0.5280  0.0929  0.3923
   47MOL     C715739   5.043   4.870   7.098  0.4331 -0.3736 -0.3565
   47MOL     C815740   4.944   4.769   7.114  0.2691  0.1998 -0.3950
   47MOL     O915741   4.744   4.581   7.110 -0.4377  0.7979  0.1174
   47MOL    H1015742   5.005   4.369   7.188  0.1821  2.0949  0.3689
   47MOL    H1115743   4.929   4.456   7.300 -0.6400  1.7699 -0.2257
   47MOL    H1215744   4.878   4.459   7.001 -0.7708 -0.4959 -0.6131
   47MOL    H1315745   5.125   4.511   6.992  1.7243  0.2857  1.1279
   47MOL    H1415746   5.296   4.680   6.964  1.5492  1.0406  2.9288
   47MOL    H1515747   5.246   4.912   7.039 -0.9320  0.5491 -0.5736
   47MOL    H1615748   5.027   4.970   7.137  1.4990 -0.0099 -0.8230
   47MOL    H1715749   4.844   4.794   7.146 -0.1196 -0.7996 -0.8072
   47MOL    H1815750   4.835   4.339   7.208  0.5065 -0.6161  3.8601
   47MOL    C1915751   4.637   4.514   7.034  0.0981  0.4349 -0.7159
   47MOL    C2015752   4.500   4.548   7.106 -0.0763  0.4840  0.3671
   47MOL    C2115753   4.392   4.454   7.058  0.2786 -0.5068  0.8294
   47MOL    C2215754   4.297   4.484   6.960  0.3704 -0.4280  0.4336
   47MOL    C2315755   4.203   4.397   6.921 -0.2263 -0.0566 -0.0900
   47MOL    C2415756   4.204   4.263   6.979  0.2933 -0.3289  0.4105
   47MOL    C2515757   4.300   4.223   7.075 -0.6117  0.0927  0.2065
   47MOL    C2615758   4.402   4.323   7.106 -0.5186  0.3652 -0.4509
   47MOL    O2715759   4.464   4.682   7.067  0.4452  0.2625 -0.1225
   47MOL    H2815760   4.633   4.524   6.926  2.1251 -2.0738 -1.0591
   47MOL    H2915761   4.654   4.408   7.053 -1.5863  0.4619  1.1249
   47MOL    H3015762   4.505   4.534   7.214  0.1901  0.3411  0.3371
   47MOL    H3115763   4.282   4.581   6.916  0.9194  0.4703  2.1470
   47MOL    H3215764   4.128   4.430   6.851  0.0487  1.6872  0.4076
   47MOL    H3315765   4.139   4.184   6.943  1.7401 -0.0025 -3.0925
   47MOL    H3415766   4.287   4.123   7.113  1.6513  0.0582  0.9802
   47MOL    H3515767   4.478   4.299   7.179  0.5282  2.9576 -0.6102
   47MOL    C3615768   4.372   4.750   7.156  0.5199 -1.0398 -0.1655
   47MOL    C3715769   4.407   4.897   7.119 -0.4578 -0.0778  0.1445
   47MOL    C3815770   4.386   4.935   6.970 -0.7097 -0.8617 -0.3623
   47MOL    C3915771   4.484   4.901   6.870  0.6747 -0.1001 -0.0513
   47MOL    C4015772   4.455   4.931   6.738 -0.2518  0.1237  0.2506
   47MOL    C4115773   4.333   4.995   6.704 -0.5261  0.3231  0.0429
   47MOL    C4215774   4.236   5.039   6.801 -1.2152 -0.0392  0.4606
   47MOL    C4315775   4.267   4.995   6.930  0.0395  0.8906 -0.6963
   47MOL    O4415776   4.542   4.927   7.171 -0.2392  0.0302  0.7780
   47MOL    H4515777   4.267   4.739   7.131  0.5735 -1.3735 -0.2458
   47MOL    H4615778   4.391   4.733   7.262  0.3950  0.4503  0.0997
   47MOL    H4715779   4.335   4.958   7.173 -1.7173 -2.1777  0.8610
   47MOL    H4815780   4.577   4.851   6.895 -0.8011 -2.4622  0.9055
   47MOL    H4915781   4.527   4.895   6.666  0.4537 -0.1211  1.0638
   47MOL    H5015782   4.314   5.009   6.599 -1.5807 -0.5169  0.1107
   47MOL    H5115783   4.138   5.076   6.773 -0.5712  0.7079 -0.8745
   47MOL    H5215784   4.195   5.013   7.009  1.0143  0.3526  0.3381
   47MOL    C5315785   4.572   5.067   7.159 -0.0380 -0.3490 -0.4502
   47MOL    C5415786   4.715   5.098   7.214  0.3235 -0.4491  0.3338
   47MOL    C5515787   4.782   5.227   7.152 -0.0359 -0.4249 -0.7899
   47MOL    C5615788   4.831   5.220   7.019  0.7256 -0.4569 -0.6794
   47MOL    C5715789   4.898   5.333   6.965 -0.3844  0.4441 -0.3280
   47MOL    C5815790   4.924   5.443   7.046  0.1955 -0.5904 -0.0232
   47MOL    C5915791   4.863   5.452   7.170 -0.1308  0.3405 -0.5003
   47MOL    C6015792   4.794   5.345   7.227  0.0290  0.1971  0.1554
   47MOL    O6115793   4.712   5.108   7.359 -0.2065  0.5212 -0.1045
   47MOL    H6215794   4.563   5.098   7.055 -1.4389  0.9356  0.0364
   47MOL    H6315795   4.497   5.130   7.208  0.0054 -0.3801 -0.3412
   47MOL    H6415796   4.781   5.018   7.181 -0.6018 -1.0644 -0.0512
   47MOL    H6515797   4.824   5.128   6.963 -0.3486 -0.2769 -0.8419
   47MOL    H6615798   4.941   5.325   6.867 -0.3458  0.1800 -0.2912
   47MOL    H6715799   4.985   5.522   7.004 -0.2276 -0.6415 -0.7688
   47MOL    H6815800   4.875   5.542   7.228 -0.3760 -0.3820  0.7130
   47MOL    H6915801   4.750   5.353   7.325  0.4544  1.2885  0.2642
   47MOL    C7015802   4.842   5.081   7.408 -0.2925  0.0090 -0.7568
   47MOL    C7115803   4.861   5.108   7.561 -0.0898  0.2320  0.2964
   47MOL    C7215804   4.830   5.252   7.590  0.3909  1.2021 -0.0553
   47MOL    C7315805   4.698   5.293   7.623 -0.5414 -0.6027 -0.2470
   47MOL    C7415806   4.671   5.424   7.647 -0.0625 -0.3785  0.1061
   47MOL    C7515807   4.773   5.523   7.616  0.0119 -0.2479 -0.1592
   47MOL    C7615808   4.903   5.481   7.584 -0.4098 -0.6202  0.1303
   47MOL    C7715809   4.931   5.342   7.568 -0.8460 -0.7049 -0.8738
   47MOL    O7815810   4.998   5.076   7.583 -0.0168  0.3970  0.0809
   47MOL    H7915811   4.860   4.975   7.393  2.5546  0.5338 -1.3921
   47MOL    H8015812   4.924   5.123   7.350 -0.3445  0.8734 -0.2247
   47MOL    H8115813   4.799   5.037   7.617  0.6577  0.5598  1.5547
   47MOL    H8215814   4.621   5.220   7.638 -0.2217 -1.3144 -1.9762
   47MOL    H8315815   4.566   5.446   7.659 -0.3595 -1.1027 -1.0917
   47MOL    H8415816   4.756   5.628   7.635  0.8841 -0.1932  0.3168
   47MOL    H8515817   4.983   5.551   7.568  1.7253 -2.5658  2.0373
   47MOL    H8615818   5.030   5.304   7.544 -0.3313 -0.5096  0.8826
   47MOL    C8715819   5.019   5.065   7.725  0.3734  0.4816  0.0912
   47MOL    C8815820   5.034   4.926   7.770 -0.4839 -0.1350 -0.1720
   47MOL    C8915821   5.075   4.832   7.660  0.1019 -0.0454 -0.0290
   47MOL    C9015822   4.980   4.760   7.588  0.7416 -0.1415 -0.3287
   47MOL    C9115823   5.018   4.679   7.479 -0.3633 -0.4478  0.1040
   47MOL    C9215824   5.152   4.665   7.449 -0.1541 -0.0700  0.3753
   47MOL    C9315825   5.246   4.747   7.511  0.2630  0.2780  0.3378
   47MOL    C9415826   5.207   4.830   7.619 -0.8471 -0.0726 -0.0051
   47MOL    O9515827   4.909   4.891   7.822 -0.1450 -0.0762 -0.1557
   47MOL    H9615828   4.954   5.123   7.791  0.9848  1.2779  0.0060
   47MOL    H9715829   5.120   5.107   7.737 -0.6096  2.2997  2.5009
   47MOL    H9815830   5.108   4.925   7.850  0.8452 -0.2467 -1.3680
   47MOL    H9915831   4.875   4.771   7.610  1.2998 -0.3245  2.6959
   47MOL   H10015832   4.939   4.620   7.435 -1.3932  2.0863 -1.5258
   47MOL   H10115833   5.189   4.609   7.364  0.3669  0.4151  0.2688
   47MOL   H10215834   5.348   4.740   7.476  0.2370  0.1235  0.2923
   47MOL   H10315835   5.285   4.891   7.661 -0.7877  0.1932 -0.4907
   47MOL   C10415836   4.903   4.790   7.918 -0.1226  0.3666 -0.2032
   47MOL   C10515837   4.757   4.789   7.984 -0.6770  0.1763  1.0095
   47MOL   C10615838   4.709   4.911   8.053  0.4591  0.1403  0.7386
   47MOL   C10715839   4.682   5.023   7.973  0.0463 -0.1604  0.1977
   47MOL   C10815840   4.641   5.142   8.036 -0.1378  0.0004 -0.3211
   47MOL   C10915841   4.614   5.142   0.097 -0.9688  0.7572  0.2255
   47MOL   C11015842   4.640   5.029   0.174  0.3976  0.2301 -0.3399
   47MOL   C11115843   4.686   4.915   0.115  0.4654  0.2755 -0.3528
   47MOL   O11215844   4.667   4.748   7.879  0.0634  0.1532  0.1062
   47MOL   H11315845   4.936   4.696   7.876  1.1058  0.6531  0.0891
   47MOL   H11415846   4.969   4.805   8.004  1.1866 -0.5515 -1.0347
   47MOL   H11515847   4.755   4.722   8.070 -0.3556  0.3445  1.1512
   47MOL   H11615848   4.684   5.007   7.866 -1.1903 -1.0110  0.2941
   47MOL   H11715849   4.608   5.229   7.982 -0.9302 -0.4720 -0.5940
   47MOL   H11815850   4.594   5.235   0.147  1.1290  0.3620  1.8956
   47MOL   H11915851   4.625   5.039   0.281 -2.3598 -0.3519 -0.6330
   47MOL   H12015852   4.703   4.830   0.180  1.3181 -1.1316 -2.3455
   47MOL   C12115853   4.528   4.737   7.915 -0.0042  0.8220 -0.3997
   47MOL   C12215854   4.439   4.675   7.801  0.2208 -0.5409 -0.1514
   47MOL   C12315855   4.500   4.700   7.662 -0.1797  0.7689 -0.2631
   47MOL   C12415856   4.586   4.608   7.605  0.5969  1.1788 -0.1726
   47MOL   C12515857   4.653   4.635   7.484  0.1058 -0.5736  0.3877
   47MOL   C12615858   4.622   4.753   7.411  0.4973  0.2453  0.5104
   47MOL   C12715859   4.535   4.849   7.467 -1.1770 -0.9979  0.1451
   47MOL   C12815860   4.473   4.823   7.592 -0.2618  0.5660 -0.3244
   47MOL   O12915861   4.410   4.541   7.839  0.5422  0.0800  0.7023
   47MOL   H13015862   4.489   4.835   7.941 -3.1082 -0.4484 -0.0418
   47MOL   H13115863   4.520   4.686   8.011 -0.2704  0.5117 -0.5825
   47MOL   H13215864   4.345   4.729   7.789  2.2159  3.0291 -0.2151
   47MOL   H13315865   4.597   4.514   7.657 -1.8012 -0.7615 -2.9544
   47MOL   H13415866   4.721   4.570   7.431 -1.3699 -0.7806 -1.3084
   47MOL   H13515867   4.666   4.788   7.319 -1.7994  0.0766 -0.6843
   47MOL   H13615868   4.511   4.943   7.420 -2.7376 -2.4734 -2.0950
   47MOL   H13715869   4.403   4.896   7.628 -0.9677  0.5236 -1.5995
   47MOL   C13815870   4.298   4.487   7.771  0.0603  0.5866  0.7122
   47MOL   C13915871   4.176   4.450   7.859 -0.1599 -0.5440  0.4258
   47MOL   C14015872   4.198   4.347   7.966 -0.2668 -0.2251  0.0239
   47MOL   C14115873   4.181   4.376   0.022  0.1608 -0.2292  0.1455
   47MOL   C14215874   4.210   4.272   0.117 -0.9101 -0.3589  0.6621
   47MOL   C14315875   4.240   4.142   0.078  0.1254 -0.6890  0.4169
   47MOL   C14415876   4.248   4.111   8.020  0.4176 -0.8708  0.0663
   47MOL   C14515877   4.227   4.215   7.927 -0.3293 -0.3187 -0.5255
   47MOL   O14615878   4.122   4.570   7.911 -0.2761  0.2177 -0.2632
   47MOL   H14715879   4.333   4.392   7.730  0.8864  0.7915  0.9367
   47MOL   H14815880   4.267   4.543   7.684 -0.4196 -0.4093  0.2267
   47MOL   H14915881   4.098   4.412   7.794  0.8774  1.9826 -2.3907
   47MOL   H15015882   4.148   4.470   0.065 -0.9109 -0.4968 -0.0850
   47MOL   H15115883   4.191   4.284   0.223  0.6795  0.7481  0.8400
   47MOL   H15215884   4.264   4.068   0.153  1.9037  0.1852  0.7447
   47MOL   H15315885   4.281   4.017   7.978 -1.5543 -1.3018 -0.5704
   47MOL   H15415886   4.250   4.191   7.824 -0.5024  1.2618 -0.9515
   47MOL   C15515887   4.053   4.654   7.821  0.0836  0.1517 -0.2785
   47MOL   C15615888   3.986   4.771   7.889 -0.3329 -0.4774 -0.1944
   47MOL   C15715889   4.090   4.857   7.962  0.4692  0.0183 -0.5323
   47MOL   C15815890   4.128   4.980   7.906  0.1385 -0.2613  0.3756
   47MOL   C15915891   4.221   5.064   7.970 -0.2302  0.5044 -0.2195
   47MOL   C16015892   4.284   5.019   0.007 -0.5758  0.5317 -0.5252
   47MOL   C16115893   4.247   4.891   0.063 -0.3070 -0.0361  0.3580
   47MOL   C16215894   4.158   4.808   8.076  0.4528 -0.1486  0.1251
   47MOL   O16315895   3.907   4.847   7.794  0.1198 -0.2331  0.0605
   47MOL   H16415896   3.977   4.608   7.757  1.4366 -1.3574 -0.8347
   47MOL   H16515897   4.122   4.697   7.749  1.6132  0.8743  1.5830
   47MOL   H16615898   3.916   4.740   7.968  1.7028 -1.1331  1.4176
   47MOL   H16715899   4.088   5.014   7.812  1.8487  0.8962  0.0523
   47MOL   H16815900   4.237   5.164   7.931 -0.4240 -0.3335 -2.5043
   47MOL   H16915901   4.358   5.073   0.063 -0.6265  0.1048 -0.0374
   47MOL   H17015902   4.307   4.848   0.142 -0.9889  1.0727  1.4860
   47MOL   H17115903   4.126   4.711   0.032 -0.4658 -0.0326 -0.3513
   47MOL   C17215904   3.780   4.802   7.772  0.6222 -1.0907  0.0173
   47MOL   C17315905   3.716   4.855   7.642 -0.5793  0.1236 -0.9319
   47MOL   C17415906   3.567   4.825   7.639 -0.2816 -0.4372  0.0416
   47MOL   C17515907   3.512   4.733   7.549 -0.4487 -0.9618 -0.0786
   47MOL   C17615908   3.379   4.685   7.563  0.3218 -0.7010 -0.5043
   47MOL   C17715909   3.297   4.740   7.662 -0.7378  0.3258  0.0166
   47MOL   C17815910   3.349   4.835   7.759 -0.2014 -0.6547  0.4722
   47MOL   C17915911   3.481   4.881   7.739  0.5537 -0.4684 -0.4666
   47MOL   O18015912   3.794   4.816   7.525 -0.2884 -0.0262 -0.7950
   47MOL   H18115913   3.764   4.695   7.757 -2.4706 -0.3718 -2.3412
   47MOL   H18215914   3.724   4.824   7.863  0.0544 -1.7962 -0.1526
   47MOL   H18315915   3.713   4.964   7.638  0.4406  0.1740 -0.5028
   47MOL   H18415916   3.573   4.697   7.468  0.4887 -0.3739  0.3634
   47MOL   H18515917   3.330   4.618   7.493 -1.5885  1.0136 -0.8467
   47MOL   H18615918   3.195   4.710   7.678 -0.1826 -1.8298 -0.2449
   47MOL   H18715919   3.289   4.881   7.836  1.2022  2.3043 -0.1570
   47MOL   H18815920   3.525   4.949   7.810 -0.2099 -0.4467 -0.0135
   47MOL   C18915921   3.916   4.889   7.511  0.5561 -0.1472 -0.6481
   47MOL   C19015922   3.982   4.883   7.372 -0.5874 -0.3713 -0.5760
   47MOL   C19115923   4.043   4.744   7.344 -0.4807 -0.9919  0.2188
   47MOL   C19215924   4.165   4.702   7.411 -0.6631  0.4312 -0.0689
   47MOL   C19315925   4.220   4.570   7.394 -0.0084  0.4713 -0.0848
   47MOL   C19415926   4.154   4.479   7.300  0.3042 -0.3011 -0.9600
   47MOL   C19515927   4.035   4.520   7.232  0.0447 -0.2999  0.2667
   47MOL   C19615928   3.975   4.646   7.259 -0.2531 -0.4410 -0.2251
   47MOL   O19715929   4.087   4.980   7.368  0.5793 -0.3439 -0.6737
   47MOL   H19815930   3.888   4.995   7.518  1.3628  0.0414 -0.2450
   47MOL   H19915931   3.993   4.861   7.582  1.0434  2.2521 -0.1697
   47MOL   H20015932   3.910   4.902   7.292  1.1693  2.4552 -1.5364
   47MOL   H20115933   4.216   4.752   7.491 -0.0197  0.4544 -0.4842
   47MOL   H20215934   4.311   4.539   7.443  0.8608  1.9493 -0.7266
   47MOL   H20315935   4.198   4.386   7.268  0.1051  0.5938 -4.0282
   47MOL   H20415936   3.990   4.456   7.157 -0.7122  0.3763  0.1355
   47MOL   H20515937   3.889   4.672   7.200 -0.3724 -1.0003 -0.3025
   47MOL   C20615938   4.055   5.102   7.307 -0.1976 -0.2052 -0.0731
   47MOL   C20715939   4.173   5.205   7.315 -0.6930 -0.1490 -0.3497
   47MOL   C20815940   4.202   5.259   7.453 -0.3694 -0.1300 -0.4042
   47MOL   C20915941   4.140   5.377   7.499  1.1511 -0.3102 -0.6954
   47MOL   C21015942   4.175   5.422   7.627 -0.1453 -0.0664  0.0848
   47MOL   C21115943   4.262   5.347   7.716  0.6480 -0.5670  0.3867
   47MOL   C21215944   4.319   5.231   7.665  0.5202 -0.4353  1.0691
   47MOL   C21315945   4.283   5.184   7.539 -0.2669 -0.1016  0.1761
   47MOL   O21415946   4.156   5.308   7.223  0.5020  0.3206 -0.3132
   47MOL   H21515947   4.039   5.082   7.201 -1.6052  0.8737 -0.0779
   47MOL   H21615948   3.959   5.134   7.347 -0.8805  0.2775 -2.0099
   47MOL   H21715949   4.269   5.154   7.300 -1.5314 -2.4053  1.6609
   47MOL   H21815950   4.077   5.445   7.444  0.1512 -0.0392  0.7464
   47MOL   H21915951   4.140   5.522   7.648  0.8931  0.5111 -0.8448
   47MOL   H22015952   4.302   5.390   7.806 -2.0460 -0.4162  1.5771
   47MOL   H22115953   4.390   5.172   7.722 -0.2957 -3.7002 -1.1402
   47MOL   H22215954   4.324   5.091   7.502 -2.0200 -0.8654  0.0981
   47MOL   C22315955   4.262   5.325   7.133  0.1625  0.0596 -0.0591
   47MOL   C22415956   4.230   5.421   7.025 -0.8744 -0.8232  0.4261
   47MOL   C22515957   4.374   5.461   6.964 -0.1965 -0.9382  0.0565
   47MOL   C22615958   4.457   5.365   6.899  0.8909  0.1449  0.4344
   47MOL   C22715959   4.584   5.399   6.854  0.3726 -0.3172  0.0987
   47MOL   C22815960   4.631   5.535   6.869  0.4539  0.2552  0.3316
   47MOL   C22915961   4.547   5.631   6.926  0.4781  0.1574  0.0320
   47MOL   C23015962   4.420   5.593   6.974  0.0836 -0.4108 -0.7008
   47MOL   O23115963   4.141   5.358   6.927 -0.3939  0.0568 -0.3757
   47MOL   H23215964   4.349   5.351   7.193 -0.1383 -0.3927  0.5786
   47MOL   H23315965   4.273   5.228   7.086 -0.0241 -0.6064  1.2550
   47MOL   H23415966   4.186   5.513   7.063 -1.1644 -0.7411 -0.1110
   47MOL   H23515967   4.440   5.258   6.901 -1.5142  0.4388 -1.8002
   47MOL   H23615968   4.649   5.324   6.811  1.3001  2.2059 -3.1492
   47MOL   H23715969   4.730   5.561   6.835  0.2664 -1.5348 -1.7139
   47MOL   H23815970   4.580   5.733   6.919 -2.8117  1.2571 -0.5669
   47MOL   H23915971   4.359   5.668   7.022 -0.2830  0.7391 -2.9003
   47MOL   C24015972   4.095   5.437   6.810  0.1614 -0.0171 -0.3646
   47MOL   C24115973   3.974   5.371   6.737 -0.1879 -0.0200 -0.3647
   47MOL   C24215974   3.845   5.366   6.821  0.5672  0.5361  0.1349
   47MOL   C24315975   3.834   5.269   6.926 -0.0399 -0.6437 -0.1842
   47MOL   C24415976   3.717   5.263   6.997 -0.1525 -0.0931  0.2986
   47MOL   C24515977   3.607   5.356   6.977 -0.2351 -0.5229 -0.2489
   47MOL   C24615978   3.624   5.461   6.882 -0.1080 -0.5617 -0.2757
   47MOL   C24715979   3.743   5.467   6.808 -0.1982  0.5992  0.7266
   47MOL   O24815980   3.950   5.448   6.613  0.4442  0.5996  0.2194
   47MOL   H24915981   4.082   5.535   6.855 -2.4130  0.1664 -1.4417
   47MOL   H25015982   4.171   5.438   6.731 -0.3899 -1.8742 -0.9672
   47MOL   H25115983   4.004   5.266   6.725  0.4744  0.3063 -1.6348
   47MOL   H25215984   3.915   5.199   6.940  0.3043  0.2333  2.3573
   47MOL   H25315985   3.706   5.184   7.070 -3.7391  1.8618  1.9876
   47MOL   H25415986   3.519   5.349   7.039 -0.6062  1.2462 -0.5348
   47MOL   H25515987   3.553   5.541   6.872 -0.1290 -0.0862  3.0969
   47MOL   H25615988   3.769   5.548   6.742  1.4108  0.8464  1.6186
   47MOL   C25715989   3.879   5.383   6.510  0.3501  0.3419  0.4446
   47MOL   C25815990   3.849   5.497   6.405  0.2792  0.2289  0.3710
   47MOL   C25915991   3.753   5.603   6.463 -0.2453  0.2888  0.1629
   47MOL   C26015992   3.809   5.728   6.491 -0.4675 -0.1931  0.2860
   47MOL   C26115993   3.727   5.838   6.530  0.2554  0.3484 -0.6605
   47MOL   C26215994   3.591   5.816   6.556 -0.0344 -0.3770  0.0290
   47MOL   C26315995   3.534   5.692   6.530  0.0546 -0.3326  0.0090
   47MOL   C26415996   3.609   5.589   6.472 -0.0055 -0.1189 -0.0160
   47MOL   O26515997   3.790   5.438   6.296  0.7230  0.4251  0.0160
   47MOL   H26615998   3.796   5.328   6.554 -0.3409 -0.6696 -2.0259
   47MOL   H26715999   3.948   5.307   6.474 -0.5147 -0.2622  0.0431
   47MOL   H26816000   3.942   5.539   6.368 -1.8856  3.4631 -1.6689
   47MOL   H26916001   3.914   5.744   6.470 -0.6856  1.4807  0.3768
   47MOL   H27016002   3.765   5.937   6.548  0.2736  0.0567  0.9211
   47MOL   H27116003   3.518   5.885   6.594  1.0309  0.3018  0.8704
   47MOL   H27216004   3.427   5.686   6.543 -0.0116  0.7337  0.0366
   47MOL   H27316005   3.549   5.503   6.445 -0.7327  0.2864  0.3107
   47MOL   C27416006   3.786   5.500   6.164 -0.1891 -0.6016 -0.6594
   47MOL   C27516007   3.923   5.509   6.098 -0.0130  0.0721  0.3782
   47MOL   C27616008   3.982   5.367   6.087 -0.5066 -0.6386  0.1878
   47MOL   C27716009   3.938   5.286   5.984  0.7119 -0.4414  0.3635
   47MOL   C27816010   4.005   5.160   5.959 -0.5053  1.0668  0.5603
   47MOL   C27916011   4.100   5.111   6.047 -0.6168 -0.1191  0.1294
   47MOL   C28016012   4.130   5.191   6.164 -0.9645  0.1762 -0.2373
   47MOL   C28116013   4.068   5.313   6.185 -0.6805 -0.9049  0.1519
   47MOL   O28216014   4.009   5.606   6.155  0.0730  0.1886  0.4351
   47MOL   H28316015   3.728   5.438   6.096 -1.9418 -1.9060  1.9632
   47MOL   H28416016   3.741   5.599   6.175 -1.3309 -1.2866  1.0489
   47MOL   H28516017   3.893   5.553   6.003  0.1746 -0.1716  0.2022
   47MOL   H28616018   3.857   5.310   5.917  3.4488 -2.7202 -3.9976
   47MOL   H28716019   3.973   5.092   5.881 -2.1305  2.6092 -0.1512
   47MOL   H28816020   4.152   5.019   6.026  0.0369  0.6378 -1.7584
   47MOL   H28916021   4.207   5.158   6.232 -0.3063  0.8067 -0.6506
   47MOL   H29016022   4.089   5.376   6.270 -0.3600  0.6448 -1.0430
   47MOL   C29116023   3.958   5.739   6.136 -0.6668  0.0183 -0.2090
   47MOL   C29216024   4.076   5.830   6.161  0.2342  0.1630  0.5461
   47MOL   C29316025   4.041   5.970   6.101 -0.4794  0.5245  0.7543
   47MOL   C29416026   4.082   6.004   5.970  0.3271 -0.1570 -0.4973
   47MOL   C29516027   4.057   6.127   5.910 -0.2007  0.7207 -0.0643
   47MOL   C29616028   3.992   6.224   5.991 -0.2514  0.3132  0.4232
   47MOL   C29716029   3.962   6.201   6.125 -0.8389  0.0891  0.0919
   47MOL   C29816030   3.975   6.070   6.175 -0.7446  0.8218 -0.1058
   47MOL   O29916031   4.098   5.834   6.298  0.3683 -0.1257  0.0240
   47MOL   H30016032   3.879   5.756   6.209  0.4221  1.3415  0.6955
   47MOL   H30116033   3.911   5.759   6.039  1.5185  0.5503 -1.2029
   47MOL   H30216034   4.154   5.779   6.104 -2.3299 -3.3768  0.0139
   47MOL   H30316035   4.124   5.915   5.925  0.7237  0.6252 -1.6571
   47MOL   H30416036   4.089   6.149   5.810 -0.3600  0.9577 -0.0633
   47MOL   H30516037   3.977   6.321   5.946 -0.8291 -0.0152 -0.1011
   47MOL   H30616038   3.907   6.278   6.177  0.8973  1.0703  0.5204
   47MOL   H30716039   3.924   6.048   6.268  0.1388  1.5663  0.5668
   47MOL   C30816040   4.231   5.877   6.323  0.9339 -0.5965  0.1880
   47MOL   C30916041   4.262   5.887   6.474 -0.1135 -0.1546  0.2002
   47MOL   C31016042   4.408   5.894   6.494  0.1975 -0.7808 -0.1044
   47MOL   C31116043   4.493   5.779   6.511 -0.0980 -0.7815  0.1084
   47MOL   C31216044   4.636   5.797   6.517  0.4098  0.3346 -0.1878
   47MOL   C31316045   4.695   5.920   6.497  0.6794 -0.9878  0.1231
   47MOL   C31416046   4.609   6.031   6.467  0.4302  0.5483  0.1257
   47MOL   C31516047   4.471   6.017   6.461 -0.0716  0.0339 -1.2170
   47MOL   O31616048   4.199   6.007   6.534  0.3367  0.1643 -0.2108
   47MOL   H31716049   4.249   5.967   6.265  0.5699  0.1406  1.2170
   47MOL   H31816050   4.297   5.800   6.283  0.8314 -0.3855 -0.3996
   47MOL   H31916051   4.220   5.796   6.516  1.5774 -1.2207 -0.3584
   47MOL   H32016052   4.440   5.686   6.518  0.6223 -1.1651  0.5513
   47MOL   H32116053   4.706   5.715   6.527  1.3457  1.0087 -1.1170
   47MOL   H32216054   4.803   5.928   6.495  0.6060 -0.0735 -0.6379
   47MOL   H32316055   4.647   6.132   6.467  0.1515  0.6667 -1.0699
   47MOL   H32416056   4.415   6.108   6.447  0.1070  0.3821  0.2144
   47MOL   C32516057   4.060   6.006   6.555  0.1814 -0.3767  0.8900
   47MOL   C32616058   4.017   6.130   6.638  0.2086 -0.6612  0.3809
   47MOL   C32716059   4.033   6.261   6.560 -0.6848  0.4000  0.6949
   47MOL   C32816060   3.928   6.328   6.500 -0.2598 -0.0205  0.8869
   47MOL   C32916061   3.951   6.439   6.415  0.0014  0.2514  0.1558
   47MOL   C33016062   4.087   6.487   6.398  0.0751 -0.2735  0.7079
   47MOL   C33116063   4.195   6.417   6.466 -0.5123 -0.5466 -0.5851
   47MOL   C33216064   4.168   6.311   6.550  0.8033  0.0569  0.3444
   47MOL   O33316065   3.891   6.101   6.692 -0.0454  0.3673  0.1936
   47MOL   H33416066   4.031   5.917   6.610  1.3763 -0.0779  2.0409
   47MOL   H33516067   4.008   5.995   6.460  0.0214 -3.8166  1.3144
   47MOL   H33616068   4.086   6.128   6.722 -1.3650 -0.3810  1.6986
   47MOL   H33716069   3.827   6.293   6.516 -1.1167  1.6488 -0.6648
   47MOL   H33816070   3.865   6.479   6.364 -0.4247  0.1599  0.7909
   47MOL   H33916071   4.114   6.565   6.329  0.2245 -1.0527 -0.1158
   47MOL   H34016072   4.299   6.444   6.458 -0.1748 -0.8891  2.1476
   47MOL   H34116073   4.254   6.264   6.596  1.5044  1.7797  0.8200
   47MOL   H34216074   3.889   6.139   6.778  1.0393 -0.4485  0.5839
   48MOL     C116075   0.918   0.180   5.558  0.1086 -0.1660 -0.0944
   48MOL     C216076   0.878   0.069   5.661  0.1700 -0.3283 -0.6505
   48MOL     C316077   0.973   8.030   5.645  0.1051 -0.3974 -0.3231
   48MOL     C416078   1.087   8.012   5.729 -0.1484  0.3268  0.3975
   48MOL     C516079   1.163   7.896   5.717  0.6930 -0.2803 -0.6259
   48MOL     C616080   1.132   7.795   5.622  0.3818 -0.0547 -0.1085
   48MOL     C716081   1.018   7.809   5.536 -0.1002 -0.0263 -0.5360
   48MOL     C816082   0.934   7.923   5.560 -0.2128 -0.0542 -0.4733
   48MOL     O916083   0.745   0.030   5.649  0.1424  0.1696  0.1984
   48MOL    H1016084   0.858   0.269   5.573  0.4465  0.0084  0.2303
   48MOL    H1116085   1.024   0.206   5.561  0.1849 -0.0602 -2.3255
   48MOL    H1216086   0.900   0.113   5.758  1.5721 -2.0681 -0.1639
   48MOL    H1316087   1.103   0.006   5.806 -0.5520  2.3054 -1.3936
   48MOL    H1416088   1.240   7.874   5.789  0.6573 -1.5552 -0.9663
   48MOL    H1516089   1.205   7.720   5.596  1.9681  1.9783 -1.6934
   48MOL    H1616090   0.991   7.729   5.469 -1.7843 -0.9077  1.1755
   48MOL    H1716091   0.835   7.940   5.520 -0.3244  0.4699  0.0306
   48MOL    H1816092   0.907   0.145   5.455 -0.6367 -0.7504  0.1791
   48MOL    C1916093   0.655   0.117   5.702  0.2774  0.4261 -0.1213
   48MOL    C2016094   0.512   0.068   5.663 -0.1179 -0.2114 -0.3603
   48MOL    C2116095   0.486   0.095   5.510 -0.7687  0.0435  0.6785
   48MOL    C2216096   0.423   0.215   5.467  0.8619 -0.2601 -0.0504
   48MOL    C2316097   0.394   0.240   5.329 -0.1781  0.3488  0.3670
   48MOL    C2416098   0.435   0.141   5.234  0.2295  0.3146 -0.1906
   48MOL    C2516099   0.502   0.024   5.276  0.1064 -0.5582  0.5250
   48MOL    C2616100   0.523   8.078   5.416  0.1273 -0.9413 -0.0092
   48MOL    O2716101   0.413   0.134   5.745 -0.1521  0.4201 -0.4046
   48MOL    H2816102   0.664   0.108   5.810  1.5572 -0.3119 -0.2840
   48MOL    H2916103   0.667   0.223   5.677  0.1354  0.6630  0.7808
   48MOL    H3016104   0.512   8.041   5.686 -0.9016 -0.7072 -2.5359
   48MOL    H3116105   0.387   0.280   5.545  0.8171 -1.7861  1.2493
   48MOL    H3216106   0.338   0.324   5.291  1.4237  1.2297 -0.1044
   48MOL    H3316107   0.399   0.152   5.133 -0.4300  1.3497  0.1575
   48MOL    H3416108   0.535   8.035   5.199 -1.6297 -0.7069 -0.1036
   48MOL    H3516109   0.565   7.987   5.458  1.6182  0.4497  1.6312
   48MOL    C3616110   0.310   0.052   5.798  0.3761 -0.0130 -0.1180
   48MOL    C3716111   0.342   0.033   5.945  0.6113  0.6281 -0.5936
   48MOL    C3816112   0.346   0.164   6.024 -0.6596 -0.1166 -0.0948
   48MOL    C3916113   0.228   0.239   6.034 -0.0524 -0.6593 -0.2266
   48MOL    C4016114   0.227   0.367   6.081  0.1066 -0.7517  0.2853
   48MOL    C4116115   0.346   0.426   6.128  0.6937  0.3000  0.2497
   48MOL    C4216116   0.460   0.346   6.136 -0.3706 -0.3702 -0.3882
   48MOL    C4316117   0.462   0.221   6.078  0.5015  0.0699  0.5392
   48MOL    O4416118   0.447   8.018   5.956 -0.1897 -0.6756  0.0275
   48MOL    H4516119   0.204   0.074   5.789  0.5105  0.1261 -1.4572
   48MOL    H4616120   0.312   8.031   5.755 -0.4106  0.4595 -1.2826
   48MOL    H4716121   0.250   8.068   5.984  1.7294 -1.1699  0.0353
   48MOL    H4816122   0.139   0.181   6.012 -0.2039 -0.4791 -0.0895
   48MOL    H4916123   0.131   0.412   6.100 -1.5148 -4.0931  0.2361
   48MOL    H5016124   0.345   0.522   6.177 -2.1821  0.4226  0.0372
   48MOL    H5116125   0.546   0.386   6.189 -0.1309 -0.4677 -0.7010
   48MOL    H5216126   0.558   0.173   6.067  1.4600  1.5365  2.1110
   48MOL    C5316127   0.506   7.972   6.084  0.1171 -0.4121 -0.5328
   48MOL    C5416128   0.632   7.896   6.049 -0.0107 -0.2248  0.2993
   48MOL    C5516129   0.611   7.800   5.934 -0.7699 -0.4052  0.2611
   48MOL    C5616130   0.667   7.819   5.804 -0.0600  0.1617 -0.6867
   48MOL    C5716131   0.648   7.729   5.702  0.0107 -0.0253  0.0903
   48MOL    C5816132   0.568   7.613   5.720  0.3326  0.2600 -0.9643
   48MOL    C5916133   0.510   7.586   5.848  0.1261  0.1073  0.2157
   48MOL    C6016134   0.531   7.687   5.949 -0.3802 -0.6070 -0.1673
   48MOL    O6116135   0.726   7.998   6.027  0.1241 -0.3171  0.7378
   48MOL    H6216136   0.518   8.052   6.157 -0.5790 -0.5877 -0.2250
   48MOL    H6316137   0.432   7.902   6.124 -0.9998  1.5371  0.8889
   48MOL    H6416138   0.668   7.848   6.140  1.7232  1.3602  0.4882
   48MOL    H6516139   0.719   7.914   5.793  1.2561 -0.3468  0.8810
   48MOL    H6616140   0.689   7.761   5.608 -1.6490 -1.6223 -1.2114
   48MOL    H6716141   0.551   7.538   5.644 -0.0263 -1.5403  0.8334
   48MOL    H6816142   0.441   7.504   5.863 -0.7555  0.8027 -0.0093
   48MOL    H6916143   0.492   7.656   6.045 -1.2616 -1.1359 -0.6881
   48MOL    C7016144   0.866   7.968   6.030  0.2119 -0.3612 -0.1961
   48MOL    C7116145   0.924   7.955   6.168  0.5802  0.7152 -0.5147
   48MOL    C7216146   1.069   8.016   6.174  0.0596 -0.2716  0.6710
   48MOL    C7316147   1.084   0.066   6.232 -0.0779  0.3745 -0.3290
   48MOL    C7416148   1.208   0.119   6.252  0.2507 -0.1983  0.1588
   48MOL    C7516149   1.322   0.053   6.211 -0.2789 -0.3417  0.0369
   48MOL    C7616150   1.312   8.009   6.142  0.0777 -0.7989 -0.0323
   48MOL    C7716151   1.185   7.952   6.125 -0.1244 -0.2845 -0.1696
   48MOL    O7816152   0.930   7.820   6.214  0.2278 -0.2299 -1.0270
   48MOL    H7916153   0.881   7.880   5.968  0.4972  0.1419 -0.8498
   48MOL    H8016154   0.906   8.061   5.990 -1.2568  0.4746  0.2178
   48MOL    H8116155   0.864   8.023   6.228  0.6097  0.3125 -0.0326
   48MOL    H8216156   0.997   0.121   6.264  0.3395 -0.5050  2.4778
   48MOL    H8316157   1.207   0.222   6.286  1.0845  0.2432 -1.0945
   48MOL    H8416158   1.418   0.101   6.217 -0.5289  0.4272 -1.6142
   48MOL    H8516159   1.397   7.960   6.097 -0.5905 -0.7359 -1.3827
   48MOL    H8616160   1.187   7.855   6.079  0.8609 -0.5839  0.4735
   48MOL    C8716161   0.917   7.812   6.353 -0.0482 -0.0630  0.5667
   48MOL    C8816162   0.912   7.667   6.403  0.2377  0.0712 -0.1761
   48MOL    C8916163   0.853   7.652   6.544  0.4089 -0.3434  0.2424
   48MOL    C9016164   0.711   7.643   6.552  0.2854  0.0139  0.4127
   48MOL    C9116165   0.648   7.649   6.681  0.1885  0.6714  0.9667
   48MOL    C9216166   0.725   7.672   6.799  0.7999  0.1522  0.1715
   48MOL    C9316167   0.865   7.669   6.787  0.8698  0.0303  0.6009
   48MOL    C9416168   0.926   7.652   6.664 -0.6664 -0.7232  0.0429
   48MOL    O9516169   1.049   7.625   6.396  0.0266 -0.2414 -0.3923
   48MOL    H9616170   0.825   7.860   6.386  0.5015  0.9965  0.5666
   48MOL    H9716171   0.990   7.871   6.408 -0.4701  0.6043  0.4183
   48MOL    H9816172   0.854   7.605   6.334  0.6961 -0.6060  0.0461
   48MOL    H9916173   0.656   7.635   6.459  3.5705  1.0549 -1.7205
   48MOL   H10016174   0.540   7.652   6.686  0.1300 -2.5319  2.2773
   48MOL   H10116175   0.682   7.691   6.896  0.5060 -0.7483  0.2192
   48MOL   H10216176   0.941   7.678   6.863  0.7153 -0.2490  0.7896
   48MOL   H10316177   1.033   7.645   6.655 -0.8443 -1.2132 -2.1641
   48MOL   C10416178   1.063   7.485   6.383  0.0719  0.5013  0.2569
   48MOL   C10516179   1.215   7.448   6.411  0.2370  0.5822 -0.4048
   48MOL   C10616180   1.240   7.292   6.446 -0.4128  0.2980 -0.0499
   48MOL   C10716181   1.312   7.264   6.567  0.6765 -0.2230  1.1674
   48MOL   C10816182   1.337   7.137   6.613  0.3382  0.4084  0.1265
   48MOL   C10916183   1.297   7.031   6.534  0.1014  0.4951  0.0452
   48MOL   C11016184   1.215   7.053   6.418 -0.6927 -0.1315 -0.1480
   48MOL   C11116185   1.191   7.184   6.371 -0.2110 -0.1919  0.3053
   48MOL   O11216186   1.271   7.471   6.287 -0.2985 -0.1762 -0.3021
   48MOL   H11316187   1.002   7.429   6.453 -0.5023 -1.4921 -1.7848
   48MOL   H11416188   1.039   7.453   6.281  2.3426 -2.8111  0.6983
   48MOL   H11516189   1.259   7.511   6.488  1.7224 -1.9294  0.8402
   48MOL   H11616190   1.360   7.345   6.621 -1.3415  0.7717  1.5131
   48MOL   H11716191   1.387   7.128   6.708 -1.2417 -0.6864  0.8562
   48MOL   H11816192   1.304   6.925   6.553  0.6469  0.2644 -1.4102
   48MOL   H11916193   1.182   6.967   6.362 -0.1595 -1.0936  0.9991
   48MOL   H12016194   1.139   7.196   6.277 -0.9483  1.6194  0.9289
   48MOL   C12116195   1.347   7.599   6.277  0.0095  0.4764 -0.1942
   48MOL   C12216196   1.495   7.583   6.310 -0.0772 -0.0517 -0.1093
   48MOL   C12316197   1.576   7.695   6.246 -0.3830 -0.1709  0.3075
   48MOL   C12416198   1.686   7.657   6.166 -0.0001 -0.1897 -0.0260
   48MOL   C12516199   1.769   7.762   6.105 -0.4935  0.3701  0.1155
   48MOL   C12616200   1.744   7.892   6.139  0.4068  0.1410  0.1163
   48MOL   C12716201   1.630   7.933   6.210 -0.5837  0.4461 -0.7306
   48MOL   C12816202   1.551   7.834   6.274  0.2003 -0.0007 -0.4968
   48MOL   O12916203   1.519   7.581   6.450 -0.2102  0.5880  0.3115
   48MOL   H13016204   1.302   7.686   6.324  1.9707  0.9079  0.9498
   48MOL   H13116205   1.347   7.617   6.169 -2.5573  0.1343 -0.2702
   48MOL   H13216206   1.527   7.485   6.274 -0.4744  0.3969 -1.7314
   48MOL   H13316207   1.704   7.555   6.134  1.6405  0.7355 -2.1941
   48MOL   H13416208   1.855   7.747   6.042 -1.3122 -2.5337 -0.3724
   48MOL   H13516209   1.817   7.965   6.104 -1.1881  1.0825 -1.3304
   48MOL   H13616210   1.615   8.038   6.229 -1.4593  0.3217 -0.7154
   48MOL   H13716211   1.463   7.862   6.330  0.1800 -1.3605  0.1713
   48MOL   C13816212   1.649   7.541   6.487  0.0420  0.0990  0.0781
   48MOL   C13916213   1.652   7.490   6.627  0.2583 -0.3819 -0.9443
   48MOL   C14016214   1.790   7.446   6.679 -0.6111 -0.5236  0.5181
   48MOL   C14116215   1.911   7.448   6.598  0.2583  0.1714 -0.6238
   48MOL   C14216216   2.033   7.424   6.661  0.1908  0.6312 -0.2841
   48MOL   C14316217   2.041   7.392   6.799 -0.1312  0.0233  0.3413
   48MOL   C14416218   1.919   7.381   6.867 -0.0431 -0.0260 -0.4140
   48MOL   C14516219   1.795   7.400   6.809 -0.6372 -0.5091  0.3305
   48MOL   O14616220   1.589   7.573   6.721  0.4189  0.1183  0.3916
   48MOL   H14716221   1.721   7.619   6.463  0.9504 -0.8758 -0.3949
   48MOL   H14816222   1.676   7.460   6.421  2.6488  1.5099 -0.6412
   48MOL   H14916223   1.590   7.401   6.637 -0.4270  0.3519  1.8021
   48MOL   H15016224   1.917   7.462   6.491  1.6393  0.3898 -0.5306
   48MOL   H15116225   2.124   7.431   6.603  0.2618  0.8665 -0.1441
   48MOL   H15216226   2.133   7.371   6.852 -1.4772 -2.3556  1.8335
   48MOL   H15316227   1.929   7.341   6.967  2.2954 -1.9049 -1.3418
   48MOL   H15416228   1.713   7.390   6.879  0.9243 -0.0140  2.3105
   48MOL   C15516229   1.649   7.703   6.747  0.2557  0.0167  0.0672
   48MOL   C15616230   1.567   7.778   6.856  0.8817 -0.5761 -0.8316
   48MOL   C15716231   1.426   7.815   6.814  0.5199 -0.5501 -0.7719
   48MOL   C15816232   1.343   7.888   6.904  0.4818  0.2811  0.2582
   48MOL   C15916233   1.213   7.932   6.863  0.7987  0.2015  0.3006
   48MOL   C16016234   1.163   7.897   6.735 -0.0795  0.1784 -0.2172
   48MOL   C16116235   1.235   7.816   6.652  0.0787 -0.1903 -0.3870
   48MOL   C16216236   1.371   7.777   6.690 -0.0452 -0.2128 -0.4870
   48MOL   O16316237   1.577   7.707   6.980  1.1469  0.1179  0.5855
   48MOL   H16416238   1.663   7.758   6.654 -0.0512 -0.1745 -0.0931
   48MOL   H16516239   1.747   7.689   6.792  0.8674  0.6266 -1.0660
   48MOL   H16616240   1.625   7.870   6.870  1.4467 -0.7230 -2.1318
   48MOL   H16716241   1.387   7.916   6.999 -0.5647 -1.9644  1.4441
   48MOL   H16816242   1.156   7.986   6.938  0.3576 -0.8118  0.7009
   48MOL   H16916243   1.062   7.925   6.708  0.3371 -0.2959 -2.3273
   48MOL   H17016244   1.198   7.789   6.555 -2.8702 -1.0236  0.9143
   48MOL   H17116245   1.434   7.732   6.615  0.1874  0.7141 -0.8642
   48MOL   C17216246   1.701   7.724   7.045  0.2156 -0.0251  0.4392
   48MOL   C17316247   1.704   7.650   7.187 -0.7688  0.1841 -0.1814
   48MOL   C17416248   1.823   7.696   7.265 -0.2565 -0.1829  0.5726
   48MOL   C17516249   1.809   7.796   7.363  0.4365 -0.7618 -0.1814
   48MOL   C17616250   1.918   7.852   7.433 -0.0009 -0.7136 -0.2129
   48MOL   C17716251   2.045   7.803   7.398  0.5602 -0.0395 -0.7367
   48MOL   C17816252   2.067   7.710   7.298 -0.1183  0.2738 -0.5473
   48MOL   C17916253   1.952   7.649   7.238 -0.2776 -0.3986 -0.5180
   48MOL   O18016254   1.709   7.505   7.165 -0.2936 -0.8804 -0.1709
   48MOL   H18116255   1.786   7.691   6.985  0.1174  3.5830 -1.8547
   48MOL   H18216256   1.721   7.832   7.051 -0.9798  0.2679 -0.8576
   48MOL   H18316257   1.615   7.670   7.247 -2.5876 -2.4873 -1.8767
   48MOL   H18416258   1.707   7.823   7.385 -0.1767 -2.2861 -1.0268
   48MOL   H18516259   1.903   7.927   7.509 -1.6399 -0.8905 -0.3457
   48MOL   H18616260   2.131   7.841   7.452 -1.4330  2.3078  0.8808
   48MOL   H18716261   2.164   7.667   7.282 -0.1461  0.4659 -1.2893
   48MOL   H18816262   1.970   7.581   7.156 -0.2062 -0.7220 -0.2333
   48MOL   C18916263   1.687   7.432   7.286 -0.3224  0.1663  0.4533
   48MOL   C19016264   1.726   7.284   7.252 -0.4280  0.1971 -0.3118
   48MOL   C19116265   1.880   7.251   7.235  0.8795 -0.4261 -0.1573
   48MOL   C19216266   1.982   7.321   7.302  0.1161  0.2089  0.0936
   48MOL   C19316267   2.119   7.286   7.286  0.0614 -0.0457  0.0496
   48MOL   C19416268   2.151   7.200   7.186  0.0472 -0.0915  0.1208
   48MOL   C19516269   2.052   7.136   7.105 -0.0749 -0.5298 -0.1941
   48MOL   C19616270   1.917   7.166   7.131 -0.6357  0.6913  0.8427
   48MOL   O19716271   1.655   7.237   7.135  0.1036  0.0994 -0.2868
   48MOL   H19816272   1.755   7.478   7.358 -1.7422  2.0197  0.6577
   48MOL   H19916273   1.584   7.440   7.318 -0.9012  0.9581 -1.5134
   48MOL   H20016274   1.701   7.227   7.342 -1.8394 -0.7576 -1.2952
   48MOL   H20116275   1.964   7.392   7.381 -1.6806 -0.2353  0.0877
   48MOL   H20216276   2.190   7.337   7.349 -1.3455  0.3598  1.3505
   48MOL   H20316277   2.258   7.182   7.182 -0.3815 -2.3652 -1.9364
   48MOL   H20416278   2.094   7.071   7.030  0.6455 -0.8067  0.4408
   48MOL   H20516279   1.836   7.117   7.079  1.1357 -3.7678  2.0631
   48MOL   C20616280   1.517   7.263   7.123  1.3821  0.4726 -0.3667
   48MOL   C20716281   1.465   7.191   7.000  0.0264 -0.6458 -0.3201
   48MOL   C20816282   1.339   7.259   6.951  0.1142  0.2621 -0.0389
   48MOL   C20916283   1.217   7.189   6.948 -0.5947 -0.2064  0.2389
   48MOL   C21016284   1.110   7.247   6.874 -0.8518  0.2216 -0.0661
   48MOL   C21116285   1.118   7.378   6.819  0.5043  0.4815  0.0893
   48MOL   C21216286   1.237   7.453   6.837  0.1767  0.5352 -0.5603
   48MOL   C21316287   1.346   7.387   6.897 -0.1706  0.3414  0.0604
   48MOL   O21416288   1.439   7.055   7.033  0.3519 -0.2383 -0.3371
   48MOL   H21516289   1.451   7.246   7.208  1.9195 -3.6625 -0.6540
   48MOL   H21616290   1.510   7.369   7.098 -1.3214  0.4332  0.0088
   48MOL   H21716291   1.538   7.204   6.920 -1.7974 -2.7460 -2.4322
   48MOL   H21816292   1.209   7.090   6.990  1.3209  0.2714  1.8022
   48MOL   H21916293   1.020   7.190   6.854 -1.1944  0.6455  0.2597
   48MOL   H22016294   1.044   7.427   6.758  0.6949 -0.0956 -0.6078
   48MOL   H22116295   1.242   7.546   6.782 -1.3025 -0.1328 -1.8470
   48MOL   H22216296   1.440   7.440   6.894 -0.8279  1.4885 -0.8172
   48MOL   C22316297   1.547   6.966   7.005  0.0728  0.2988 -0.3593
   48MOL   C22416298   1.494   6.819   7.040 -0.8051 -1.1222  0.2602
   48MOL   C22516299   1.404   6.805   7.164 -0.3706  0.1385  0.8313
   48MOL   C22616300   1.268   6.826   7.151  0.3152  0.5724 -0.2306
   48MOL   C22716301   1.182   6.817   7.258  0.4476 -0.0216 -0.3405
   48MOL   C22816302   1.231   6.787   7.384  0.7607 -0.4472 -0.2030
   48MOL   C22916303   1.371   6.762   7.399 -0.4140  0.7430  0.0711
   48MOL   C23016304   1.458   6.774   7.292 -0.0828 -0.1664 -0.4167
   48MOL   O23116305   1.437   6.759   6.923 -0.1033  0.0035  0.4446
   48MOL   H23216306   1.595   6.954   6.907 -0.6631  0.3523 -0.7307
   48MOL   H23316307   1.625   6.997   7.075  0.3961  1.3477 -1.1693
   48MOL   H23416308   1.578   6.750   7.054 -1.5763 -2.4106 -1.2887
   48MOL   H23516309   1.224   6.855   7.057  1.7805  1.6743 -0.5907
   48MOL   H23616310   1.075   6.828   7.247  0.2048 -1.4406  0.4750
   48MOL   H23716311   1.177   6.779   7.477 -0.5211  1.7639 -0.7162
   48MOL   H23816312   1.405   6.731   7.497 -0.2990 -1.1708 -0.5598
   48MOL   H23916313   1.565   6.761   7.304 -0.0641 -0.5257 -0.9412
   48MOL   C24016314   1.394   6.622   6.928  0.2978  0.5179  0.7018
   48MOL   C24116315   1.345   6.584   6.787  0.8350 -0.6592  0.4494
   48MOL   C24216316   1.366   6.434   6.767 -0.4928 -0.4253  0.2232
   48MOL   C24316317   1.490   6.388   6.715 -0.2479 -0.0052  0.5402
   48MOL   C24416318   1.510   6.252   6.699 -0.9233  0.8204  0.6106
   48MOL   C24516319   1.408   6.163   6.736  0.0768 -0.2965  0.3685
   48MOL   C24616320   1.281   6.208   6.777  0.4968 -0.1586 -0.1996
   48MOL   C24716321   1.264   6.341   6.805 -0.0512 -0.2536  0.1127
   48MOL   O24816322   1.209   6.619   6.767 -0.2827 -0.2885  0.3454
   48MOL   H24916323   1.472   6.557   6.967 -0.7788 -1.5141 -0.4578
   48MOL   H25016324   1.308   6.606   6.993 -1.1086  1.2967 -0.9221
   48MOL   H25116325   1.411   6.636   6.717 -2.7815  1.5098 -1.4956
   48MOL   H25216326   1.563   6.464   6.690  0.7578 -0.8317  0.9521
   48MOL   H25316327   1.611   6.226   6.672 -1.4378 -1.0698  0.4672
   48MOL   H25416328   1.426   6.057   6.723  1.1328  0.0590 -1.0852
   48MOL   H25516329   1.214   6.129   6.809  1.2062 -1.2005 -1.2135
   48MOL   H25616330   1.172   6.377   6.848  0.2894  2.2400 -1.1482
   48MOL   C25716331   1.176   6.624   6.633  0.1294 -0.4527  0.1315
   48MOL   C25816332   1.027   6.655   6.629 -0.6183 -0.0616 -0.1264
   48MOL   C25916333   0.945   6.555   6.554 -0.2009 -0.0479  0.0508
   48MOL   C26016334   0.929   6.423   6.612 -1.0560 -0.5372 -0.6490
   48MOL   C26116335   0.857   6.318   6.549 -0.4359  0.4611 -0.5067
   48MOL   C26216336   0.795   6.350   6.428  0.8694  0.6684  0.1305
   48MOL   C26316337   0.806   6.480   6.377  0.0474 -0.0900  1.2415
   48MOL   C26416338   0.875   6.583   6.436 -0.6959 -0.5944 -0.3451
   48MOL   O26516339   1.016   6.786   6.585  0.0253 -1.1042 -0.0683
   48MOL   H26616340   1.193   6.527   6.586 -1.9604 -2.0252  2.5034
   48MOL   H26716341   1.241   6.691   6.577  0.9669 -1.4797 -0.1424
   48MOL   H26816342   0.987   6.650   6.730 -0.0555 -3.3473 -0.0037
   48MOL   H26916343   0.981   6.405   6.705 -0.7351 -0.6905 -0.8584
   48MOL   H27016344   0.852   6.216   6.583 -0.6737  0.1206 -1.5417
   48MOL   H27116345   0.738   6.274   6.375  0.1400  0.6898  0.8697
   48MOL   H27216346   0.748   6.495   6.288 -0.1519  0.4341  1.4618
   48MOL   H27316347   0.883   6.677   6.384 -0.3632  0.1621  1.0636
   48MOL   C27416348   0.897   6.851   6.628  0.1579 -0.3886 -0.4431
   48MOL   C27516349   0.878   6.984   6.553 -0.0953 -0.1999  0.0864
   48MOL   C27616350   0.780   7.067   6.633 -0.3275 -0.4338  0.5985
   48MOL   C27716351   0.651   7.020   6.660 -0.9217 -0.5382  0.0013
   48MOL   C27816352   0.572   7.087   6.753 -0.3995 -0.3854 -0.3735
   48MOL   C27916353   0.617   7.205   6.811  0.3638 -0.8172 -0.3837
   48MOL   C28016354   0.738   7.261   6.768  0.2954 -0.5232 -0.2259
   48MOL   C28116355   0.816   7.204   6.667  1.0830 -0.1767 -0.8651
   48MOL   O28216356   0.832   6.948   6.425  0.0384 -0.3214 -0.3493
   48MOL   H28316357   0.811   6.784   6.628  0.0394 -0.2382 -0.2523
   48MOL   H28416358   0.921   6.856   6.735  2.5756 -1.5916 -0.9003
   48MOL   H28516359   0.972   7.029   6.520  1.3437 -1.5944  2.1471
   48MOL   H28616360   0.624   6.919   6.634 -0.7668 -1.2286  2.4495
   48MOL   H28716361   0.473   7.048   6.770  0.5436 -3.2325 -1.1110
   48MOL   H28816362   0.548   7.238   6.887 -1.3740 -0.4713 -2.0846
   48MOL   H28916363   0.780   7.348   6.816  1.0883 -0.5691 -0.8237
   48MOL   H29016364   0.907   7.256   6.641  1.6077 -0.7398 -0.1715
   48MOL   C29116365   0.825   7.053   6.324  0.3259 -0.1428 -0.2655
   48MOL   C29216366   0.755   6.993   6.197 -0.3910 -0.6350  0.0200
   48MOL   C29316367   0.615   6.946   6.233  0.0593  0.3430  0.1648
   48MOL   C29416368   0.599   6.814   6.275  0.3114  0.0410 -0.1377
   48MOL   C29516369   0.473   6.762   6.303 -0.4356 -0.2986 -0.3140
   48MOL   C29616370   0.358   6.842   6.303  0.2491  0.4580 -0.5449
   48MOL   C29716371   0.371   6.972   6.256  0.3311 -0.5422 -0.2432
   48MOL   C29816372   0.496   7.028   6.220  0.3937 -0.2753  0.2566
   48MOL   O29916373   0.769   7.090   6.085  0.1669 -0.1814 -0.3133
   48MOL   H30016374   0.929   7.075   6.298  0.6638 -2.1029 -0.6651
   48MOL   H30116375   0.779   7.144   6.361 -2.0913 -1.5415  0.2551
   48MOL   H30216376   0.814   6.906   6.166 -1.9962 -1.4813 -0.6787
   48MOL   H30316377   0.688   6.752   6.277 -0.9445 -1.8886 -2.4167
   48MOL   H30416378   0.467   6.659   6.334 -0.9532 -0.6848 -1.6929
   48MOL   H30516379   0.261   6.805   6.334  0.1083  1.9644  0.8636
   48MOL   H30616380   0.288   7.040   6.248 -1.1433 -2.4222 -1.2554
   48MOL   H30716381   0.508   7.132   6.192  1.2385  0.0009  1.5907
   48MOL   C30816382   0.780   7.034   5.958  0.2784  0.0670  0.0319
   48MOL   C30916383   0.652   6.980   5.896 -0.7794 -0.1691 -0.1554
   48MOL   C31016384   0.645   6.997   5.749  0.0186  0.4195 -0.1313
   48MOL   C31116385   0.565   7.093   5.691  0.2219 -0.0194 -0.1632
   48MOL   C31216386   0.584   7.129   5.556  0.4750  0.1198 -0.0906
   48MOL   C31316387   0.680   7.063   5.474 -0.7771 -0.1994  0.6803
   48MOL   C31416388   0.758   6.965   5.534  0.3278  0.3417  0.2088
   48MOL   C31516389   0.739   6.926   5.668 -0.0155  0.1804  0.2886
   48MOL   O31616390   0.645   6.842   5.941 -0.3777  0.4050 -0.2492
   48MOL   H31716391   0.866   6.967   5.955  0.4532  0.3693 -1.9854
   48MOL   H31816392   0.812   7.111   5.888  2.8840 -0.2233  0.8449
   48MOL   H31916393   0.570   7.037   5.940  1.2218  2.4663  0.2139
   48MOL   H32016394   0.500   7.155   5.751  1.4890 -0.7693  2.0621
   48MOL   H32116395   0.519   7.202   5.511  0.4058  0.4432  0.5260
   48MOL   H32216396   0.695   7.087   5.370 -1.0362 -1.3839  0.3655
   48MOL   H32316397   0.825   6.902   5.478 -1.1732 -0.9709 -0.1552
   48MOL   H32416398   0.805   6.858   5.721 -1.6474 -0.1755  1.8986
   48MOL   C32516399   0.553   6.754   5.878  0.4596  0.1280 -0.4659
   48MOL   C32616400   0.537   6.628   5.968 -0.3270 -0.4924 -0.3105
   48MOL   C32716401   0.462   6.522   5.899 -0.1517  0.3088 -0.0388
   48MOL   C32816402   0.324   6.532   5.895 -0.0883 -0.3322  0.4083
   48MOL   C32916403   0.249   6.438   5.823 -0.1372 -0.3444 -0.2166
   48MOL   C33016404   0.308   6.324   5.765 -0.2070 -0.3702  0.2767
   48MOL   C33116405   0.449   6.310   5.779  0.4260  0.1141  0.1701
   48MOL   C33216406   0.530   6.410   5.834 -0.5995  0.9256 -0.3250
   48MOL   O33316407   0.673   6.598   5.999  0.1310  0.5666  0.3241
   48MOL   H33416408   0.602   6.722   5.786 -0.7837  0.4331 -1.2511
   48MOL   H33516409   0.457   6.802   5.858  1.4979  2.4604 -0.0850
   48MOL   H33616410   0.487   6.661   6.059 -0.7852 -1.4224 -0.2182
   48MOL   H33716411   0.270   6.617   5.934 -1.9121 -1.0066 -0.5876
   48MOL   H33816412   0.141   6.445   5.818 -0.4113 -3.1756  0.3556
   48MOL   H33916413   0.250   6.250   5.713 -0.3049 -1.6980  2.2080
   48MOL   H34016414   0.496   6.221   5.741 -1.8848 -1.1955  0.2579
   48MOL   H34116415   0.637   6.396   5.847 -0.7921  0.7152  1.1034
   48MOL   H34216416   0.709   6.684   6.008 -1.0337  1.0498  0.4452
   49MOL     C116417   7.225   6.114   7.849 -0.4204 -0.5142 -0.4503
   49MOL     C216418   7.302   6.242   7.894  0.2913 -0.1260 -0.1208
   49MOL     C316419   7.227   6.376   7.857 -0.1786 -0.3056  0.2001
   49MOL     C416420   7.188   6.462   7.957 -0.6681 -0.1185  0.2286
   49MOL     C516421   7.125   6.581   7.915  0.3379  0.4536 -1.1474
   49MOL     C616422   7.088   6.610   7.784 -0.1246  0.8811  0.2218
   49MOL     C716423   7.129   6.520   7.690 -0.7148  0.3266  0.2048
   49MOL     C816424   7.198   6.404   7.722 -0.0949  0.0568  0.2414
   49MOL     O916425   7.431   6.229   7.837 -0.0403  0.0979 -0.1750
   49MOL    H1016426   7.270   6.025   7.894 -0.1869 -1.5834 -2.7060
   49MOL    H1116427   7.125   6.113   7.892 -0.6085 -0.5895 -0.8862
   49MOL    H1216428   7.318   6.235   8.002  0.6669 -1.1545 -0.2429
   49MOL    H1316429   7.212   6.446   8.061  2.6283  0.9740 -0.3191
   49MOL    H1416430   7.091   6.655   7.986 -0.4531  1.1755 -2.2608
   49MOL    H1516431   7.057   6.709   7.755 -1.8633  0.6103  1.1114
   49MOL    H1616432   7.109   6.544   7.586  0.4550  2.2718  0.4093
   49MOL    H1716433   7.220   6.329   7.647  0.3937 -1.6945  2.1023
   49MOL    H1816434   7.226   6.109   7.740  0.7062  1.2618 -0.5518
   49MOL    C1916435   7.538   6.317   7.872  0.0214  0.3417  0.1777
   49MOL    C2016436   7.583   6.309   8.018  0.0253  0.6742 -0.4384
   49MOL    C2116437   7.599   6.166   8.070  0.1390 -0.0481  0.4306
   49MOL    C2216438   7.515   6.110   0.085  0.1161  0.5281  0.1508
   49MOL    C2316439   7.533   5.974   0.127 -0.1899 -0.1967 -0.1981
   49MOL    C2416440   7.632   5.897   0.063 -0.0276  0.5306  0.2707
   49MOL    C2516441   7.724   5.957   8.055  0.1605 -0.7399  0.3407
   49MOL    C2616442   7.705   6.089   8.016 -0.1505 -0.1716  0.3182
   49MOL    O2716443   7.507   6.391   0.027  0.4854 -0.4469  0.5150
   49MOL    H2816444   7.621   6.286   7.807 -0.1484  1.3747 -0.5442
   49MOL    H2916445   7.519   6.417   7.834 -1.3765  0.1141  0.2803
   49MOL    H3016446   7.684   6.348   8.004 -0.3410  1.1872 -1.7582
   49MOL    H3116447   7.428   6.165   0.117  0.3575  1.8664 -1.4294
   49MOL    H3216448   7.463   5.915   0.185  1.2121 -1.2075  0.5191
   49MOL    H3316449   7.644   5.790   0.077  0.3470  0.4157 -0.8685
   49MOL    H3416450   7.787   5.886   8.005 -2.0640 -0.6239 -2.7721
   49MOL    H3516451   7.766   6.131   7.937  0.5097 -1.6451  0.0270
   49MOL    C3616452   7.576   6.413   0.148 -0.8826  0.2507 -0.4942
   49MOL    C3716453   7.562   6.558   0.202  0.1367 -0.1686 -0.1445
   49MOL    C3816454   7.419   6.596   0.230  0.1537 -0.3709 -0.0647
   49MOL    C3916455   7.344   6.659   0.132  0.6614 -0.5026  0.3619
   49MOL    C4016456   7.219   6.722   0.154 -0.4891  0.4717  0.1009
   49MOL    C4116457   7.151   6.686   0.272 -0.2438 -0.2880 -0.1063
   49MOL    C4216458   7.228   6.618   0.374 -0.7230 -0.1757 -0.3090
   49MOL    C4316459   7.360   6.573   0.354  0.0099 -1.0103  0.4573
   49MOL    O4416460   7.622   6.649   0.105 -0.0416 -0.3944  0.1335
   49MOL    H4516461   7.543   6.357   0.235 -1.2332 -0.0175 -0.7963
   49MOL    H4616462   7.680   6.382   0.138 -1.1011 -1.5565  2.4204
   49MOL    H4716463   7.626   6.563   0.290 -0.8860  2.0816  0.5011
   49MOL    H4816464   7.392   6.678   0.037 -0.7864  0.1947 -0.2602
   49MOL    H4916465   7.164   6.791   0.091  0.9536 -0.4673 -2.2218
   49MOL    H5016466   7.054   6.725   0.298 -1.2004  0.0926 -3.9569
   49MOL    H5116467   7.185   6.601   0.471  0.5782 -0.2783  0.2605
   49MOL    H5216468   7.419   6.522   0.429 -0.4141  0.8060  2.0558
   49MOL    C5316469   7.645   6.780   0.148  0.0345  0.0765  0.3831
   49MOL    C5416470   7.675   6.877   0.037 -0.3091 -0.3069 -0.0757
   49MOL    C5516471   7.564   6.881   8.016 -0.4426 -0.0607 -0.4276
   49MOL    C5616472   7.463   6.974   8.036 -0.2505  0.0754 -0.1039
   49MOL    C5716473   7.351   6.975   7.951 -0.2279  0.5415  0.0005
   49MOL    C5816474   7.330   6.881   7.848 -1.1825  0.7924  0.1877
   49MOL    C5916475   7.434   6.782   7.830  0.1622 -0.1074  0.5427
   49MOL    C6016476   7.542   6.779   7.918  0.9068 -0.6973  0.2329
   49MOL    O6116477   7.707   7.003   0.093 -0.6270  0.5058 -0.2386
   49MOL    H6216478   7.561   6.810   0.211 -0.5126  0.2006 -0.3926
   49MOL    H6316479   7.730   6.779   0.216 -0.4077  2.3038  1.0109
   49MOL    H6416480   7.763   6.837   8.067 -1.3054 -2.6456  0.0213
   49MOL    H6516481   7.470   7.040   0.041 -0.4671 -0.1310  0.0736
   49MOL    H6616482   7.275   7.047   7.977 -1.3093 -0.6354  0.1356
   49MOL    H6716483   7.234   6.879   7.798 -2.4277  2.5819  2.4011
   49MOL    H6816484   7.421   6.704   7.756 -1.6837  1.6191 -1.0123
   49MOL    H6916485   7.613   6.698   7.913  0.4004 -1.1295 -0.0397
   49MOL    C7016486   7.803   7.072   0.011 -0.3377 -0.9674 -0.2455
   49MOL    C7116487   7.805   7.220   0.047 -0.3852 -0.7378 -0.0005
   49MOL    C7216488   7.671   7.290   0.038  0.7550 -0.0803 -0.2375
   49MOL    C7316489   7.592   7.311   0.156  1.2048 -0.0259 -0.0761
   49MOL    C7416490   7.466   7.368   0.155 -1.0990 -0.0415 -0.0028
   49MOL    C7516491   7.404   7.409   0.032 -0.0859  0.5912 -0.1217
   49MOL    C7616492   7.482   7.393   7.998 -0.3256  0.3253  0.4318
   49MOL    C7716493   7.609   7.334   8.002 -0.0207  0.2586  0.0136
   49MOL    O7816494   7.904   7.290   8.050  0.5444  0.4438 -0.5530
   49MOL    H7916495   7.898   7.020   0.023 -0.3742 -0.9455  0.1402
   49MOL    H8016496   7.794   7.058   7.983 -1.1732  1.3617 -0.5105
   49MOL    H8116497   7.832   7.216   0.152  0.5472  2.3982 -0.0882
   49MOL    H8216498   7.639   7.284   0.250 -1.8681  0.3601  1.6326
   49MOL    H8316499   7.419   7.387   0.250  0.8625 -0.1749  1.0277
   49MOL    H8416500   7.315   7.470   0.020 -0.0333  0.4383 -1.3433
   49MOL    H8516501   7.439   7.432   7.907 -0.7421  0.0957  0.5335
   49MOL    H8616502   7.668   7.323   7.912 -0.3236  2.5906 -0.4945
   49MOL    C8716503   7.959   7.402   0.038 -0.5516 -0.3731 -0.8033
   49MOL    C8816504   8.071   7.474   8.039 -0.4307  0.0494 -0.0370
   49MOL    C8916505   0.099   7.534   0.057  0.1204  0.9488 -0.5404
   49MOL    C9016506   0.105   7.672   0.080 -0.1003  0.3548 -0.4034
   49MOL    C9116507   0.193   7.734   0.170 -0.0709  0.5590  0.5260
   49MOL    C9216508   0.286   7.648   0.231  0.3939 -1.0042  0.7443
   49MOL    C9316509   0.289   7.513   0.207  0.3253  0.4602  0.5319
   49MOL    C9416510   0.195   7.448   0.116 -0.2215 -0.4804 -0.5211
   49MOL    O9516511   8.011   7.570   7.969  0.4784 -0.1584 -0.3704
   49MOL    H9616512   8.018   7.367   0.123 -0.8185  2.0050  0.4007
   49MOL    H9716513   7.880   7.470   0.066  1.3962  1.2785  0.8427
   49MOL    H9816514   0.041   7.404   7.972 -0.4262  0.5476 -0.5542
   49MOL    H9916515   0.041   7.743   0.029 -0.5942  0.2884  0.1322
   49MOL   H10016516   0.178   7.840   0.182  1.3209  0.8668 -0.2785
   49MOL   H10116517   0.359   7.698   0.292 -0.0286  1.1009 -0.4558
   49MOL   H10216518   0.374   7.456   0.242  0.7184 -0.3065 -1.5655
   49MOL   H10316519   0.204   7.346   0.082  0.6346 -0.9185  0.9562
   49MOL   C10416520   7.925   7.533   7.854 -0.3156 -0.0490  0.7990
   49MOL   C10516521   7.910   7.653   7.764  0.3081  0.4968 -0.6379
   49MOL   C10616522   7.892   7.607   7.620 -0.0490  0.0776 -0.5042
   49MOL   C10716523   7.769   7.559   7.568 -0.3268 -0.2393 -0.0487
   49MOL   C10816524   7.766   7.508   7.441 -0.0747 -0.1019 -0.1771
   49MOL   C10916525   7.875   7.507   7.356 -0.0033 -0.6731  0.1233
   49MOL   C11016526   7.991   7.565   7.405 -0.2672 -0.3453 -0.1504
   49MOL   C11116527   8.004   7.611   7.535  0.1924  0.4108 -0.1241
   49MOL   O11216528   7.800   7.730   7.807 -0.1509  0.2223  0.1148
   49MOL   H11316529   7.983   7.459   7.799  1.5372  0.2851  2.2454
   49MOL   H11416530   7.831   7.481   7.873 -0.9592  1.1563  0.9422
   49MOL   H11516531   8.006   7.704   7.775  1.4977 -1.7333 -0.3340
   49MOL   H11616532   7.686   7.546   7.636 -0.1150 -2.9689 -0.2779
   49MOL   H11716533   7.675   7.455   7.416 -0.6686  1.6652 -1.8759
   49MOL   H11816534   7.877   7.467   7.256  0.4316 -1.8331  0.5910
   49MOL   H11916535   8.079   7.577   7.343  0.2526 -1.0980  0.4236
   49MOL   H12016536   0.024   7.631   7.570  0.1354 -0.1707  0.3962
   49MOL   C12116537   7.807   7.873   7.777 -0.1672 -0.2252  0.7265
   49MOL   C12216538   7.696   7.903   7.669  0.6111 -0.3841  0.2623
   49MOL   C12316539   7.560   7.906   7.743 -0.0985  0.5545  0.4956
   49MOL   C12416540   7.522   8.012   7.825 -0.3953 -0.8302 -0.0073
   49MOL   C12516541   7.407   7.998   7.908 -0.5505  0.9159  0.3163
   49MOL   C12616542   7.333   7.876   7.905 -0.7979  0.4107  0.1442
   49MOL   C12716543   7.372   7.763   7.829  0.7313  1.0879  0.0407
   49MOL   C12816544   7.480   7.787   7.737  0.3240  0.0927 -0.5184
   49MOL   O12916545   7.720   8.029   7.608 -0.1158  0.0764  0.1610
   49MOL   H13016546   7.908   7.896   7.744  0.0583 -0.2628  1.3932
   49MOL   H13116547   7.796   7.937   7.865  0.5737  1.5730 -0.4607
   49MOL   H13216548   7.692   7.823   7.595  0.6142  1.1536 -1.4503
   49MOL   H13316549   7.585   0.018   7.838  0.4868 -1.6094  0.9417
   49MOL   H13416550   7.376   8.076   7.976  1.3619  1.2329  0.8634
   49MOL   H13516551   7.248   7.864   7.971 -1.0668  2.1955  0.1308
   49MOL   H13616552   7.331   7.664   7.842  0.8648  1.0005 -0.2134
   49MOL   H13716553   7.511   7.702   7.679 -0.5760 -0.7538  0.2291
   49MOL   C13816554   7.822   8.025   7.509  0.6485 -0.1884  0.1504
   49MOL   C13916555   7.850   0.087   7.453 -0.4307 -0.5023 -0.7284
   49MOL   C14016556   7.842   0.198   7.558 -0.5773  0.8058 -0.2913
   49MOL   C14116557   7.787   0.326   7.524 -0.1719  0.0429  0.2206
   49MOL   C14216558   7.769   0.426   7.626  0.9576 -0.0247 -0.3381
   49MOL   C14316559   7.818   0.402   7.754 -0.3315 -0.1731 -0.3028
   49MOL   C14416560   7.852   0.271   7.788  0.0241 -0.1540  0.2014
   49MOL   C14516561   7.879   0.174   7.692  0.0125 -0.0760  0.5006
   49MOL   O14616562   7.979   0.080   7.389 -0.6349 -0.1777 -0.3833
   49MOL   H14716563   7.785   7.959   7.431  0.7097  0.2836 -0.2713
   49MOL   H14816564   7.913   7.988   7.556  0.7133 -3.6595 -2.4847
   49MOL   H14916565   7.781   0.106   7.371  0.3807 -1.5886 -1.6942
   49MOL   H15016566   7.745   0.339   7.426 -0.9358 -1.7880  0.2657
   49MOL   H15116567   7.739   0.525   7.597  0.2889  0.2434  1.2087
   49MOL   H15216568   7.828   0.477   7.831 -2.7109 -0.4717  0.3141
   49MOL   H15316569   7.893   0.259   7.887 -2.1288 -0.4558  1.0852
   49MOL   H15416570   7.924   0.083   7.728 -0.2820 -0.7072 -0.7391
   49MOL   C15516571   8.029   0.195   7.326 -0.4178 -0.2494  0.3529
   49MOL   C15616572   0.086   0.163   7.267 -0.0225  0.1460  0.5904
   49MOL   C15716573   0.076   0.101   7.122  0.3437  0.8159 -0.7116
   49MOL   C15816574   0.034   8.048   7.113 -0.5750 -0.7661  0.0377
   49MOL   C15916575   0.022   7.976   6.987  0.0637 -0.0832 -0.1129
   49MOL   C16016576   0.043   8.052   6.869  0.6239  0.2562  0.0227
   49MOL   C16116577   0.077   0.109   6.878  0.0487 -0.2028  0.5113
   49MOL   C16216578   0.105   0.168   7.003 -0.2364  0.4872 -0.3066
   49MOL   O16316579   0.161   0.288   7.268 -0.0586  0.2256  0.1164
   49MOL   H16416580   8.044   0.271   7.403 -0.1789  1.5165 -1.3986
   49MOL   H16516581   7.962   0.229   7.247  1.3931  0.4971 -0.8908
   49MOL   H16616582   0.121   0.088   7.338 -1.8106  0.2161  1.5592
   49MOL   H16716583   0.008   8.007   7.209  1.0060 -0.4388  0.6238
   49MOL   H16816584   8.061   7.876   6.989 -1.5660  0.4797 -2.3315
   49MOL   H16916585   0.037   8.002   6.773 -0.3283  3.1351 -1.4638
   49MOL   H17016586   0.090   0.163   6.785 -2.8164 -0.1298  0.1097
   49MOL   H17116587   0.117   0.275   6.998  1.5111  0.4474  2.1454
   49MOL   C17216588   0.301   0.273   7.266  0.3520 -0.0758 -0.1706
   49MOL   C17316589   0.356   0.406   7.309 -0.3631  1.1108  0.0484
   49MOL   C17416590   0.281   0.524   7.242 -0.6467 -0.2219 -0.1948
   49MOL   C17516591   0.332   0.586   7.127 -0.0936  0.7295  0.5983
   49MOL   C17616592   0.277   0.701   7.064 -0.4707 -0.4249  0.2824
   49MOL   C17716593   0.164   0.751   7.130 -0.0903 -0.0786 -0.0809
   49MOL   C17816594   0.102   0.684   7.238  0.8509 -0.3258  0.5040
   49MOL   C17916595   0.168   0.577   7.303  0.3027  0.1792  0.5941
   49MOL   O18016596   0.494   0.406   7.275  0.7581 -0.3626  0.5749
   49MOL   H18116597   0.325   0.184   7.324 -1.9796 -0.7393 -0.1693
   49MOL   H18216598   0.322   0.257   7.160 -0.7289  0.1317 -0.4297
   49MOL   H18316599   0.344   0.413   7.417 -1.9512  0.3123 -0.0616
   49MOL   H18416600   0.425   0.545   7.090  0.1697  1.4891  0.4029
   49MOL   H18516601   0.326   0.762   6.989 -0.9014 -0.4365 -0.0076
   49MOL   H18616602   0.122   0.844   7.097  0.0180 -0.6916 -2.0078
   49MOL   H18716603   0.015   0.731   7.282  0.8067  0.0630  0.0018
   49MOL   H18816604   0.128   0.543   7.398 -1.7119  1.6894  0.3407
   49MOL   C18916605   0.573   0.301   7.336  0.0906 -0.1992 -0.7731
   49MOL   C19016606   0.591   0.326   7.492 -0.1741  0.7367  0.4034
   49MOL   C19116607   0.725   0.279   7.546 -0.0283 -0.1521 -0.8253
   49MOL   C19216608   0.813   0.372   7.608 -0.6509  0.7959  0.4650
   49MOL   C19316609   0.943   0.331   7.646 -0.4497 -0.6286 -1.1477
   49MOL   C19416610   0.990   0.199   7.633  0.5675 -0.2453 -0.7710
   49MOL   C19516611   0.903   0.105   7.570 -0.9019  0.2855 -1.0147
   49MOL   C19616612   0.771   0.143   7.539  0.5456  0.2700  1.1617
   49MOL   O19716613   0.475   0.259   7.557 -0.4166 -0.2547  0.3617
   49MOL   H19816614   0.553   0.196   7.318  0.4664 -0.3194 -0.5087
   49MOL   H19916615   0.669   0.310   7.284 -0.7741 -1.0303 -2.5402
   49MOL   H20016616   0.578   0.435   7.498 -0.9036  0.7248 -0.7350
   49MOL   H20116617   0.793   0.478   7.619  0.8126  0.9986  1.2359
   49MOL   H20216618   1.000   0.402   7.704 -2.2608 -2.0614  2.5327
   49MOL   H20316619   1.089   0.170   7.663  0.2215 -0.8319 -0.1819
   49MOL   H20416620   0.949   0.009   7.552  1.2132  0.8524  1.0838
   49MOL   H20516621   0.706   0.072   7.490  2.5597 -0.5203 -0.4454
   49MOL   C20616622   0.483   0.284   7.699 -0.4482 -0.1268  0.3360
   49MOL   C20716623   0.348   0.263   7.767  0.6814 -0.1736  0.5480
   49MOL   C20816624   0.286   0.125   7.742 -0.0544 -0.1214 -0.2527
   49MOL   C20916625   0.281   0.028   7.848 -0.0591  0.0850  0.3022
   49MOL   C21016626   0.213   7.986   7.833 -0.5525  0.4973  0.1504
   49MOL   C21116627   0.148   7.960   7.715  0.1481 -0.4415 -0.0273
   49MOL   C21216628   0.140   8.053   7.608  0.1814 -0.5058 -0.1855
   49MOL   C21316629   0.214   0.095   7.623 -1.0457 -0.6550  0.4311
   49MOL   O21416630   0.263   0.365   7.714  0.4106  0.5258 -0.2611
   49MOL   H21516631   0.549   0.208   7.740  2.7127  0.1745 -3.8440
   49MOL   H21616632   0.533   0.380   7.715  0.8847 -0.8726  0.6682
   49MOL   H21716633   0.374   0.279   7.872  0.5618  0.8825  0.4212
   49MOL   H21816634   0.337   0.057   7.937 -1.5773  1.0480  0.9682
   49MOL   H21916635   0.218   7.915   7.914  2.6495 -0.2165 -0.5789
   49MOL   H22016636   0.098   7.866   7.697  0.4266 -0.7203  0.6766
   49MOL   H22116637   0.082   8.036   7.518  0.0069 -0.4364 -0.0882
   49MOL   H22216638   0.221   0.160   7.537  1.1271  1.0540  1.8468
   49MOL   C22316639   0.154   0.408   7.790 -0.0773  0.4555 -0.3810
   49MOL   C22416640   0.191   0.461   7.937 -0.6024  0.2177  0.9132
   49MOL   C22516641   0.091   0.560   7.985 -0.0715 -0.2068 -0.2804
   49MOL   C22616642   0.125   0.694   7.997  0.4626  0.5424  0.2091
   49MOL   C22716643   0.024   0.776   8.052  0.3059 -0.3245  0.2687
   49MOL   C22816644   7.971   0.738   8.065 -0.2445 -0.4656  0.3910
   49MOL   C22916645   7.945   0.601   8.058  0.1556 -0.2442 -0.7816
   49MOL   C23016646   8.045   0.513   8.018  0.3738 -0.7713 -0.4061
   49MOL   O23116647   0.201   0.348   8.024  0.2725  0.6677  0.5387
   49MOL   H23216648   0.104   0.484   7.731  1.3287  0.8525 -1.0860
   49MOL   H23316649   0.087   0.322   7.787  0.5283  0.0098 -2.0773
   49MOL   H23416650   0.281   0.519   7.919 -1.4064  0.0498 -4.9304
   49MOL   H23516651   0.227   0.724   7.981  0.6559  0.1857  0.7450
   49MOL   H23616652   0.039   0.879   0.003  0.0342 -0.0228 -0.6002
   49MOL   H23716653   7.903   0.815   0.017  0.0974  0.8119 -1.8452
   49MOL   H23816654   7.847   0.554   8.068  0.3700 -0.9416 -1.8965
   49MOL   H23916655   8.019   0.409   8.004 -0.9184 -0.3147 -1.4131
   49MOL   C24016656   0.254   0.375   0.069  0.3549  0.5503 -0.7610
   49MOL   C24116657   0.295   0.244   0.143  0.5157 -0.1566 -0.0537
   49MOL   C24216658   0.176   0.145   0.174  0.1947  0.0139  0.4902
   49MOL   C24316659   0.104   0.088   0.071  0.4804 -0.3560  0.0223
   49MOL   C24416660   0.014   8.063   0.096 -0.1768  0.0049 -0.3557
   49MOL   C24516661   8.056   8.028   0.225 -0.5417  0.2916 -0.3085
   49MOL   C24616662   0.041   0.011   0.327  0.1412  0.3210 -0.1783
   49MOL   C24716663   0.151   0.097   0.310  0.0920 -0.3180 -0.0408
   49MOL   O24816664   0.394   0.177   0.067 -0.0008  0.2833 -0.4762
   49MOL   H24916665   0.338   0.443   0.059 -0.0234  1.3075  1.0477
   49MOL   H25016666   0.186   0.428   0.136 -1.1816  0.4079 -2.1566
   49MOL   H25116667   0.352   0.278   0.230  0.7165 -3.4726  1.1584
   49MOL   H25216668   0.130   0.099   8.047 -0.2614 -0.8390 -0.2164
   49MOL   H25316669   8.045   8.006   0.019  0.1716 -0.4587 -0.2372
   49MOL   H25416670   7.976   7.959   0.247 -0.0847 -0.0980  0.1505
   49MOL   H25516671   0.012   8.080   0.430 -0.6076 -0.2182 -0.4424
   49MOL   H25616672   0.210   0.136   0.392  0.1467  0.8867 -0.6326
   49MOL   C25716673   0.460   0.061   0.125  0.1918  0.4376 -0.1222
   49MOL   C25816674   0.567   0.008   0.029 -0.1728 -0.4887 -0.1722
   49MOL   C25916675   0.618   7.962   0.091  0.4201 -0.0090 -0.2657
   49MOL   C26016676   0.718   7.958   0.186 -0.3412 -0.2718  0.8544
   49MOL   C26116677   0.767   7.834   0.235 -0.1332 -0.6094 -0.3512
   49MOL   C26216678   0.711   7.716   0.185  0.7121  0.4517 -0.2852
   49MOL   C26316679   0.601   7.718   0.092 -0.3056  0.5110 -0.2481
   49MOL   C26416680   0.552   7.842   0.049 -0.1779 -0.2911  0.0097
   49MOL   O26516681   0.670   0.109   8.079 -0.2192  0.0098  0.5163
   49MOL   H26616682   0.395   8.058   0.150 -1.7671  1.1886 -2.5606
   49MOL   H26716683   0.491   0.081   0.227  2.1952  1.6840 -0.9225
   49MOL   H26816684   0.519   8.060   8.015  0.3393 -0.3063 -0.4884
   49MOL   H26916685   0.765   8.050   0.218  0.9837 -0.2541 -1.0951
   49MOL   H27016686   0.849   7.830   0.305 -1.7291 -2.8681  1.4680
   49MOL   H27116687   0.759   7.624   0.216 -0.5280  0.8884  3.1555
   49MOL   H27216688   0.570   7.630   0.038 -1.0227  0.7242 -0.1907
   49MOL   H27316689   0.472   7.847   8.057 -0.2991 -1.4850  0.0449
   49MOL   C27416690   0.740   0.090   7.954 -0.6212  0.1001  0.1313
   49MOL   C27516691   0.875   0.015   7.969  0.1532 -0.6613  0.5818
   49MOL   C27616692   0.996   0.108   7.989  0.0410 -0.4060  0.4193
   49MOL   C27716693   0.985   0.222   8.069  0.2081  0.1926  0.6146
   49MOL   C27816694   1.098   0.302   0.014 -0.1532  0.4741  0.2473
   49MOL   C27916695   1.219   0.275   8.033 -0.4988 -0.4415  0.1489
   49MOL   C28016696   1.235   0.155   7.963 -0.1075  0.0594 -0.4150
   49MOL   C28116697   1.124   0.076   7.934 -0.1319 -0.5005  1.1663
   49MOL   O28216698   0.902   7.992   7.866  0.0038  0.5077 -0.5690
   49MOL   H28316699   0.678   0.027   7.889 -1.3188 -0.0975  0.9690
   49MOL   H28416700   0.735   0.181   7.896 -2.4684  1.3603  2.1881
   49MOL   H28516701   0.859   8.038   8.060 -0.1649 -1.7816 -0.1592
   49MOL   H28616702   0.893   0.250   0.039  0.3396 -0.0093  0.9698
   49MOL   H28716703   1.100   0.389   0.078 -0.0477  0.1829  0.6445
   49MOL   H28816704   1.300   0.339   8.064 -1.3086  0.6730 -0.0127
   49MOL   H28916705   1.328   0.135   7.911  0.7251  2.0656  0.2484
   49MOL   H29016706   1.125   8.064   7.877 -0.9021 -0.2258  0.7043
   49MOL   C29116707   0.817   7.876   7.868  0.4651 -0.6604  0.3459
   49MOL   C29216708   0.887   7.759   7.781 -0.8462  0.7125 -0.1755
   49MOL   C29316709   0.812   7.626   7.766  0.4102 -0.4456 -0.4873
   49MOL   C29416710   0.711   7.611   7.673  0.5270 -0.1215 -1.1292
   49MOL   C29516711   0.639   7.489   7.661  0.7539  0.1781  0.0794
   49MOL   C29616712   0.667   7.388   7.756  0.0858  0.4324 -0.1118
   49MOL   C29716713   0.772   7.403   7.845 -0.5267 -0.0370  0.6963
   49MOL   C29816714   0.845   7.522   7.849 -0.8254  0.3180  0.2838
   49MOL   O29916715   0.900   7.821   7.649 -0.6939  0.4456  0.3352
   49MOL   H30016716   0.717   7.880   7.825  1.1684 -2.3281 -1.5376
   49MOL   H30116717   0.802   7.828   7.965 -0.5099 -2.0071 -0.4517
   49MOL   H30216718   0.981   7.739   7.832 -0.5938  2.1701 -0.0474
   49MOL   H30316719   0.692   7.690   7.602 -1.2269 -0.0390 -0.5947
   49MOL   H30416720   0.565   7.479   7.583  1.3919  1.2094 -0.6623
   49MOL   H30516721   0.612   7.296   7.765 -0.7949  1.0815  1.4337
   49MOL   H30616722   0.799   7.315   7.901 -0.4693  0.6939  1.8320
   49MOL   H30716723   0.923   7.526   7.923  1.5627 -1.4295 -2.0410
   49MOL   C30816724   0.970   7.745   7.554 -0.4708  0.2302  0.7644
   49MOL   C30916725   1.115   7.683   7.590  0.2809 -0.0601  1.0931
   49MOL   C31016726   1.188   7.650   7.462  0.3186 -0.0576 -0.1067
   49MOL   C31116727   1.297   7.731   7.414 -0.3262  0.3994 -0.2299
   49MOL   C31216728   1.356   7.710   7.289 -1.0628 -0.2334 -0.3778
   49MOL   C31316729   1.315   7.598   7.211  0.3986  0.1360 -0.3998
   49MOL   C31416730   1.198   7.521   7.252  0.4267  0.2436  0.4101
   49MOL   C31516731   1.137   7.547   7.375  0.7077 -0.1815 -1.0301
   49MOL   O31616732   1.191   7.776   7.665  0.1367  0.1255  0.3151
   49MOL   H31716733   0.966   7.793   7.456 -0.1812  1.0819  1.1667
   49MOL   H31816734   0.916   7.655   7.523  0.1488  0.2771 -0.5023
   49MOL   H31916735   1.101   7.599   7.658 -0.7057 -1.2249 -0.5300
   49MOL   H32016736   1.341   7.815   7.466  1.9260 -1.6443  1.2685
   49MOL   H32116737   1.425   7.776   7.239 -0.2340 -1.7313 -1.2385
   49MOL   H32216738   1.365   7.583   7.117  2.2775 -1.1692  0.7862
   49MOL   H32316739   1.149   7.442   7.198 -1.4272  0.6035  1.5058
   49MOL   H32416740   1.060   7.482   7.414  0.0090  1.3184  0.1144
   49MOL   C32516741   1.297   7.715   7.745  0.0773  0.3620  0.0710
   49MOL   C32616742   1.384   7.824   7.803  0.2053 -0.2805  0.0836
   49MOL   C32716743   1.426   7.928   7.696  0.2490 -0.0939  0.1580
   49MOL   C32816744   1.339   8.030   7.650 -0.3366 -0.5399  0.3301
   49MOL   C32916745   1.376   0.039   7.549  0.4401 -0.7071 -0.4004
   49MOL   C33016746   1.502   0.032   7.496 -0.1629  0.2734 -0.4364
   49MOL   C33116747   1.596   8.016   7.539  0.2928  0.7458  0.0589
   49MOL   C33216748   1.558   7.923   7.642 -0.2189 -0.3619 -0.2209
   49MOL   O33316749   1.300   7.883   7.899 -0.0298  0.3260 -0.7156
   49MOL   H33416750   1.369   7.655   7.689 -0.9310 -0.9641  0.1797
   49MOL   H33516751   1.253   7.648   7.818  0.9817  0.6018  0.8396
   49MOL   H33616752   1.469   7.780   7.856  1.5410  2.9915  0.7925
   49MOL   H33716753   1.236   8.046   7.680 -0.7646  1.1022 -1.8139
   49MOL   H33816754   1.310   0.121   7.527 -0.2001 -1.1247 -0.0493
   49MOL   H33916755   1.532   0.111   7.430  1.0844 -0.3945 -0.6829
   49MOL   H34016756   1.700   8.022   7.508  0.2816  0.9231  0.0570
   49MOL   H34116757   1.626   7.845   7.675 -2.1112 -1.7665  0.4924
   49MOL   H34216758   1.234   7.934   7.855 -0.2967  0.9594  0.4097
   50MOL     C116759   7.141   5.425   3.044  0.1707 -0.2731  0.0897
   50MOL     C216760   7.129   5.376   3.190 -0.2701  0.0102  0.3086
   50MOL     C316761   7.245   5.439   3.269 -0.0476  0.2093 -0.3992
   50MOL     C416762   7.364   5.363   3.285  0.4510  0.1897  1.1946
   50MOL     C516763   7.470   5.411   3.361 -0.2211 -0.0869 -0.0409
   50MOL     C616764   7.467   5.536   3.415 -0.1365 -0.1397 -0.0459
   50MOL     C716765   7.351   5.608   3.406  0.4753  0.3552 -0.1654
   50MOL     C816766   7.241   5.565   3.334  0.3993  0.8716 -0.0967
   50MOL     O916767   7.136   5.229   3.166 -0.1306 -0.1833 -0.4005
   50MOL    H1016768   7.230   5.377   3.004  2.5586  4.1305 -0.2547
   50MOL    H1116769   7.052   5.399   2.987  1.4923 -2.9069 -0.8661
   50MOL    H1216770   7.034   5.416   3.223  0.3586  0.9131  1.0497
   50MOL    H1316771   7.367   5.258   3.259 -0.2940 -0.0372  2.0006
   50MOL    H1416772   7.557   5.350   3.376 -1.1443 -1.4086  0.0538
   50MOL    H1516773   7.557   5.564   3.468  1.6935 -3.2851 -1.3014
   50MOL    H1616774   7.340   5.707   3.447 -2.0470  0.3155 -0.6566
   50MOL    H1716775   7.152   5.626   3.331 -1.1144 -0.9384  3.6957
   50MOL    H1816776   7.157   5.533   3.040  1.0488 -0.4238 -0.6092
   50MOL    C1916777   7.071   5.145   3.263 -0.6247 -0.1690  0.4127
   50MOL    C2016778   6.918   5.145   3.275 -0.0511  0.6696  0.1523
   50MOL    C2116779   6.843   5.149   3.142 -0.3222 -0.3082  0.1430
   50MOL    C2216780   6.901   5.095   3.024  0.2716  0.1283 -0.1443
   50MOL    C2316781   6.828   5.099   2.902  0.8020  0.5541 -0.1273
   50MOL    C2416782   6.705   5.165   2.889  0.4382  0.0273  0.4350
   50MOL    C2516783   6.650   5.225   3.001 -0.0070 -0.1249 -0.2117
   50MOL    C2616784   6.714   5.211   3.126 -0.0664  0.3838  0.2659
   50MOL    O2716785   6.879   5.256   3.355  0.0824  0.3747 -0.1941
   50MOL    H2816786   7.116   5.047   3.250  0.6431  0.6411 -1.6490
   50MOL    H2916787   7.113   5.185   3.355  1.8578 -1.0601 -0.2980
   50MOL    H3016788   6.890   5.056   3.331 -0.1637  0.7091  0.1583
   50MOL    H3116789   7.003   5.062   3.012 -0.1448 -0.9630 -0.6720
   50MOL    H3216790   6.862   5.068   2.805 -1.2304  0.8380 -0.9529
   50MOL    H3316791   6.649   5.176   2.798  1.7161  0.7282 -0.2769
   50MOL    H3416792   6.551   5.268   3.002 -0.0595 -0.2453 -0.2399
   50MOL    H3516793   6.664   5.259   3.210  0.3577  0.8531  0.2575
   50MOL    C3616794   6.828   5.228   3.490 -0.1809  0.3658 -0.3278
   50MOL    C3716795   6.802   5.362   3.562 -0.1904 -0.1633  0.0284
   50MOL    C3816796   6.915   5.406   3.653 -0.1331 -0.6918  0.0319
   50MOL    C3916797   6.901   5.416   3.795 -0.1219 -0.1960 -0.6728
   50MOL    C4016798   7.020   5.432   3.876 -0.0222  0.5929  0.0038
   50MOL    C4116799   7.149   5.438   3.819 -0.3384 -0.2460 -0.2281
   50MOL    C4216800   7.157   5.437   3.674  0.4142 -0.2998 -0.6781
   50MOL    C4316801   7.040   5.425   3.593  0.7438 -0.5068  0.3334
   50MOL    O4416802   6.673   5.350   3.620 -0.0270 -0.1340  0.0567
   50MOL    H4516803   6.730   5.183   3.468 -1.3484  1.8560  1.6931
   50MOL    H4616804   6.891   5.152   3.537  0.1649 -1.9204 -4.2374
   50MOL    H4716805   6.791   5.443   3.490 -2.6593 -0.1072  0.4184
   50MOL    H4816806   6.804   5.405   3.843 -0.7631  0.6336 -1.7699
   50MOL    H4916807   7.002   5.432   3.982  1.5798  1.0968  0.2896
   50MOL    H5016808   7.235   5.426   3.883 -0.7297 -2.2087 -0.0349
   50MOL    H5116809   7.255   5.436   3.628  0.0028 -1.3407 -1.5626
   50MOL    H5216810   7.044   5.410   3.486 -2.0888  0.0291  0.1158
   50MOL    C5316811   6.574   5.442   3.602 -0.8809 -0.3233  0.0956
   50MOL    C5416812   6.435   5.386   3.638 -0.1314  0.3254  0.1843
   50MOL    C5516813   6.389   5.280   3.539 -0.7343 -0.9105 -0.5150
   50MOL    C5616814   6.334   5.316   3.413  0.2909  0.5526 -1.1436
   50MOL    C5716815   6.311   5.226   3.310  0.0913 -0.2168 -0.4337
   50MOL    C5816816   6.344   5.087   3.329 -0.2203  0.0404 -0.4777
   50MOL    C5916817   6.390   5.045   3.458 -0.1060  0.0902 -0.1388
   50MOL    C6016818   6.418   5.143   3.560  0.2748  0.3970  0.3123
   50MOL    O6116819   6.439   5.330   3.777  0.6010 -0.0657  0.0436
   50MOL    H6216820   6.600   5.527   3.664 -2.1376 -2.8578  4.3132
   50MOL    H6316821   6.577   5.473   3.498 -0.0652 -0.1376  0.1679
   50MOL    H6416822   6.362   5.467   3.637 -0.5611 -0.0471  0.9887
   50MOL    H6516823   6.325   5.421   3.389  1.7018  0.4624 -2.1569
   50MOL    H6616824   6.276   5.259   3.214 -0.0639 -1.6475 -0.8884
   50MOL    H6716825   6.322   5.016   3.251  0.7066  0.5952 -1.2489
   50MOL    H6816826   6.404   4.939   3.474 -0.6075 -0.0884 -0.8415
   50MOL    H6916827   6.458   5.096   3.649 -1.0913  2.4558  2.0701
   50MOL    C7016828   6.322   5.306   3.844  0.8326  0.1194  0.5925
   50MOL    C7116829   6.293   5.410   3.952  0.0873  0.3258  0.2818
   50MOL    C7216830   6.225   5.529   3.896  0.1103  0.3222 -1.0593
   50MOL    C7316831   6.305   5.636   3.848 -0.8220  0.5078 -0.1373
   50MOL    C7416832   6.244   5.755   3.808  0.4430  0.7089  0.3977
   50MOL    C7516833   6.103   5.770   3.813  0.2637 -0.4007  0.5183
   50MOL    C7616834   6.026   5.673   3.862 -0.1209  0.9772  0.1289
   50MOL    C7716835   6.084   5.546   3.907 -0.6660 -0.2754 -0.1122
   50MOL    O7816836   6.413   5.445   4.024 -0.0979 -0.6501 -0.1192
   50MOL    H7916837   6.236   5.293   3.778  0.5182  2.6040  0.4504
   50MOL    H8016838   6.328   5.206   3.886 -1.7008 -0.7293 -0.9326
   50MOL    H8116839   6.218   5.370   4.021  1.1193 -0.8158  0.7540
   50MOL    H8216840   6.412   5.627   3.845 -0.6977  2.0651 -0.8027
   50MOL    H8316841   6.302   5.837   3.769  0.9525 -0.3924 -1.2235
   50MOL    H8416842   6.057   5.862   3.779  0.0911 -0.0077  1.8087
   50MOL    H8516843   5.918   5.672   3.865 -0.1279  1.2730 -0.0319
   50MOL    H8616844   6.020   5.466   3.942  1.3259 -1.0388  1.8971
   50MOL    C8716845   6.486   5.343   4.094 -0.5397  0.5456 -0.3750
   50MOL    C8816846   6.414   5.284   4.216  0.4860  0.1700  0.6516
   50MOL    C8916847   6.417   5.377   4.331 -0.3692 -0.1959 -0.4025
   50MOL    C9016848   6.423   5.519   4.319  0.5483  0.5282  0.1872
   50MOL    C9116849   6.437   5.603   4.434 -0.5051 -0.5122  0.5731
   50MOL    C9216850   6.438   5.548   4.558 -0.5929  0.0881  0.0342
   50MOL    C9316851   6.436   5.413   4.584  0.1819 -0.6361  0.1065
   50MOL    C9416852   6.417   5.327   4.468  0.7828  0.5186 -0.8079
   50MOL    O9516853   6.474   5.158   4.248  0.7447  0.4241 -0.0781
   50MOL    H9616854   6.585   5.384   4.114 -0.6555  1.1822 -1.1072
   50MOL    H9716855   6.513   5.256   4.035  0.4445  0.6292 -0.0564
   50MOL    H9816856   6.311   5.261   4.189  0.9910 -3.0538  1.2684
   50MOL    H9916857   6.411   5.561   4.221 -0.6207  0.1520  0.1556
   50MOL   H10016858   6.453   5.709   4.423 -1.4121 -0.4385 -0.0508
   50MOL   H10116859   6.444   5.617   4.641 -4.4488 -1.2424  1.5256
   50MOL   H10216860   6.437   5.364   4.681  0.8793  0.8065  0.8373
   50MOL   H10316861   6.406   5.221   4.487 -0.3777  0.7570 -0.0525
   50MOL   C10416862   6.433   5.052   4.160  0.6141 -0.2340 -0.8681
   50MOL   C10516863   6.293   5.004   4.195 -0.0878  0.2583  0.0665
   50MOL   C10616864   6.261   5.015   4.346  0.2048 -0.2040  0.4949
   50MOL   C10716865   6.330   4.943   4.440  0.4782 -0.2930  0.7726
   50MOL   C10816866   6.312   4.972   4.583  0.1435 -0.5131 -0.1953
   50MOL   C10916867   6.209   5.059   4.625  0.5626 -0.3971  0.0707
   50MOL   C11016868   6.140   5.129   4.527  0.2882 -0.2038 -0.1892
   50MOL   C11116869   6.164   5.111   4.385  0.3549 -0.6827  0.1568
   50MOL   O11216870   6.188   5.052   4.115 -0.0109  0.6352 -0.3523
   50MOL   H11316871   6.451   5.071   4.054  1.1989 -0.4060 -0.7998
   50MOL   H11416872   6.501   4.968   4.171  1.0778  0.3390  0.6995
   50MOL   H11516873   6.291   4.895   4.190  1.0780  0.3261 -2.8481
   50MOL   H11616874   6.407   4.871   4.417 -0.1455 -0.9203  0.6057
   50MOL   H11716875   6.359   4.905   4.653 -0.5250 -0.4442  0.3155
   50MOL   H11816876   6.171   5.061   4.726 -2.0317 -0.8945 -0.8551
   50MOL   H11916877   6.051   5.178   4.564  0.1258  0.4559 -1.4038
   50MOL   H12016878   6.097   5.165   4.319 -1.1094 -2.2696  0.3182
   50MOL   C12116879   6.127   4.952   4.031 -0.3181  0.3603 -0.0435
   50MOL   C12216880   6.019   5.019   3.943 -0.4928  0.7803  0.7214
   50MOL   C12316881   5.999   4.925   3.824 -0.9604  1.0364  0.6319
   50MOL   C12416882   5.881   4.858   3.796  0.6504  0.2036  0.1272
   50MOL   C12516883   5.863   4.765   3.692 -0.6026  0.5037  0.5650
   50MOL   C12616884   5.972   4.749   3.601  0.2824  0.0671  0.9602
   50MOL   C12716885   6.088   4.832   3.609  0.5050  0.3431 -0.4309
   50MOL   C12816886   6.104   4.917   3.724 -0.0782  0.5626 -0.3067
   50MOL   O12916887   5.902   5.055   4.005 -0.3828  0.1961  0.5489
   50MOL   H13016888   6.080   4.876   4.093  0.1790 -0.1898 -0.3310
   50MOL   H13116889   6.207   4.910   3.970  0.0480 -2.0712  2.0219
   50MOL   H13216890   6.069   5.106   3.900  0.4538  0.7441  1.7346
   50MOL   H13316891   5.795   4.866   3.860  0.8664 -0.1015  0.4580
   50MOL   H13416892   5.771   4.712   3.674 -1.6065  2.7676 -1.2720
   50MOL   H13516893   5.965   4.680   3.519 -1.2150 -0.5169  1.5616
   50MOL   H13616894   6.168   4.826   3.536  1.5127  1.4252  0.5812
   50MOL   H13716895   6.189   4.981   3.739  0.5995  0.5517 -3.5673
   50MOL   C13816896   5.894   5.196   4.033  0.0814  0.1214 -0.0355
   50MOL   C13916897   5.750   5.230   4.091 -0.1222 -0.1454  0.3480
   50MOL   C14016898   5.719   5.129   4.199  0.2315 -0.4410 -0.4512
   50MOL   C14116899   5.605   5.049   4.184 -0.0989 -0.0613 -0.0268
   50MOL   C14216900   5.572   4.965   4.289 -0.3745 -0.5064 -0.6311
   50MOL   C14316901   5.646   4.957   4.406 -0.4730  0.7660 -0.2890
   50MOL   C14416902   5.750   5.044   4.428  0.8500  0.2073  0.3938
   50MOL   C14516903   5.783   5.135   4.327  0.6575  0.5158  0.6883
   50MOL   O14616904   5.776   5.363   4.142 -0.0646  0.0361  0.2135
   50MOL   H14716905   5.919   5.255   3.945 -0.7724 -0.6116 -0.7859
   50MOL   H14816906   5.962   5.223   4.113 -0.5165 -0.0046  0.5154
   50MOL   H14916907   5.674   5.218   4.013  1.8393  0.1330 -1.6443
   50MOL   H15016908   5.541   5.059   4.097 -2.9043  1.0488  2.0830
   50MOL   H15116909   5.493   4.895   4.266 -0.4201 -1.2340  1.6914
   50MOL   H15216910   5.610   4.890   4.483  2.4691  1.3132  1.6740
   50MOL   H15316911   5.807   5.052   4.520  1.5726 -0.6625  0.0208
   50MOL   H15416912   5.862   5.206   4.347  1.7373 -0.2132 -0.7873
   50MOL   C15516913   5.660   5.431   4.182 -0.2856 -0.2650 -0.5925
   50MOL   C15616914   5.706   5.553   4.262  0.0362  0.4177 -0.0060
   50MOL   C15716915   5.828   5.522   4.344 -0.1258  0.1820 -0.3338
   50MOL   C15816916   5.821   5.463   4.471 -0.1190  0.5439  0.0545
   50MOL   C15916917   5.942   5.426   4.541  0.0089 -0.6694 -0.0881
   50MOL   C16016918   6.067   5.448   4.481 -1.4844 -0.0916  0.3875
   50MOL   C16116919   6.072   5.509   4.356  0.1589 -1.2287 -0.8153
   50MOL   C16216920   5.954   5.547   4.289 -0.1595 -0.5149  0.3603
   50MOL   O16316921   5.714   5.654   4.169 -0.5503  0.3292 -0.0799
   50MOL   H16416922   5.609   5.359   4.247  2.1932 -0.9053  0.6830
   50MOL   H16516923   5.597   5.460   4.098  0.7025  0.7436 -0.9948
   50MOL   H16616924   5.620   5.585   4.321  1.2218  1.8240  0.9810
   50MOL   H16716925   5.727   5.436   4.519 -0.3397 -1.0951 -1.2612
   50MOL   H16816926   5.944   5.376   4.636  0.1484 -0.3953  0.0549
   50MOL   H16916927   6.152   5.413   4.538 -0.9076  0.9325  0.1723
   50MOL   H17016928   6.167   5.521   4.307  1.4524 -0.9750  1.7149
   50MOL   H17116929   5.960   5.592   4.191 -2.3118 -0.4884  0.2057
   50MOL   C17216930   5.742   5.782   4.215  0.0257 -0.4562  0.4046
   50MOL   C17316931   5.709   5.882   4.104 -0.1940  0.4443  0.4074
   50MOL   C17416932   5.771   6.026   4.117 -0.5820 -0.5955 -0.2433
   50MOL   C17516933   5.729   6.104   4.224 -0.7157 -0.4276  0.5217
   50MOL   C17616934   5.781   6.236   4.239 -0.1512 -0.5777  0.1257
   50MOL   C17716935   5.865   6.293   4.144  0.5542  0.3274 -0.5220
   50MOL   C17816936   5.904   6.211   4.037  0.0430  0.2075  0.1805
   50MOL   C17916937   5.870   6.075   4.029  0.4074  0.0399 -0.3668
   50MOL   O18016938   5.570   5.882   4.078  0.6079 -0.6410 -0.4616
   50MOL   H18116939   5.697   5.809   4.311 -2.7264 -1.4285 -0.5497
   50MOL   H18216940   5.849   5.782   4.230  0.0973 -0.4896 -0.0883
   50MOL   H18316941   5.757   5.845   4.014 -0.9330 -1.0299  0.6039
   50MOL   H18416942   5.661   6.071   4.301  0.0483 -0.2421  1.2818
   50MOL   H18516943   5.761   6.299   4.325  1.7605 -0.5388  0.5737
   50MOL   H18616944   5.888   6.396   4.168 -1.0230  0.6242 -0.2395
   50MOL   H18716945   5.960   6.263   3.960 -0.4979  0.2663 -0.1701
   50MOL   H18816946   5.904   5.997   3.963  0.9187  0.4662 -0.6098
   50MOL   C18916947   5.533   5.960   3.962  0.5377 -0.9785  0.4487
   50MOL   C19016948   5.399   6.026   3.992 -0.5988  0.1756  0.7755
   50MOL   C19116949   5.405   6.120   4.119 -0.0232  0.7305  0.0392
   50MOL   C19216950   5.376   6.063   4.239  0.2965 -0.6570 -0.8021
   50MOL   C19316951   5.373   6.139   4.356 -0.1614  0.5159 -0.6318
   50MOL   C19416952   5.395   6.277   4.346 -0.5340  0.4552 -0.0815
   50MOL   C19516953   5.419   6.341   4.223 -0.7291 -0.6118 -0.1274
   50MOL   C19616954   5.418   6.260   4.111  1.0238  0.1586 -0.0757
   50MOL   O19716955   5.293   5.925   3.985 -0.7355 -0.4971  0.1775
   50MOL   H19816956   5.603   6.042   3.943 -0.0916 -0.1956  1.4196
   50MOL   H19916957   5.518   5.896   3.876  0.4988  2.5802 -2.3080
   50MOL   H20016958   5.382   6.097   3.911  0.6352 -0.0768  0.2824
   50MOL   H20116959   5.357   5.957   4.248 -3.3048  0.0376  0.2972
   50MOL   H20216960   5.357   6.096   4.454  2.3846 -1.1589 -0.9112
   50MOL   H20316961   5.390   6.338   4.435 -3.1606  0.8963 -0.4954
   50MOL   H20416962   5.435   6.447   4.217  0.8928 -0.7381  1.8029
   50MOL   H20516963   5.424   6.300   4.011 -2.1345  0.4212 -0.2287
   50MOL   C20616964   5.164   5.982   3.987  0.9256  0.0612  0.7063
   50MOL   C20716965   5.044   5.880   3.985 -0.5151 -0.9463  0.1932
   50MOL   C20816966   5.041   5.815   3.850 -0.3894 -0.0044 -0.1170
   50MOL   C20916967   5.020   5.886   3.729  0.3369 -0.3184 -1.0973
   50MOL   C21016968   5.016   5.816   3.606 -0.4999  0.0216  0.2394
   50MOL   C21116969   5.024   5.678   3.603  0.1315 -0.6422  0.1079
   50MOL   C21216970   5.046   5.609   3.724  0.1130 -0.1131 -0.6344
   50MOL   C21316971   5.060   5.675   3.848 -0.7105  0.6224 -0.0223
   50MOL   O21416972   4.928   5.961   4.014 -0.0908 -0.0840 -0.2918
   50MOL   H21516973   5.153   6.014   4.091 -0.5733  1.8184  0.0400
   50MOL   H21616974   5.143   6.067   3.921  1.3569  0.2021  0.7475
   50MOL   H21716975   5.058   5.807   4.065 -0.5664  1.6303  2.6554
   50MOL   H21816976   5.004   5.993   3.736  0.3120 -0.5002  2.3057
   50MOL   H21916977   5.016   5.872   3.514 -0.1294  1.7189  1.2550
   50MOL   H22016978   5.041   5.620   3.513  1.8104  0.0685 -0.0597
   50MOL   H22116979   5.046   5.501   3.727  0.1933 -0.0695  3.4058
   50MOL   H22216980   5.089   5.628   3.941  0.5663 -0.3981 -0.9117
   50MOL   C22316981   4.803   5.890   4.031  0.4386 -0.2442  0.5262
   50MOL   C22416982   4.744   5.954   4.152  0.3875 -0.9158  0.2564
   50MOL   C22516983   4.832   5.974   4.278  0.1321  0.2264 -0.1354
   50MOL   C22616984   4.871   5.863   4.357 -0.2215  0.4431  0.1114
   50MOL   C22716985   4.958   5.889   4.468 -0.7937 -0.0148 -0.6440
   50MOL   C22816986   5.014   6.017   4.502 -0.2721 -0.1131  0.1719
   50MOL   C22916987   4.991   6.129   4.406  0.3442  0.5161  0.1729
   50MOL   C23016988   4.900   6.100   4.299  0.4796  0.0212  0.0591
   50MOL   O23116989   4.692   6.076   4.106  0.5812  0.3658 -0.2547
   50MOL   H23216990   4.745   5.885   3.939  2.6691 -0.7929 -0.8960
   50MOL   H23316991   4.819   5.783   4.050  0.3773 -0.3922 -0.2604
   50MOL   H23416992   4.658   5.896   4.185  0.4699 -1.4344 -0.4258
   50MOL   H23516993   4.842   5.761   4.340  0.7714  0.2635 -0.5198
   50MOL   H23616994   4.992   5.799   4.518  0.6969  1.9574  2.0771
   50MOL   H23716995   5.088   6.029   4.580 -1.2510  2.1533  0.7996
   50MOL   H23816996   5.034   6.227   4.416 -1.3249  1.1976  0.8205
   50MOL   H23916997   4.899   6.172   4.218  1.2928  0.2289  0.2307
   50MOL   C24016998   4.554   6.088   4.080 -0.1276 -0.7600 -0.2871
   50MOL   C24116999   4.513   6.237   4.069  0.9320 -0.0797 -0.2044
   50MOL   C24217000   4.374   6.237   4.004  0.4359  0.0020  0.3938
   50MOL   C24317001   4.258   6.243   4.079  0.1249 -0.4421  0.1790
   50MOL   C24417002   4.134   6.248   4.011 -0.5148  0.5796  1.1404
   50MOL   C24517003   4.123   6.243   3.870 -0.7284 -0.7400 -0.4026
   50MOL   C24617004   4.241   6.241   3.791  0.3481  0.5026 -0.3285
   50MOL   C24717005   4.362   6.244   3.859  0.3443 -0.1784  0.5348
   50MOL   O24817006   4.506   6.290   4.200  0.4932  0.2202  0.4174
   50MOL   H24917007   4.537   6.020   3.997 -0.5040 -0.1327 -0.7315
   50MOL   H25017008   4.505   6.042   4.165  1.2911  0.7737  1.4229
   50MOL   H25117009   4.579   6.274   3.991  1.6669 -2.1112 -0.5756
   50MOL   H25217010   4.264   6.249   4.186  0.4921 -0.4272  0.1568
   50MOL   H25317011   4.042   6.246   4.068 -0.8335 -0.4397  0.6101
   50MOL   H25417012   4.029   6.249   3.818  0.6311 -1.0866 -2.9793
   50MOL   H25517013   4.221   6.227   3.685 -2.2837  1.8279 -0.0673
   50MOL   H25617014   4.451   6.253   3.799  0.1705  2.2825  0.5679
   50MOL   C25717015   4.617   6.360   4.242 -0.3657  0.0672 -0.4693
   50MOL   C25817016   4.610   6.403   4.385 -0.1016  0.4843  0.0895
   50MOL   C25917017   4.537   6.298   4.478  0.2942  0.8542  0.6115
   50MOL   C26017018   4.611   6.208   4.549  0.7814  0.3168 -0.1345
   50MOL   C26117019   4.553   6.107   4.623 -0.3880 -0.5147  0.0655
   50MOL   C26217020   4.414   6.108   4.635  0.2005  0.0139 -0.1152
   50MOL   C26317021   4.334   6.201   4.561 -0.2319  0.5198  0.8538
   50MOL   C26417022   4.394   6.296   4.483 -0.1188 -0.4044  0.4417
   50MOL   O26517023   4.541   6.528   4.378  0.1452  0.1697  0.3219
   50MOL   H26617024   4.642   6.442   4.174  0.0142 -0.0770 -0.5012
   50MOL   H26717025   4.695   6.285   4.244 -0.2589  0.1537 -1.3547
   50MOL   H26817026   4.711   6.417   4.422 -0.7259 -0.5587  2.3132
   50MOL   H26917027   4.717   6.220   4.560  0.5917  0.6387  1.5272
   50MOL   H27017028   4.606   6.036   4.684  2.6547 -0.6006 -2.5463
   50MOL   H27117029   4.379   6.028   4.699  2.2535  0.0485  1.0928
   50MOL   H27217030   4.226   6.188   4.557  0.1966 -3.4243  0.4320
   50MOL   H27317031   4.337   6.374   4.435 -0.4624 -0.3921  0.8727
   50MOL   C27417032   4.539   6.598   4.502  0.0932  0.4581 -0.4512
   50MOL   C27517033   4.453   6.717   4.498 -0.6411  0.0091  0.2962
   50MOL   C27617034   4.310   6.687   4.456  0.1083  0.8403  0.2259
   50MOL   C27717035   4.256   6.725   4.330  0.9592  0.2512 -0.3718
   50MOL   C27817036   4.124   6.691   4.292 -1.1046  0.2527  0.7790
   50MOL   C27917037   4.043   6.607   4.379 -0.3324 -0.8023 -0.4516
   50MOL   C28017038   4.097   6.569   4.503 -0.0564 -0.4750 -0.1965
   50MOL   C28117039   4.225   6.616   4.540  0.4031  0.6183 -0.5251
   50MOL   O28217040   4.524   6.833   4.440  0.1996  0.9850  0.5838
   50MOL   H28317041   4.510   6.545   4.593  0.9235  3.1749  1.4555
   50MOL   H28417042   4.644   6.629   4.507 -0.1676  1.2999 -0.0866
   50MOL   H28517043   4.452   6.727   4.607 -0.2712  0.4072  0.2663
   50MOL   H28617044   4.320   6.775   4.258  0.9852 -0.0556 -0.5604
   50MOL   H28717045   4.112   6.712   4.187  1.6999 -2.4086 -0.1492
   50MOL   H28817046   3.943   6.582   4.347 -0.3700  0.6276 -1.5046
   50MOL   H28917047   4.032   6.510   4.566  0.7407 -0.3556  0.7692
   50MOL   H29017048   4.258   6.594   4.640  0.4753  0.7363 -0.5226
   50MOL   C29117049   4.476   6.961   4.467  0.4571 -0.2565 -0.0917
   50MOL   C29217050   4.558   7.076   4.417  0.4079 -0.1164 -0.0672
   50MOL   C29317051   4.553   7.085   4.265 -0.4649  0.0697 -0.4866
   50MOL   C29417052   4.666   7.044   4.188 -0.4444  0.0668  0.2004
   50MOL   C29517053   4.668   7.051   4.049  0.4588 -0.0732  0.2179
   50MOL   C29617054   4.551   7.101   3.981 -0.5331  0.6037  0.1563
   50MOL   C29717055   4.431   7.126   4.057 -1.0108 -0.4744  0.5802
   50MOL   C29817056   4.435   7.123   4.198 -0.1025  0.7507 -0.1146
   50MOL   O29917057   4.516   7.198   4.475 -0.6917  0.1228  0.0260
   50MOL   H30017058   4.450   6.969   4.572  2.1873  2.2382  0.1822
   50MOL   H30117059   4.373   6.955   4.431 -0.3257  0.5970  1.9632
   50MOL   H30217060   4.664   7.059   4.436  0.3158 -1.5698 -0.8404
   50MOL   H30317061   4.751   7.007   4.244 -0.4304  0.4716  0.4480
   50MOL   H30417062   4.763   7.033   4.001  0.9933 -0.6309  1.4674
   50MOL   H30517063   4.547   7.098   3.873 -1.1443 -0.3327  0.1925
   50MOL   H30617064   4.345   7.167   4.006 -0.7354  0.0679  0.5469
   50MOL   H30717065   4.347   7.146   4.257  0.3271  0.2613  0.7304
   50MOL   C30817066   4.616   7.250   4.569  0.2004  0.1349  0.3335
   50MOL   C30917067   4.564   7.378   4.646 -0.1614 -0.4235  0.4480
   50MOL   C31017068   4.453   7.348   4.749 -0.4064 -0.4774  0.1688
   50MOL   C31117069   4.494   7.313   4.880 -0.5761 -0.1915 -0.0411
   50MOL   C31217070   4.398   7.291   4.982  0.1567 -0.0224 -1.4089
   50MOL   C31317071   4.262   7.301   4.951 -0.3896 -0.2899  0.6398
   50MOL   C31417072   4.223   7.335   4.822  0.1275 -0.5203 -0.1572
   50MOL   C31517073   4.318   7.356   4.721 -0.3612 -0.9131  0.1869
   50MOL   O31617074   4.682   7.434   4.704 -0.5902  0.0421 -0.5294
   50MOL   H31717075   4.709   7.278   4.520  0.5680  1.7457  1.9088
   50MOL   H31817076   4.635   7.172   4.643 -0.8553 -1.0741 -0.6413
   50MOL   H31917077   4.512   7.455   4.590 -0.8306 -2.0490 -1.2061
   50MOL   H32017078   4.599   7.306   4.905 -1.3918  0.4472  3.8217
   50MOL   H32117079   4.434   7.258   5.078 -0.7375  1.2052 -0.6426
   50MOL   H32217080   4.195   7.276   5.032  2.9628 -0.1514  3.6194
   50MOL   H32317081   4.120   7.324   4.792  0.2603  0.2595 -0.9055
   50MOL   H32417082   4.288   7.367   4.618 -1.2717 -0.9347  0.4417
   50MOL   C32517083   4.690   7.581   4.716  0.5708  0.4681  0.9150
   50MOL   C32617084   4.813   7.614   4.803  0.0250 -0.5803 -0.4283
   50MOL   C32717085   4.955   7.618   4.748  0.2330 -1.0803  0.0865
   50MOL   C32817086   4.983   7.609   4.613  0.0375  0.1802  0.8010
   50MOL   C32917087   5.114   7.586   4.573 -0.0751  0.2304  0.2532
   50MOL   C33017088   5.218   7.574   4.662  0.7879  0.9060 -0.4931
   50MOL   C33117089   5.193   7.573   4.800 -0.0675 -0.8417  0.3993
   50MOL   C33217090   5.057   7.600   4.841 -0.3241  0.8244 -0.0245
   50MOL   O33317091   4.776   7.734   4.866 -0.3975  0.4839 -0.0238
   50MOL   H33417092   4.595   7.610   4.761  0.2288 -0.7858  1.0199
   50MOL   H33517093   4.688   7.632   4.619 -0.3962  1.0257  1.2220
   50MOL   H33617094   4.805   7.546   4.888  1.4099 -0.2982 -0.0535
   50MOL   H33717095   4.903   7.614   4.540  0.7818 -1.3555 -0.1480
   50MOL   H33817096   5.136   7.586   4.467 -1.5149 -2.4483 -0.0875
   50MOL   H33917097   5.323   7.577   4.635  1.1627  1.3918  0.9611
   50MOL   H34017098   5.264   7.560   4.880  2.1918 -1.7338 -1.6763
   50MOL   H34117099   5.036   7.600   4.947  2.0428  0.4145  0.4694
   50MOL   H34217100   4.820   7.794   4.807 -2.4473  0.6639 -1.4043
   51MOL     C117101   6.668   1.769   5.450 -0.2901 -0.3634  0.4795
   51MOL     C217102   6.761   1.720   5.562  0.0984 -0.1013 -0.0192
   51MOL     C317103   6.831   1.598   5.509  0.6591 -0.4952  0.6523
   51MOL     C417104   6.939   1.608   5.426 -0.0226 -0.4918 -0.2139
   51MOL     C517105   7.009   1.497   5.372 -0.4440  0.3862 -0.0301
   51MOL     C617106   6.961   1.367   5.409  0.7825  0.8185  0.1880
   51MOL     C717107   6.845   1.358   5.496 -0.3911  0.0974 -0.1198
   51MOL     C817108   6.790   1.471   5.560 -0.3588  0.4703  0.4024
   51MOL     O917109   6.679   1.700   5.676  0.1858 -0.3681  0.1179
   51MOL    H1017110   6.631   1.865   5.485 -1.5748 -1.5958  2.6589
   51MOL    H1117111   6.719   1.786   5.355 -2.3036  0.9077 -0.3975
   51MOL    H1217112   6.837   1.796   5.585  0.2768 -0.3434  0.1917
   51MOL    H1317113   6.969   1.706   5.391  0.2955 -0.3283  0.5074
   51MOL    H1417114   7.101   1.508   5.317 -0.4618  0.3236 -0.0726
   51MOL    H1517115   7.010   1.279   5.369 -2.0078 -0.9152  0.5146
   51MOL    H1617116   6.799   1.261   5.507  2.5974 -1.2899  0.7512
   51MOL    H1717117   6.709   1.467   5.631 -0.9184  3.4361 -0.0349
   51MOL    H1817118   6.585   1.708   5.416 -2.2383  0.7319  3.1294
   51MOL    C1917119   6.677   1.809   5.770 -1.2665 -0.2528 -0.1316
   51MOL    C2017120   6.786   1.785   5.881  0.1885  0.6808  0.3733
   51MOL    C2117121   6.767   1.671   5.978 -0.2485  0.0337 -1.3175
   51MOL    C2217122   6.819   1.543   5.956 -0.5204 -1.0153  0.1388
   51MOL    C2317123   6.779   1.430   6.029  0.0341  0.0904 -0.6865
   51MOL    C2417124   6.707   1.453   6.141  0.3506  0.0098  0.8306
   51MOL    C2517125   6.648   1.577   6.165 -0.1973  0.1048 -0.3205
   51MOL    C2617126   6.674   1.687   6.085 -0.1663 -0.1232 -0.2318
   51MOL    O2717127   6.805   1.912   5.952 -0.1558  0.4668  0.5063
   51MOL    H2817128   6.682   1.908   5.725  1.6927 -0.7187 -0.9198
   51MOL    H2917129   6.579   1.815   5.818 -0.6683  0.9123  0.9678
   51MOL    H3017130   6.878   1.768   5.826  1.1534 -0.2708  2.2308
   51MOL    H3117131   6.894   1.535   5.879 -0.4197 -0.5012  0.1868
   51MOL    H3217132   6.825   1.334   6.007 -0.8423 -0.2034 -1.2573
   51MOL    H3317133   6.703   1.381   6.221 -0.8781  0.5499  1.2520
   51MOL    H3417134   6.591   1.590   6.255  0.6642  2.1454 -0.0489
   51MOL    H3517135   6.623   1.781   6.098  0.6573 -0.0751  2.9794
   51MOL    C3617136   6.882   2.005   5.881  0.2925  0.0463  0.3780
   51MOL    C3717137   7.030   2.015   5.918 -0.3329 -0.0965 -0.1964
   51MOL    C3817138   7.106   1.887   5.892 -0.0954 -0.1099  0.4909
   51MOL    C3917139   7.156   1.859   5.763 -0.1153 -0.3476 -0.1557
   51MOL    C4017140   7.240   1.746   5.736 -0.4691 -0.3651  0.1098
   51MOL    C4117141   7.260   1.655   5.842 -0.0696  0.7061  0.0837
   51MOL    C4217142   7.198   1.670   5.968 -0.3168  0.7637 -0.6483
   51MOL    C4317143   7.124   1.785   5.991 -0.4052 -0.2824 -0.7908
   51MOL    O4417144   7.053   2.065   6.052 -0.4955 -0.3464 -0.2707
   51MOL    H4517145   6.867   1.995   5.774  1.8595  0.3430  0.1273
   51MOL    H4617146   6.844   2.106   5.894 -0.4424 -0.5483  3.4656
   51MOL    H4717147   7.077   2.088   5.852 -2.6237 -0.1985 -1.9772
   51MOL    H4817148   7.142   1.931   5.683 -1.0265  2.0034  2.0761
   51MOL    H4917149   7.278   1.740   5.635  2.5174 -1.5123  1.2174
   51MOL    H5017150   7.323   1.568   5.835 -2.5678 -1.1118 -0.3117
   51MOL    H5117151   7.203   1.589   6.040 -2.3551  0.3521 -0.9513
   51MOL    H5217152   7.081   1.797   6.090  0.5784  1.3106 -0.5369
   51MOL    C5317153   7.038   2.203   6.088  0.2103  0.1814  0.3344
   51MOL    C5417154   7.152   2.295   6.031 -0.1669  0.6471 -1.0539
   51MOL    C5517155   7.292   2.240   6.071 -0.2958  0.4807  0.7417
   51MOL    C5617156   7.368   2.158   5.984  0.7304 -0.0193  0.3055
   51MOL    C5717157   7.500   2.124   6.020  0.3850 -0.5325 -0.4706
   51MOL    C5817158   7.549   2.141   6.148  0.1642 -0.1132 -0.0270
   51MOL    C5917159   7.465   2.203   6.244 -0.0758 -0.2212 -0.1339
   51MOL    C6017160   7.344   2.264   6.204  0.1458  0.1729 -0.4258
   51MOL    O6117161   7.139   2.310   5.889 -0.6976  0.4901  0.3887
   51MOL    H6217162   6.939   2.242   6.066  0.4263 -0.1210 -1.2024
   51MOL    H6317163   7.042   2.199   6.197  1.4248  1.7868  0.3807
   51MOL    H6417164   7.137   2.394   6.075 -0.8313 -1.0857  2.8966
   51MOL    H6517165   7.337   2.129   5.884  1.5345  0.7662 -0.1786
   51MOL    H6617166   7.551   2.052   5.958  0.5757  0.0678 -1.0080
   51MOL    H6717167   7.642   2.102   6.187  1.0496  1.4335 -0.5256
   51MOL    H6817168   7.507   2.213   6.343 -2.9599 -0.6172  1.2070
   51MOL    H6917169   7.295   2.333   6.271 -0.4964  0.2103 -0.9218
   51MOL    C7017170   7.031   2.386   5.844 -0.0191 -0.1625  0.4442
   51MOL    C7117171   7.029   2.404   5.696 -0.3639 -0.4058  0.7974
   51MOL    C7217172   6.965   2.280   5.620 -0.4939  0.0362 -0.8016
   51MOL    C7317173   6.832   2.249   5.645  0.3448  0.4924 -0.6771
   51MOL    C7417174   6.779   2.140   5.571 -0.0809  0.1431  0.3469
   51MOL    C7517175   6.862   2.069   5.482 -0.3348 -0.6501 -0.2059
   51MOL    C7617176   6.995   2.093   5.466  0.4970  0.2877  0.4509
   51MOL    C7717177   7.053   2.197   5.546  0.4198  0.1046  0.3306
   51MOL    O7817178   7.161   2.427   5.641 -0.3236  0.1881 -0.0221
   51MOL    H7917179   6.930   2.356   5.871 -1.0243  1.6794 -1.1526
   51MOL    H8017180   7.037   2.484   5.891  1.0465 -0.1623  0.3316
   51MOL    H8117181   6.973   2.495   5.672 -0.6669 -0.2124  2.2098
   51MOL    H8217182   6.768   2.304   5.712  0.6827  1.0553 -0.8108
   51MOL    H8317183   6.674   2.115   5.582  0.2860 -1.1289  1.1106
   51MOL    H8417184   6.821   1.991   5.419  2.8574 -3.3400  0.9400
   51MOL    H8517185   7.056   2.034   5.399  0.7512 -1.8464  2.5036
   51MOL    H8617186   7.157   2.226   5.546  0.9515 -1.6398 -1.9438
   51MOL    C8717187   7.241   2.522   5.708  0.1946  0.0316 -0.4058
   51MOL    C8817188   7.374   2.548   5.636  0.4869 -0.1714 -0.2009
   51MOL    C8917189   7.351   2.546   5.483 -0.5666 -0.3703 -0.4749
   51MOL    C9017190   7.344   2.664   5.408  0.1047  0.2987 -0.5509
   51MOL    C9117191   7.331   2.649   5.264 -0.1491 -0.5471  0.5531
   51MOL    C9217192   7.326   2.523   5.198 -0.0227 -0.1090 -0.4869
   51MOL    C9317193   7.342   2.406   5.275  0.7321  0.1606 -0.4129
   51MOL    C9417194   7.349   2.417   5.415  0.2658  0.1235 -0.2369
   51MOL    O9517195   7.447   2.434   5.676 -0.0949 -0.1363  0.2289
   51MOL    H9617196   7.255   2.512   5.816  1.1131 -0.6236 -0.5831
   51MOL    H9717197   7.188   2.617   5.704  0.1631 -0.0490 -2.8965
   51MOL    H9817198   7.417   2.645   5.663  0.6791  0.2390 -1.8913
   51MOL    H9917199   7.357   2.758   5.459  0.1848  0.9201 -1.6841
   51MOL   H10017200   7.320   2.736   5.202  1.4944 -0.2594  0.6274
   51MOL   H10117201   7.326   2.524   5.090  0.9685 -1.4750 -0.5066
   51MOL   H10217202   7.358   2.310   5.227  0.3490  0.4184 -1.0584
   51MOL   H10317203   7.349   2.324   5.471 -2.5622  0.5439  0.5644
   51MOL   C10417204   7.588   2.447   5.660 -0.2305  0.3716 -0.3496
   51MOL   C10517205   7.652   2.306   5.670 -0.2603 -0.1878  0.1906
   51MOL   C10617206   7.602   2.204   5.569  0.0032  0.2257 -0.0240
   51MOL   C10717207   7.669   2.187   5.446  0.0348 -0.0494 -0.4829
   51MOL   C10817208   7.621   2.102   5.347 -0.4714  0.5430 -0.4783
   51MOL   C10917209   7.489   2.044   5.370  0.3987 -0.3120  0.3880
   51MOL   C11017210   7.422   2.061   5.494  0.3337 -0.0470 -0.5592
   51MOL   C11117211   7.478   2.139   5.595  0.0798 -0.6413  0.0848
   51MOL   O11217212   7.796   2.317   5.668  0.1653 -0.3106 -0.1011
   51MOL   H11317213   7.606   2.493   5.562  0.3625  0.3007 -0.2729
   51MOL   H11417214   7.627   2.514   5.737 -1.4103 -1.1752  1.6280
   51MOL   H11517215   7.631   2.272   5.771  0.3879 -0.3155  0.2867
   51MOL   H11617216   7.767   2.233   5.440 -0.0772  0.0400 -1.6193
   51MOL   H11717217   7.677   2.090   5.255  2.3571 -1.6112  1.4340
   51MOL   H11817218   7.446   1.986   5.289 -0.0675  1.8904 -0.9766
   51MOL   H11917219   7.328   2.010   5.512  0.4505 -0.3197 -0.7190
   51MOL   H12017220   7.436   2.145   5.694  0.4699  1.1614  0.1567
   51MOL   C12117221   7.871   2.197   5.692 -0.3428  0.2532 -0.6273
   51MOL   C12217222   8.018   2.234   5.680  0.4582 -0.0616  0.1022
   51MOL   C12317223   0.026   2.130   5.732  0.2813 -0.3354  0.4163
   51MOL   C12417224   0.076   2.136   5.865  0.0081 -0.1134  0.4837
   51MOL   C12517225   0.148   2.028   5.911 -0.4091  0.0532  0.6204
   51MOL   C12617226   0.182   1.921   5.825  0.1208  0.1579 -0.0017
   51MOL   C12717227   0.140   1.916   5.695  0.0570  0.0591  0.5023
   51MOL   C12817228   0.055   2.016   5.652  0.2936  0.2865  0.1555
   51MOL   O12917229   8.035   2.260   5.543 -0.7658 -0.1541 -0.0178
   51MOL   H13017230   7.855   2.116   5.620  1.6533 -1.5244  0.8794
   51MOL   H13117231   7.849   2.158   5.791  1.3052 -1.5040 -0.9129
   51MOL   H13217232   8.028   2.333   5.725  0.2145  0.7130 -1.5195
   51MOL   H13317233   0.049   2.217   5.932 -0.7168 -1.8489  2.3101
   51MOL   H13417234   0.198   2.023   6.007  2.8914  0.1050 -1.0321
   51MOL   H13517235   0.239   1.838   5.865 -0.1969  0.4850  1.1680
   51MOL   H13617236   0.157   1.830   5.633 -3.6520 -0.7003  0.3718
   51MOL   H13717237   0.013   2.000   5.554 -1.2277  0.1626  0.8123
   51MOL   C13817238   0.064   2.353   5.517  0.1263  0.0583 -0.1534
   51MOL   C13917239   0.183   2.274   5.454  0.1948  0.1116  0.0711
   51MOL   C14017240   0.150   2.173   5.339  0.8565 -0.1965 -0.2397
   51MOL   C14117241   0.018   2.161   5.285 -0.8301 -0.3419  0.1076
   51MOL   C14217242   8.068   2.068   5.182 -0.2566  0.5492 -0.3246
   51MOL   C14317243   0.083   1.968   5.146 -0.4323 -0.6293 -0.2019
   51MOL   C14417244   0.206   1.968   5.223  0.1542 -0.1141 -0.0191
   51MOL   C14517245   0.243   2.070   5.310  0.1946 -0.3815  0.0224
   51MOL   O14617246   0.293   2.349   5.406 -0.3010 -0.5839  0.1344
   51MOL   H14717247   0.096   2.418   5.598  0.3514 -0.3994  0.1278
   51MOL   H14817248   0.021   2.419   5.442 -2.2571  0.9325  1.9370
   51MOL   H14917249   0.230   2.218   5.534  1.5079  1.5296  0.3246
   51MOL   H15017250   8.034   2.243   5.315  1.5293  1.2414  1.0015
   51MOL   H15117251   7.966   2.067   5.148  0.0631  0.0002 -1.2713
   51MOL   H15217252   0.035   1.893   5.084  0.6026 -2.4198  1.1128
   51MOL   H15317253   0.275   1.893   5.186 -0.2651 -0.2605 -0.5037
   51MOL   H15417254   0.339   2.068   5.360 -0.5827 -0.1812  1.5421
   51MOL   C15517255   0.326   2.462   5.487  0.6865 -0.3987  0.6067
   51MOL   C15617256   0.476   2.500   5.480 -0.2159  0.4324  0.6989
   51MOL   C15717257   0.513   2.620   5.557 -0.4165 -0.8714  0.1294
   51MOL   C15817258   0.461   2.750   5.523  0.0403 -0.3680  0.5205
   51MOL   C15917259   0.484   2.860   5.610  0.0643  0.1373  0.0647
   51MOL   C16017260   0.579   2.844   5.714  0.1440  0.0715 -0.0876
   51MOL   C16117261   0.632   2.720   5.746  0.7824  0.5332 -0.2843
   51MOL   C16217262   0.591   2.604   5.671 -0.1300 -0.2874  0.4193
   51MOL   O16317263   0.554   2.386   5.519 -0.1581  0.3084 -0.0960
   51MOL   H16417264   0.309   2.445   5.593 -0.6106 -0.5334  0.3867
   51MOL   H16517265   0.257   2.537   5.448 -0.3364 -1.8031 -0.3254
   51MOL   H16617266   0.500   2.537   5.380  0.4521  1.0900  1.1027
   51MOL   H16717267   0.404   2.756   5.431 -0.0422  0.0566  0.5972
   51MOL   H16817268   0.429   2.951   5.588 -1.1074 -0.0429  2.1762
   51MOL   H16917269   0.599   2.933   5.772 -0.5991 -0.9355  1.7470
   51MOL   H17017270   0.699   2.699   5.828 -1.3910 -0.2165  1.3436
   51MOL   H17117271   0.636   2.509   5.697 -0.4898 -0.7486 -0.6018
   51MOL   C17217272   0.655   2.337   5.427 -0.0323  0.5384 -0.1649
   51MOL   C17317273   0.744   2.222   5.495 -0.0236 -0.0399 -0.4193
   51MOL   C17417274   0.652   2.105   5.522  0.1971  0.1237  0.0150
   51MOL   C17517275   0.605   2.081   5.652 -0.2516  0.2854  0.0283
   51MOL   C17617276   0.511   1.977   5.682  0.1124  0.1253 -0.1853
   51MOL   C17717277   0.484   1.885   5.582  0.3515  0.4329  0.9936
   51MOL   C17817278   0.519   1.908   5.446 -0.6487  0.0547 -0.2647
   51MOL   C17917279   0.598   2.022   5.420  0.3468 -0.5178 -0.9131
   51MOL   O18017280   0.811   2.270   5.616  0.3874 -0.0406 -0.7089
   51MOL   H18117281   0.609   2.309   5.332 -2.1770 -0.5965  1.1691
   51MOL   H18217282   0.719   2.424   5.411  0.3457  0.8688  2.8414
   51MOL   H18317283   0.819   2.186   5.425 -2.4409  0.0168 -3.1433
   51MOL   H18417284   0.638   2.142   5.735  0.1745 -0.3401  0.3110
   51MOL   H18517285   0.464   1.973   5.779 -0.0205 -2.3028 -0.3147
   51MOL   H18617286   0.428   1.796   5.609  1.1505  0.1447  1.7379
   51MOL   H18717287   0.491   1.834   5.373 -1.1056 -1.5653  1.5202
   51MOL   H18817288   0.626   2.049   5.319 -1.2790  2.4451 -0.6242
   51MOL   C18917289   0.935   2.338   5.597  0.1897 -0.3561  0.7141
   51MOL   C19017290   0.981   2.380   5.737  0.1550  0.2072  0.3505
   51MOL   C19117291   1.101   2.477   5.729  0.2018  0.8606 -0.2451
   51MOL   C19217292   1.232   2.428   5.756 -0.6583  0.6090 -0.1513
   51MOL   C19317293   1.345   2.508   5.747 -0.5817 -0.1581  0.4094
   51MOL   C19417294   1.327   2.642   5.713  0.6231  0.0483  0.4855
   51MOL   C19517295   1.199   2.696   5.680 -0.6759 -0.0813  0.1547
   51MOL   C19617296   1.090   2.609   5.680 -0.2382 -0.3647 -0.1343
   51MOL   O19717297   1.006   2.264   5.818 -0.1119 -0.2017  0.1419
   51MOL   H19817298   1.014   2.279   5.549 -0.5182 -1.4189  0.8304
   51MOL   H19917299   0.928   2.419   5.525  1.4930  0.4801  1.4937
   51MOL   H20017300   0.896   2.431   5.782 -0.6931  2.5145 -3.6372
   51MOL   H20117301   1.250   2.324   5.779 -0.4011  0.8518  0.7738
   51MOL   H20217302   1.448   2.475   5.756 -0.5775 -0.7894 -1.5959
   51MOL   H20317303   1.408   2.712   5.706 -1.3528  2.3590 -0.1886
   51MOL   H20417304   1.189   2.802   5.663 -1.7226 -0.3997 -1.2815
   51MOL   H20517305   0.993   2.638   5.640 -0.5522 -0.6788  0.3889
   51MOL   C20617306   0.989   2.292   5.954 -0.3119  0.2054 -0.7444
   51MOL   C20717307   1.021   2.167   6.049  0.3033 -0.5417  0.0630
   51MOL   C20817308   0.916   2.060   6.037  0.0708  0.4785  0.3014
   51MOL   C20917309   0.795   2.072   6.103 -0.2061 -0.1370 -0.1316
   51MOL   C21017310   0.692   1.973   6.083  0.7271  0.1228 -0.5106
   51MOL   C21117311   0.706   1.870   5.988 -0.1712 -0.1249 -0.3527
   51MOL   C21217312   0.817   1.871   5.911  1.3335  0.3211  0.5997
   51MOL   C21317313   0.919   1.965   5.932  0.3503  0.5381  0.0155
   51MOL   O21417314   1.020   2.220   6.179  0.1255 -0.4145  0.2172
   51MOL   H21517315   1.052   2.367   6.002 -1.3575  0.6056  0.0227
   51MOL   H21617316   0.888   2.325   5.980  0.2642  0.5788  1.1389
   51MOL   H21717317   1.121   2.135   6.020  1.7394  2.5053  1.4167
   51MOL   H21817318   0.775   2.153   6.172 -0.5778  0.0361 -0.4356
   51MOL   H21917319   0.602   1.973   6.142  0.8861 -1.0578 -0.2516
   51MOL   H22017320   0.635   1.790   5.977  1.2128 -1.4882  0.4706
   51MOL   H22117321   0.841   1.795   5.838  0.8030 -0.3472  1.1208
   51MOL   H22217322   1.009   1.961   5.873  0.2930  0.3099 -0.0589
   51MOL   C22317323   1.127   2.181   6.267  0.0183 -0.2221 -0.5506
   51MOL   C22417324   1.070   2.240   6.403 -0.0571 -0.0931  0.0749
   51MOL   C22517325   1.160   2.205   6.514 -0.6679  0.1354 -0.0995
   51MOL   C22617326   1.234   2.087   6.524  0.1910  0.1212  0.1404
   51MOL   C22717327   1.319   2.065   6.639  0.1398 -0.0553  0.5925
   51MOL   C22817328   1.315   2.164   6.746 -0.4989 -0.1296 -0.4734
   51MOL   C22917329   1.236   2.275   6.733  0.6277 -0.2179  0.0206
   51MOL   C23017330   1.161   2.299   6.615  0.1815 -0.3448  0.5341
   51MOL   O23117331   1.040   2.377   6.394 -0.3432 -0.4228  0.3624
   51MOL   H23217332   1.143   2.074   6.261  0.6936 -0.3167  2.5547
   51MOL   H23317333   1.222   2.228   6.240 -0.2841  0.1765 -0.9422
   51MOL   H23417334   0.983   2.184   6.436 -1.0361  2.1234  1.4084
   51MOL   H23517335   1.228   2.016   6.444 -0.1251  0.3430 -0.0301
   51MOL   H23617336   1.376   1.975   6.654  0.2514 -0.2252 -0.7947
   51MOL   H23717337   1.375   2.154   6.836 -2.9471  0.2407  1.2705
   51MOL   H23817338   1.229   2.353   6.808 -1.4566 -0.8212  0.4778
   51MOL   H23917339   1.104   2.390   6.610  0.8056 -0.0393 -1.4158
   51MOL   C24017340   0.902   2.420   6.394  0.2563 -0.1399  0.3106
   51MOL   C24117341   0.887   2.575   6.417  0.6498 -0.2730 -0.1191
   51MOL   C24217342   0.947   2.642   6.298 -0.3363 -1.0247 -0.2594
   51MOL   C24317343   0.915   2.614   6.165 -0.6376 -0.4315  0.0587
   51MOL   C24417344   0.960   2.691   6.060 -0.3394  0.6002  0.4234
   51MOL   C24517345   1.048   2.803   6.076 -0.6374 -0.0784 -0.2339
   51MOL   C24617346   1.071   2.837   6.210  0.0189 -0.0944  0.1052
   51MOL   C24717347   1.018   2.756   6.317 -0.6807  0.0352  0.0796
   51MOL   O24817348   0.754   2.614   6.454 -0.3697 -0.5703 -0.2575
   51MOL   H24917349   0.840   2.381   6.313 -0.3618 -0.9415  1.1594
   51MOL   H25017350   0.857   2.377   6.484 -0.2135 -0.3074 -0.0058
   51MOL   H25117351   0.955   2.597   6.499  0.0969  1.4590 -0.1059
   51MOL   H25217352   0.851   2.530   6.146  1.4952 -1.7040 -1.7060
   51MOL   H25317353   0.928   2.668   5.959  0.3054  0.1355  0.3205
   51MOL   H25417354   1.085   2.861   5.993  2.9314  1.2210  2.1819
   51MOL   H25517355   1.130   2.925   6.232  0.2219  0.4169 -2.3129
   51MOL   H25617356   1.038   2.792   6.417  0.2692 -0.3251  0.0171
   51MOL   C25717357   0.750   2.742   6.509 -0.4191 -0.4925 -0.6048
   51MOL   C25817358   0.625   2.744   6.597  0.8078 -0.3208  0.6961
   51MOL   C25917359   0.615   2.625   6.697 -0.7091 -0.6124 -0.4052
   51MOL   C26017360   0.633   2.648   6.832  0.5454 -0.5444 -0.4424
   51MOL   C26117361   0.632   2.540   6.919 -0.0608  0.4617  0.1840
   51MOL   C26217362   0.604   2.408   6.876  0.2803 -0.4853 -0.2649
   51MOL   C26317363   0.569   2.388   6.745  0.2564 -0.4188 -0.8363
   51MOL   C26417364   0.574   2.497   6.654 -0.3887 -0.1484  0.5629
   51MOL   O26517365   0.516   2.755   6.501  0.4024 -0.3571  0.1101
   51MOL   H26617366   0.743   2.817   6.430 -1.3443  1.1162  0.9736
   51MOL   H26717367   0.838   2.768   6.568 -1.2133  0.0337  0.3686
   51MOL   H26817368   0.622   2.835   6.657 -0.6855 -0.2940  0.6026
   51MOL   H26917369   0.675   2.741   6.868  0.3943 -0.9138  0.7308
   51MOL   H27017370   0.656   2.557   7.022 -2.5539  2.1146  0.5405
   51MOL   H27117371   0.609   2.316   6.932 -1.0614 -0.2483  0.2705
   51MOL   H27217372   0.533   2.292   6.711 -0.2648 -1.2530  1.9827
   51MOL   H27317373   0.550   2.482   6.550 -1.0807  2.3305  0.3287
   51MOL   C27417374   0.387   2.784   6.562  0.1651 -0.0337  0.5706
   51MOL   C27517375   0.280   2.758   6.456  0.1352 -0.4150  0.1777
   51MOL   C27617376   0.142   2.804   6.487  0.6237  0.5288  0.2949
   51MOL   C27717377   0.063   2.725   6.571  0.0763 -0.0507 -0.0403
   51MOL   C27817378   8.009   2.756   6.594 -0.4242  0.0123 -0.1403
   51MOL   C27917379   7.950   2.865   6.531  0.4549 -0.8713  0.5628
   51MOL   C28017380   8.032   2.947   6.448  0.1943  0.2732  0.1328
   51MOL   C28117381   0.090   2.918   6.428  0.2939 -0.2487  0.2006
   51MOL   O28217382   0.277   2.619   6.428 -0.0221  0.5790 -0.4578
   51MOL   H28317383   0.357   2.725   6.649  1.5581 -0.1689  0.9710
   51MOL   H28417384   0.383   2.890   6.587 -1.2135 -0.1374  0.8269
   51MOL   H28517385   0.309   2.813   6.367 -0.2017 -1.2092 -0.4288
   51MOL   H28617386   0.102   2.640   6.626  1.6266  0.5993 -0.1159
   51MOL   H28717387   7.956   2.690   6.660 -0.1019 -2.0298 -1.8457
   51MOL   H28817388   7.844   2.884   6.541  0.8298  0.2466  2.6898
   51MOL   H28917389   7.982   3.023   6.389 -1.2863  0.3261  1.4341
   51MOL   H29017390   0.140   2.977   6.353  0.9385 -0.4574  0.4638
   51MOL   C29117391   0.247   2.584   6.293 -0.4409  0.0930 -1.2645
   51MOL   C29217392   0.377   2.604   6.211  0.4285  0.7891 -0.5353
   51MOL   C29317393   0.378   2.516   6.086 -0.6432  0.4053 -0.5276
   51MOL   C29417394   0.490   2.426   6.064  0.0736 -0.4115 -0.5650
   51MOL   C29517395   0.491   2.349   5.948  0.1350 -0.1319 -0.0743
   51MOL   C29617396   0.379   2.346   5.856  0.3805  0.2472 -0.2876
   51MOL   C29717397   0.266   2.427   5.889  0.2680 -0.4847 -0.2153
   51MOL   C29817398   0.276   2.516   5.998  0.4577  0.2529  1.2247
   51MOL   O29917399   0.383   2.738   6.174 -0.6149  0.2882 -0.0331
   51MOL   H30017400   0.163   2.638   6.249 -1.1391  1.2438  1.3838
   51MOL   H30117401   0.227   2.477   6.293  2.1511 -0.4512 -0.0453
   51MOL   H30217402   0.460   2.564   6.269 -0.1256 -1.3197 -1.1542
   51MOL   H30317403   0.577   2.439   6.128 -0.5381 -0.5114  0.3018
   51MOL   H30417404   0.572   2.283   5.918  1.2176  1.6050 -1.0376
   51MOL   H30517405   0.371   2.284   5.768  0.7863 -1.5568  0.9031
   51MOL   H30617406   0.175   2.425   5.830 -0.0375 -1.0372  0.2657
   51MOL   H30717407   0.192   2.584   6.006  0.1179  0.2070 -1.4219
   51MOL   C30817408   0.524   2.781   6.153  0.0586  0.0156 -0.3155
   51MOL   C30917409   0.517   2.935   6.137 -0.4447 -0.0524 -0.1569
   51MOL   C31017410   0.644   3.019   6.170  0.0353 -0.1859 -0.3761
   51MOL   C31117411   0.753   3.007   6.077 -0.1679  0.6233 -0.1208
   51MOL   C31217412   0.867   3.088   6.090 -0.8620  0.2362 -0.1423
   51MOL   C31317413   0.876   3.180   6.190 -0.0036  1.0931  0.1103
   51MOL   C31417414   0.767   3.192   6.280  0.3509  0.5053  0.0083
   51MOL   C31517415   0.649   3.115   6.276 -0.3948  0.6359  0.4459
   51MOL   O31617416   0.460   2.972   6.014  0.2384 -0.3217  0.9081
   51MOL   H31717417   0.575   2.739   6.066 -0.2922 -1.8965  0.3706
   51MOL   H31817418   0.583   2.754   6.240 -0.3844 -1.7388 -0.5404
   51MOL   H31917419   0.447   2.963   6.215 -0.1068  1.6070 -0.4353
   51MOL   H32017420   0.745   2.942   5.991  2.0968  1.4647 -1.0014
   51MOL   H32117421   0.950   3.063   6.026 -0.4079 -2.0536  1.3012
   51MOL   H32217422   0.957   3.250   6.209  1.7956 -0.4296 -1.6565
   51MOL   H32317423   0.759   3.266   6.358 -1.1991 -0.5535  0.8870
   51MOL   H32417424   0.572   3.117   6.351  0.0732 -3.6102  1.1618
   51MOL   C32517425   0.373   3.089   5.999 -0.6673  0.8321 -0.0497
   51MOL   C32617426   0.222   3.056   5.994 -0.0771  0.3520  0.4943
   51MOL   C32717427   0.190   2.978   5.867  0.5476 -0.3671  0.6434
   51MOL   C32817428   0.221   2.846   5.851  0.2324 -0.0656 -0.6989
   51MOL   C32917429   0.182   2.785   5.728  0.7992  0.0059  0.1203
   51MOL   C33017430   0.109   2.864   5.625  0.6266 -0.2845 -0.7046
   51MOL   C33117431   0.079   3.003   5.647 -0.3396 -0.0399 -0.1559
   51MOL   C33217432   0.124   3.056   5.767  0.4778  0.1972 -0.0726
   51MOL   O33317433   0.197   2.989   6.111  0.5855  0.9460 -0.2968
   51MOL   H33417434   0.407   3.120   5.900 -1.3708  0.6778 -0.3431
   51MOL   H33517435   0.396   3.157   6.081  1.1476  0.6304 -0.3585
   51MOL   H33617436   0.156   3.143   5.996  1.6603  1.7166  0.1308
   51MOL   H33717437   0.254   2.785   5.934  1.2729 -0.8893 -1.7178
   51MOL   H33817438   0.188   2.679   5.706 -0.7091 -0.0018 -0.3413
   51MOL   H33917439   0.062   2.821   5.538 -0.5189 -0.5361  0.0185
   51MOL   H34017440   0.020   3.058   5.575 -0.7386  0.9354  0.8931
   51MOL   H34117441   0.105   3.161   5.780  0.7461  0.4147 -1.3787
   51MOL   H34217442   0.287   2.973   6.132  0.0323  0.7988  2.0148
   52MOL     C117443   1.439   6.864   5.925 -0.1656 -0.6504  0.2186
   52MOL     C217444   1.304   6.940   5.950 -0.3060  0.2145  0.3232
   52MOL     C317445   1.188   6.849   5.908 -0.3579 -0.4600  0.1840
   52MOL     C417446   1.116   6.764   6.001 -0.6767  0.1986 -0.0612
   52MOL     C517447   1.009   6.686   5.955 -0.4260  0.7343  0.5144
   52MOL     C617448   0.980   6.685   5.817  0.7617 -0.0074 -0.6830
   52MOL     C717449   1.055   6.759   5.729 -0.6513  0.0190  0.2911
   52MOL     C817450   1.149   6.852   5.774 -0.1128 -0.6607  0.0292
   52MOL     O917451   1.315   7.069   5.882  0.4842 -0.2019 -0.1003
   52MOL    H1017452   1.456   6.836   5.821 -0.5129  1.3245 -0.4036
   52MOL    H1117453   1.527   6.919   5.959  0.5991 -2.0556  0.5456
   52MOL    H1217454   1.308   6.950   6.058 -2.1743 -0.5596  0.4744
   52MOL    H1317455   1.144   6.766   6.105 -0.0332 -0.2652 -0.2278
   52MOL    H1417456   0.944   6.637   6.027  0.1846 -1.2039 -0.2286
   52MOL    H1517457   0.895   6.628   5.782 -1.6043  3.8288 -1.4750
   52MOL    H1617458   1.037   6.754   5.622 -0.3555 -0.1127  0.2471
   52MOL    H1717459   1.203   6.916   5.705 -1.5143 -1.9852 -2.3914
   52MOL    H1817460   1.443   6.771   5.981  1.2347 -0.7213  0.0175
   52MOL    C1917461   1.207   7.150   5.905 -0.7830  0.6236 -0.1598
   52MOL    C2017462   1.225   7.292   5.842  0.1229  0.6960 -0.3527
   52MOL    C2117463   1.123   7.387   5.894 -0.2022  0.1387  0.5331
   52MOL    C2217464   0.990   7.389   5.840  0.0985 -0.6874 -0.7588
   52MOL    C2317465   0.893   7.480   5.894 -0.0212 -0.1323 -0.0659
   52MOL    C2417466   0.926   7.567   5.996 -0.0969  0.5443  0.4898
   52MOL    C2517467   1.060   7.582   6.031 -0.6067  0.0405 -0.2196
   52MOL    C2617468   1.152   7.488   5.989  0.0174 -0.0954  0.0996
   52MOL    O2717469   1.210   7.281   5.700  0.2067 -0.1927 -0.3275
   52MOL    H2817470   1.114   7.106   5.869 -0.2989 -0.8575  0.3955
   52MOL    H2917471   1.199   7.168   6.012  2.8379 -1.0455  0.4470
   52MOL    H3017472   1.323   7.329   5.871 -0.9235  3.2939  0.0098
   52MOL    H3117473   0.951   7.315   5.771 -0.6374  0.8316 -2.0132
   52MOL    H3217474   0.796   7.472   5.848  0.2893 -0.4264 -0.6740
   52MOL    H3317475   0.851   7.629   6.043  0.5166  1.8549 -0.2242
   52MOL    H3417476   1.074   7.653   6.111  0.1918  0.2966 -0.5771
   52MOL    H3517477   1.254   7.490   6.024 -0.0514 -0.2347  0.3087
   52MOL    C3617478   1.336   7.317   5.634 -0.3199  0.3500 -0.0397
   52MOL    C3717479   1.321   7.278   5.488 -0.2072  0.2664 -0.3959
   52MOL    C3817480   1.213   7.353   5.419  0.1726 -0.2009 -0.3833
   52MOL    C3917481   1.077   7.312   5.419  0.5761  0.3162 -0.0596
   52MOL    C4017482   0.975   7.385   5.348  0.0879  0.2541 -0.3003
   52MOL    C4117483   1.007   7.512   5.289 -0.5856 -0.4033  0.7003
   52MOL    C4217484   1.138   7.559   5.299 -0.1764 -0.3956 -0.7059
   52MOL    C4317485   1.241   7.481   5.361  0.5969  0.3098 -0.1113
   52MOL    O4417486   1.296   7.135   5.471  0.5457 -0.8068  0.7917
   52MOL    H4517487   1.351   7.425   5.641 -2.0837  0.6695 -0.8562
   52MOL    H4617488   1.414   7.257   5.682 -0.2417  0.0647 -0.5133
   52MOL    H4717489   1.418   7.295   5.440  1.3988  0.8165  2.8908
   52MOL    H4817490   1.044   7.226   5.475 -2.5173  0.9270 -0.8430
   52MOL    H4917491   0.873   7.349   5.340 -0.1805  0.6475  1.2367
   52MOL    H5017492   0.927   7.566   5.240 -0.4801 -2.1947 -1.5639
   52MOL    H5117493   1.177   7.654   5.265  3.0684 -1.4640 -0.2023
   52MOL    H5217494   1.340   7.524   5.370  1.0030 -0.8571  1.2147
   52MOL    C5317495   1.416   7.051   5.467 -0.0788 -0.6058  0.0549
   52MOL    C5417496   1.384   6.901   5.461  0.0749  0.0043  0.3103
   52MOL    C5517497   1.284   6.862   5.348  0.0762  0.7391 -0.6654
   52MOL    C5617498   1.149   6.903   5.360 -0.7077 -0.3489  0.2538
   52MOL    C5717499   1.052   6.885   5.259  0.4787  0.3540 -0.4667
   52MOL    C5817500   1.087   6.816   5.145 -0.4703 -0.0100 -0.1428
   52MOL    C5917501   1.219   6.769   5.129  0.2303  0.6872 -0.2260
   52MOL    C6017502   1.316   6.792   5.231  0.1087  0.0380 -0.3021
   52MOL    O6117503   1.507   6.834   5.442 -0.2935 -0.5741  0.5679
   52MOL    H6217504   1.475   7.070   5.378 -0.1141 -1.9231 -0.2595
   52MOL    H6317505   1.483   7.076   5.550  0.5702  0.2365 -0.7216
   52MOL    H6417506   1.342   6.871   5.558 -0.7691 -0.5207 -0.2132
   52MOL    H6517507   1.124   6.954   5.452 -0.3383  0.3506 -0.0316
   52MOL    H6617508   0.951   6.924   5.268 -0.4336 -1.5942 -1.8813
   52MOL    H6717509   1.009   6.805   5.070  0.7319 -0.4580 -1.3472
   52MOL    H6817510   1.237   6.730   5.030 -0.9145 -0.8126  0.1241
   52MOL    H6917511   1.415   6.751   5.217  0.2134  0.1665  0.0486
   52MOL    C7017512   1.532   6.714   5.520  0.6906  0.3423  0.0297
   52MOL    C7117513   1.679   6.678   5.529 -0.3660  0.7950  0.1235
   52MOL    C7217514   1.773   6.801   5.539 -1.0553  0.6693  0.5408
   52MOL    C7317515   1.860   6.833   5.431  0.4192 -0.4692  0.3435
   52MOL    C7417516   1.950   6.945   5.442 -0.5504  0.6949  0.1922
   52MOL    C7517517   1.962   7.019   5.558  0.3143 -0.0913  0.1831
   52MOL    C7617518   1.871   6.995   5.661 -0.3150 -0.0357  0.5317
   52MOL    C7717519   1.774   6.891   5.651  0.7520  0.3012 -0.5856
   52MOL    O7817520   1.707   6.601   5.412 -0.5703  0.2108  0.0572
   52MOL    H7917521   1.506   6.735   5.624 -3.5628  0.1285 -0.8857
   52MOL    H8017522   1.471   6.632   5.484 -0.0829  0.9856 -0.1558
   52MOL    H8117523   1.697   6.617   5.617 -0.5865 -0.8203 -0.9461
   52MOL    H8217524   1.854   6.776   5.340  0.9688  0.4194 -0.2569
   52MOL    H8317525   2.011   6.978   5.359  0.2979  0.8380  0.8630
   52MOL    H8417526   2.037   7.095   5.576  0.8919 -0.5564 -0.2755
   52MOL    H8517527   1.870   7.060   5.747  2.5357  0.3750  0.2927
   52MOL    H8617528   1.720   6.872   5.743  4.1352 -3.4722  0.7807
   52MOL    C8717529   1.728   6.458   5.417 -0.9743  0.0322 -0.1878
   52MOL    C8817530   1.753   6.387   5.281  0.2265  0.0676 -0.1446
   52MOL    C8917531   1.656   6.440   5.174  0.5852 -0.9034  0.2993
   52MOL    C9017532   1.511   6.420   5.184 -0.2852 -0.0991 -0.2739
   52MOL    C9117533   1.430   6.467   5.080  0.0941 -0.0488  0.0543
   52MOL    C9217534   1.490   6.519   4.960  0.1113  0.4863 -0.1015
   52MOL    C9317535   1.629   6.542   4.952  0.0309  0.2119  0.0378
   52MOL    C9417536   1.712   6.505   5.059 -0.4175  0.1802  0.1755
   52MOL    O9517537   1.743   6.247   5.306 -0.5637  0.2553 -0.3100
   52MOL    H9617538   1.650   6.408   5.473  0.5647  1.7316  3.6280
   52MOL    H9717539   1.817   6.446   5.479 -0.9474 -1.4196 -0.4934
   52MOL    H9817540   1.851   6.414   5.242  0.3543 -0.1384  0.0311
   52MOL    H9917541   1.460   6.364   5.261  0.3362 -1.5382 -0.8935
   52MOL   H10017542   1.324   6.445   5.074  0.3112 -1.5954  1.4966
   52MOL   H10117543   1.426   6.546   4.878  0.8496 -0.1531 -0.9012
   52MOL   H10217544   1.649   6.589   4.857 -2.1347  1.9894  0.4363
   52MOL   H10317545   1.819   6.517   5.050 -0.6804  2.5788 -0.1990
   52MOL   C10417546   1.730   6.151   5.201  0.6423 -0.3488 -0.0774
   52MOL   C10517547   1.662   6.019   5.245 -0.0491 -0.2468 -0.8051
   52MOL   C10617548   1.751   5.925   5.322  0.2449 -0.0720 -0.0691
   52MOL   C10717549   1.882   5.899   5.279  0.2137  0.1079  0.2967
   52MOL   C10817550   1.960   5.807   5.342 -0.4358 -0.2664 -0.0940
   52MOL   C10917551   1.924   5.755   5.472  0.7820  0.2394  0.1490
   52MOL   C11017552   1.790   5.778   5.514 -0.4793  0.0854 -0.1958
   52MOL   C11117553   1.710   5.866   5.442 -0.4423 -0.1649  0.2955
   52MOL   O11217554   1.533   6.042   5.294 -0.3174  0.0401 -0.0991
   52MOL   H11317555   1.668   6.186   5.118  1.3241  1.5786  0.1951
   52MOL   H11417556   1.830   6.140   5.159  1.1300  1.2175  0.6347
   52MOL   H11517557   1.648   5.964   5.152  3.1869 -1.7312 -0.4934
   52MOL   H11617558   1.926   5.942   5.191 -0.0275 -1.3265 -0.5410
   52MOL   H11717559   2.054   5.787   5.293  0.8326  1.1099  1.6963
   52MOL   H11817560   1.982   5.690   5.535 -1.2511 -0.6889  1.1119
   52MOL   H11917561   1.754   5.748   5.611  0.0744  0.7067  0.2080
   52MOL   H12017562   1.614   5.891   5.484  1.3528  0.1507  4.4111
   52MOL   C12117563   1.417   5.960   5.271 -0.0846  0.4884  0.3009
   52MOL   C12217564   1.331   6.036   5.170  0.6553  0.6329 -0.2999
   52MOL   C12317565   1.388   6.012   5.031  0.1841  0.8181  1.2488
   52MOL   C12417566   1.451   6.117   4.959 -0.1671 -0.4197  0.2272
   52MOL   C12517567   1.503   6.089   4.827  0.1915 -0.4666 -0.2973
   52MOL   C12617568   1.483   5.963   4.768 -0.6951 -0.5248  0.0475
   52MOL   C12717569   1.410   5.863   4.837 -0.0648  0.4086 -0.2253
   52MOL   C12817570   1.366   5.884   4.971 -0.0800  0.3164  0.0150
   52MOL   O12917571   1.194   5.993   5.184 -0.2579 -0.0255  0.5074
   52MOL   H13017572   1.360   5.941   5.362  0.0701  1.2588  0.5589
   52MOL   H13117573   1.439   5.862   5.229  1.8851  1.0654 -0.0620
   52MOL   H13217574   1.347   6.140   5.198  1.0715  0.5136 -0.0963
   52MOL   H13317575   1.477   6.216   4.994 -0.7461  0.6959 -2.3235
   52MOL   H13417576   1.551   6.174   4.780  0.7057 -1.0460 -0.8227
   52MOL   H13517577   1.525   5.934   4.672 -2.3415 -2.3070 -0.1716
   52MOL   H13617578   1.392   5.767   4.789 -0.7679  0.7147 -0.5834
   52MOL   H13717579   1.321   5.802   5.026  1.8287  1.2310  3.0002
   52MOL   C13817580   1.093   6.054   5.103 -0.3686  0.5117 -0.4363
   52MOL   C13917581   0.965   5.969   5.110  0.6860 -0.5351 -0.1384
   52MOL   C14017582   0.856   6.046   5.036 -0.4056  0.1341  0.6815
   52MOL   C14117583   0.829   6.035   4.901 -0.1863  0.5225  0.2226
   52MOL   C14217584   0.744   6.126   4.836  0.3603 -0.0102 -1.0067
   52MOL   C14317585   0.681   6.232   4.907 -0.0151 -0.1317  0.6552
   52MOL   C14417586   0.702   6.247   5.044  0.2851  0.0179  0.6631
   52MOL   C14517587   0.790   6.154   5.109 -0.0518 -0.2399  0.4556
   52MOL   O14617588   0.984   5.842   5.044 -0.3482  0.0650  0.4732
   52MOL   H14717589   1.123   6.063   4.999 -1.4987  0.4707 -0.7636
   52MOL   H14817590   1.093   6.155   5.145  1.6363 -0.8055  2.9448
   52MOL   H14917591   0.935   5.945   5.213 -0.5283 -0.8675 -0.5652
   52MOL   H15017592   0.894   5.963   4.852  0.9062  0.6369  1.4716
   52MOL   H15117593   0.749   6.124   4.729  1.3735 -0.8852 -0.9570
   52MOL   H15217594   0.616   6.299   4.854  0.4529 -0.7093 -0.6561
   52MOL   H15317595   0.653   6.322   5.103 -0.2740 -0.0040  0.2297
   52MOL   H15417596   0.799   6.160   5.217 -0.6525  0.7629  0.4559
   52MOL   C15517597   0.997   5.727   5.129  0.3339 -0.1958  0.0433
   52MOL   C15617598   1.024   5.602   5.044  0.1108 -1.4526 -0.4911
   52MOL   C15717599   0.930   5.597   4.921 -0.0769  0.5012 -0.0222
   52MOL   C15817600   0.969   5.642   4.793 -0.2777  0.9944  0.3331
   52MOL   C15917601   0.873   5.645   4.689  0.1658 -0.2828 -0.4893
   52MOL   C16017602   0.743   5.592   4.711  0.3472  0.1681  0.3072
   52MOL   C16117603   0.717   5.530   4.831 -0.3597 -0.0001  0.0822
   52MOL   C16217604   0.803   5.532   4.935 -0.4095 -0.2588  0.4181
   52MOL   O16317605   1.160   5.585   5.000 -0.1653 -0.2288  0.8019
   52MOL   H16417606   0.909   5.712   5.191  1.0414  0.9664  1.3535
   52MOL   H16517607   1.077   5.749   5.200 -1.5165  2.2542  1.4517
   52MOL   H16617608   1.004   5.514   5.106 -1.1262 -2.0154 -1.6636
   52MOL   H16717609   1.065   5.681   4.764 -0.1021 -0.5993 -1.3200
   52MOL   H16817610   0.887   5.681   4.588 -0.8950 -2.4768 -1.4776
   52MOL   H16917611   0.667   5.603   4.636  0.0936 -0.8720  0.3984
   52MOL   H17017612   0.618   5.487   4.837 -0.3682  0.1552  1.2495
   52MOL   H17117613   0.780   5.482   5.028  0.4162  1.3856  1.5497
   52MOL   C17217614   1.198   5.449   4.969 -0.4508 -0.7570 -0.9625
   52MOL   C17317615   1.348   5.440   4.934  0.2179  0.1486 -0.2695
   52MOL   C17417616   1.426   5.501   5.046  0.3912 -0.1767  0.1621
   52MOL   C17517617   1.521   5.609   5.024  0.2379 -0.1425  0.6172
   52MOL   C17617618   1.600   5.654   5.126 -0.1016 -0.4208 -0.5745
   52MOL   C17717619   1.591   5.599   5.253 -0.1727  0.1289 -0.0527
   52MOL   C17817620   1.503   5.494   5.282 -0.4818  0.2836 -0.6175
   52MOL   C17917621   1.413   5.449   5.180 -0.8434 -0.4559 -0.4854
   52MOL   O18017622   1.372   5.503   4.814 -0.0500  0.2114 -0.3931
   52MOL   H18117623   1.179   5.389   5.058 -1.8663  2.8702  1.2691
   52MOL   H18217624   1.129   5.394   4.906  0.2842 -4.3126  1.2035
   52MOL   H18317625   1.371   5.334   4.923  0.7448  0.2047  0.2321
   52MOL   H18417626   1.531   5.656   4.928 -0.9705  0.2699  0.6812
   52MOL   H18517627   1.680   5.723   5.107 -0.9014  1.0067  1.1009
   52MOL   H18617628   1.656   5.623   5.336 -0.5958 -2.2719  1.0165
   52MOL   H18717629   1.502   5.458   5.384  1.8029 -0.1774 -0.7389
   52MOL   H18817630   1.347   5.369   5.207  0.5204 -1.1313  0.8973
   52MOL   C18917631   1.310   5.449   4.697  0.1761  0.1127 -0.4467
   52MOL   C19017632   1.366   5.509   4.569  0.8293  0.2250  0.5070
   52MOL   C19117633   1.251   5.517   4.467  0.4494 -0.2674 -0.2529
   52MOL   C19217634   1.205   5.407   4.396  0.8101  0.4581  0.4025
   52MOL   C19317635   1.116   5.421   4.291 -0.0577  0.0391 -0.3799
   52MOL   C19417636   1.072   5.555   4.267 -0.1545 -0.6003 -0.6103
   52MOL   C19517637   1.094   5.664   4.352 -0.0828 -0.0895  0.1200
   52MOL   C19617638   1.189   5.641   4.447 -0.0831 -0.3354 -0.3900
   52MOL   O19717639   1.466   5.421   4.530  0.1934  0.0592  0.0475
   52MOL   H19817640   1.329   5.342   4.706  1.0099  0.2452 -0.5608
   52MOL   H19917641   1.204   5.468   4.715  0.5594  1.0262  1.0184
   52MOL   H20017642   1.392   5.614   4.580  0.2110  0.5140 -0.6807
   52MOL   H20117643   1.257   5.313   4.405 -0.1653 -0.1791 -0.5737
   52MOL   H20217644   1.101   5.337   4.225 -2.9458 -0.5702  0.9513
   52MOL   H20317645   1.003   5.571   4.185  0.4071 -1.2712 -1.2332
   52MOL   H20417646   1.057   5.763   4.332 -0.0394 -0.0453  0.2557
   52MOL   H20517647   1.221   5.707   4.526 -0.2303 -2.1917  1.2535
   52MOL   C20617648   1.564   5.479   4.454  0.1390 -0.5113 -0.0879
   52MOL   C20717649   1.692   5.389   4.437  0.4132 -0.5144  0.7792
   52MOL   C20817650   1.662   5.247   4.382 -1.1805 -0.2683 -0.0141
   52MOL   C20917651   1.535   5.212   4.330 -0.4891  0.1481  0.5606
   52MOL   C21017652   1.515   5.082   4.291  0.2040  0.8092  0.3507
   52MOL   C21117653   1.612   4.983   4.310 -0.4818  0.1544  0.2051
   52MOL   C21217654   1.735   5.018   4.368  0.9597  0.3782 -0.3544
   52MOL   C21317655   1.758   5.152   4.401  0.2023 -0.1500  0.2567
   52MOL   O21417656   1.783   5.388   4.550 -0.1750  0.1234 -0.1509
   52MOL   H21517657   1.531   5.519   4.358 -0.6907  0.5930  0.6531
   52MOL   H21617658   1.593   5.569   4.509 -1.8840  0.9188 -1.3014
   52MOL   H21717659   1.748   5.437   4.357  1.6192 -1.6535  0.9279
   52MOL   H21817660   1.461   5.291   4.322  1.9215  2.4505  0.3533
   52MOL   H21917661   1.420   5.071   4.242  0.8382 -1.3095 -0.4720
   52MOL   H22017662   1.600   4.882   4.274  1.4884  0.3264 -1.0285
   52MOL   H22117663   1.805   4.939   4.389  0.6962  0.0122 -0.8363
   52MOL   H22217664   1.853   5.180   4.444  2.2665 -0.6864 -3.7702
   52MOL   C22317665   1.729   5.325   4.669  0.3974  0.4108  0.0133
   52MOL   C22417666   1.844   5.297   4.769  0.1633 -0.5237  0.2835
   52MOL   C22517667   1.792   5.233   4.891 -0.2650 -0.2913  0.4361
   52MOL   C22617668   1.786   5.093   4.895 -0.1923 -0.4423 -0.2282
   52MOL   C22717669   1.733   5.026   5.007 -0.2046 -0.6358  0.1971
   52MOL   C22817670   1.701   5.095   5.121  0.7394 -0.4782 -0.5085
   52MOL   C22917671   1.694   5.235   5.111 -0.5357 -0.3688  0.6674
   52MOL   C23017672   1.746   5.304   5.000  0.2969  0.5174  0.4143
   52MOL   O23117673   1.947   5.233   4.701 -0.4326  0.0059 -0.1199
   52MOL   H23217674   1.663   5.396   4.719 -0.7820  0.0049 -0.9467
   52MOL   H23317675   1.675   5.232   4.654 -0.0023  0.5081  0.8201
   52MOL   H23417676   1.875   5.400   4.784 -0.2772 -0.3901  0.2793
   52MOL   H23517677   1.810   5.039   4.805 -2.5223 -0.1331 -1.0727
   52MOL   H23617678   1.713   4.920   5.013 -0.7985 -0.4541  1.7449
   52MOL   H23717679   1.669   5.039   5.207  0.2303 -0.7595 -0.8759
   52MOL   H23817680   1.663   5.307   5.186 -0.4423 -0.5692  0.9004
   52MOL   H23917681   1.753   5.412   5.003  3.8304  0.3238  0.6726
   52MOL   C24017682   2.074   5.234   4.761  0.0214  0.5911 -0.1829
   52MOL   C24117683   2.168   5.163   4.659 -0.7824 -0.2551 -0.4676
   52MOL   C24217684   2.317   5.204   4.662  0.3148 -0.2582  0.0405
   52MOL   C24317685   2.425   5.115   4.671 -0.5914 -0.4463  0.3852
   52MOL   C24417686   2.559   5.158   4.662  0.0485  0.3997  0.5942
   52MOL   C24517687   2.585   5.296   4.651  0.2713 -0.7213 -0.1519
   52MOL   C24617688   2.477   5.386   4.664  0.7961 -0.4415 -0.7436
   52MOL   C24717689   2.346   5.338   4.657  0.1585  0.1448  0.0519
   52MOL   O24817690   2.162   5.025   4.658 -0.1331  0.2722 -0.3270
   52MOL   H24917691   2.106   5.336   4.781  1.0011 -0.1245  2.1842
   52MOL   H25017692   2.072   5.177   4.855 -0.0682 -0.4147 -0.7899
   52MOL   H25117693   2.141   5.186   4.556 -1.0659 -0.6244 -0.4787
   52MOL   H25217694   2.402   5.011   4.689 -2.0269 -0.8622 -3.4133
   52MOL   H25317695   2.643   5.091   4.667  0.4672  0.6236 -2.2289
   52MOL   H25417696   2.686   5.327   4.629  0.5738 -2.4824 -1.4114
   52MOL   H25517697   2.500   5.488   4.640  1.4000 -0.1531  0.9932
   52MOL   H25617698   2.267   5.411   4.652 -2.6450 -2.8181 -0.7700
   52MOL   C25717699   2.066   4.969   4.572 -0.4259  0.3002 -0.0621
   52MOL   C25817700   2.066   4.809   4.581 -0.2474  0.0353  0.3057
   52MOL   C25917701   1.977   4.753   4.692 -0.5433 -0.4847  0.3718
   52MOL   C26017702   1.853   4.695   4.663  0.1485  0.6982 -0.6315
   52MOL   C26117703   1.784   4.631   4.765  0.0420 -0.2800 -0.3876
   52MOL   C26217704   1.838   4.621   4.892 -0.4006 -0.5066 -0.5570
   52MOL   C26317705   1.960   4.688   4.925  0.4963  0.2025 -0.6881
   52MOL   C26417706   2.025   4.758   4.823 -0.3758 -0.1043 -0.7022
   52MOL   O26517707   2.194   4.756   4.586 -0.0209  0.1299 -0.5465
   52MOL   H26617708   2.091   4.990   4.468 -2.0804 -0.1281 -0.5508
   52MOL   H26717709   1.964   5.004   4.585 -0.4015  0.4147 -0.1775
   52MOL   H26817710   2.006   4.773   4.497  0.4657 -1.0792  0.2562
   52MOL   H26917711   1.808   4.685   4.565  1.5853 -2.3522 -1.0358
   52MOL   H27017712   1.691   4.578   4.755  0.7926 -1.8023  0.5467
   52MOL   H27117713   1.788   4.573   4.975  0.6553  1.7259  1.4290
   52MOL   H27217714   1.989   4.701   5.028  0.7582 -1.4499 -0.5466
   52MOL   H27317715   2.117   4.806   4.851  0.0521 -2.2202  1.7201
   52MOL   C27417716   2.289   4.799   4.484  0.2173 -0.1853 -0.1078
   52MOL   C27517717   2.421   4.717   4.495  0.4521  0.3109 -0.1237
   52MOL   C27617718   2.515   4.741   4.610  0.2007  0.1998  0.3637
   52MOL   C27717719   2.459   4.768   4.738 -0.7481 -0.3761  0.7267
   52MOL   C27817720   2.544   4.792   4.846 -0.2881  0.0638  0.0597
   52MOL   C27917721   2.686   4.793   4.827 -0.4210  0.5705 -0.3369
   52MOL   C28017722   2.742   4.760   4.704 -0.2296  0.7070  0.1127
   52MOL   C28117723   2.657   4.738   4.599 -0.1674  0.2996 -0.0987
   52MOL   O28217724   2.486   4.734   4.375 -0.2925 -0.0750  0.0832
   52MOL   H28317725   2.234   4.787   4.391 -0.7832  2.6084  0.0519
   52MOL   H28417726   2.310   4.906   4.492  0.7030 -0.3522  0.9072
   52MOL   H28517727   2.383   4.614   4.494 -0.6480  0.7173 -1.8771
   52MOL   H28617728   2.353   4.779   4.752 -0.6946  1.4279 -0.1446
   52MOL   H28717729   2.502   4.800   4.945 -0.1799 -3.0551  0.4223
   52MOL   H28817730   2.747   4.820   4.912 -1.2264  2.2244 -0.2794
   52MOL   H28917731   2.847   4.740   4.690 -0.5172 -2.4871  1.9575
   52MOL   H29017732   2.707   4.714   4.506 -0.3771 -0.5330 -0.0011
   52MOL   C29117733   2.441   4.638   4.273  0.2667 -0.0145 -0.3340
   52MOL   C29217734   2.482   4.689   4.137 -0.1135  0.1442  0.3915
   52MOL   C29317735   2.633   4.692   4.121 -0.5758  0.3062  0.3036
   52MOL   C29417736   2.706   4.816   4.122  0.0948  0.4582  0.1096
   52MOL   C29517737   2.846   4.820   4.116  0.2961 -1.1633  0.0595
   52MOL   C29617738   2.921   4.705   4.111  0.3691 -1.1493  0.9135
   52MOL   C29717739   2.858   4.580   4.106  0.4126  0.1988 -0.4275
   52MOL   C29817740   2.715   4.582   4.092  0.4510  0.0958 -0.4564
   52MOL   O29917741   2.406   4.610   4.047  0.1376 -0.2494  0.0820
   52MOL   H30017742   2.332   4.629   4.277  0.3630 -1.0506  0.1413
   52MOL   H30117743   2.479   4.537   4.289 -0.1386 -0.1173 -0.0156
   52MOL   H30217744   2.447   4.791   4.120  0.7696  0.4182  0.1679
   52MOL   H30317745   2.648   4.906   4.131  0.9659  1.1628 -1.2212
   52MOL   H30417746   2.900   4.913   4.124 -2.6876  0.5647  0.9953
   52MOL   H30517747   3.028   4.701   4.125  0.5448  1.6195  0.5710
   52MOL   H30617748   2.928   4.497   4.106 -0.0084 -0.2395 -3.8559
   52MOL   H30717749   2.665   4.490   4.066  1.7957  0.1624 -3.3710
   52MOL   C30817750   2.437   4.627   3.909  0.2235 -0.2479  0.0403
   52MOL   C30917751   2.331   4.695   3.825  0.1864  0.0067  0.0707
   52MOL   C31017752   2.206   4.619   3.814 -0.1352  0.1539  0.8873
   52MOL   C31117753   2.095   4.653   3.902 -0.4374 -0.3485  0.0344
   52MOL   C31217754   1.974   4.584   3.898 -0.1663  0.1960  0.1196
   52MOL   C31317755   1.962   4.487   3.792  0.4191 -0.2773  0.6167
   52MOL   C31417756   2.061   4.457   3.701 -0.4112  0.5801  0.0502
   52MOL   C31517757   2.183   4.525   3.707  0.3466 -0.1706  0.5655
   52MOL   O31617758   2.310   4.829   3.859  0.7083 -0.1235  0.1248
   52MOL   H31717759   2.452   4.524   3.876  0.4820 -0.4302  0.7268
   52MOL   H31817760   2.525   4.691   3.907  0.1088 -0.0814  0.2121
   52MOL   H31917761   2.373   4.688   3.725  0.2001 -2.6199  0.2150
   52MOL   H32017762   2.105   4.722   3.985 -2.1531 -0.2868  0.1984
   52MOL   H32117763   1.889   4.603   3.961 -1.2700  1.3953 -1.6844
   52MOL   H32217764   1.867   4.438   3.783 -0.2431  0.8662  1.1452
   52MOL   H32317765   2.039   4.392   3.617 -0.7610  2.8505 -1.6797
   52MOL   H32417766   2.263   4.497   3.642  0.9014 -1.3081  1.7191
   52MOL   C32517767   2.407   4.918   3.812  1.0391 -0.5905  0.2499
   52MOL   C32617768   2.361   5.059   3.839 -0.1585  0.8381  0.8434
   52MOL   C32717769   2.340   5.075   3.988 -0.7342  0.2438 -0.5280
   52MOL   C32817770   2.440   5.141   4.067  0.1445  0.3114  0.4926
   52MOL   C32917771   2.409   5.180   4.198  0.1701  0.2787 -0.6700
   52MOL   C33017772   2.285   5.137   4.258  0.1843 -0.2932 -0.8149
   52MOL   C33117773   2.197   5.059   4.187  0.4785  0.3418  0.5264
   52MOL   C33217774   2.223   5.030   4.048  0.8849  0.0365  0.4180
   52MOL   O33317775   2.446   5.144   3.770 -0.4673 -0.0884 -0.5688
   52MOL   H33417776   2.418   4.913   3.703  0.1331  3.8196 -0.1714
   52MOL   H33517777   2.503   4.891   3.856  0.7581 -1.6711  0.2058
   52MOL   H33617778   2.267   5.063   3.784  0.6386 -0.9231 -0.7486
   52MOL   H33717779   2.535   5.167   4.022  0.6262  2.6658  2.7353
   52MOL   H33817780   2.477   5.235   4.261 -1.7007  3.5809 -1.4506
   52MOL   H33917781   2.255   5.161   4.359 -1.2289  0.8227 -1.4767
   52MOL   H34017782   2.111   5.015   4.235  0.8083  0.4672  1.2295
   52MOL   H34117783   2.151   4.982   3.984 -0.1107  1.0801  0.7233
   52MOL   H34217784   2.531   5.140   3.812 -0.8437  1.6485  0.3761
   53MOL     C117785   5.207   2.764   0.533  0.7133  0.1135 -0.6019
   53MOL     C217786   5.294   2.674   0.612 -0.1063  0.0365  0.0866
   53MOL     C317787   5.258   2.665   0.765 -0.8076 -0.4506 -0.1740
   53MOL     C417788   5.154   2.580   0.798 -0.2034  0.3672  0.5957
   53MOL     C517789   5.106   2.579   0.932 -0.0692  0.3185  0.3439
   53MOL     C617790   5.167   2.659   1.034  0.0530  0.1851 -0.1087
   53MOL     C717791   5.277   2.736   0.999 -0.0188  0.7580 -0.0064
   53MOL     C817792   5.321   2.743   0.866  0.0858  0.7115 -0.1917
   53MOL     O917793   5.428   2.720   0.603 -0.4090  0.2832  0.0922
   53MOL    H1017794   5.105   2.727   0.539 -0.3810  2.7499 -2.3387
   53MOL    H1117795   5.211   2.871   0.551 -2.7495  0.2902 -0.5482
   53MOL    H1217796   5.280   2.574   0.572 -1.0179 -0.5166  1.7284
   53MOL    H1317797   5.090   2.530   0.726  2.0467 -0.4653 -0.8752
   53MOL    H1417798   5.023   2.518   0.964  0.5490 -1.1896 -0.8592
   53MOL    H1517799   5.128   2.656   1.135  1.6596 -0.2964  0.5196
   53MOL    H1617800   5.337   2.792   1.069 -0.1856 -0.6337  1.2992
   53MOL    H1717801   5.401   2.811   0.838  1.3622  0.3319  2.4381
   53MOL    H1817802   5.232   2.752   0.427  1.5208  1.4488 -0.5682
   53MOL    C1917803   5.495   2.655   0.504  0.6411 -0.2452  0.1138
   53MOL    C2017804   5.639   2.713   0.487 -0.2211 -0.2165  0.1718
   53MOL    C2117805   5.730   2.693   0.608  0.8778 -0.0173  0.2955
   53MOL    C2217806   5.731   2.793   0.711  0.5033  0.1837  0.9440
   53MOL    C2317807   5.807   2.778   0.824 -0.3938  0.1616  0.0649
   53MOL    C2417808   5.888   2.662   0.839 -0.0311 -0.4217 -0.7698
   53MOL    C2517809   5.882   2.561   0.738 -0.3496 -0.2586  0.1821
   53MOL    C2617810   5.799   2.572   0.625 -0.5309  0.0540  0.3663
   53MOL    O2717811   5.633   2.844   0.433 -0.2336  0.0198  0.0949
   53MOL    H2817812   5.512   2.551   0.531  0.5155 -0.4776 -0.6872
   53MOL    H2917813   5.441   2.663   0.409 -0.9251 -2.2102  0.8126
   53MOL    H3017814   5.681   2.647   0.411 -1.8270 -1.5298  0.3799
   53MOL    H3117815   5.661   2.872   0.692  0.2885  0.3016  2.1423
   53MOL    H3217816   5.817   2.858   0.897 -0.2725 -0.6319  0.9286
   53MOL    H3317817   5.950   2.641   0.924 -2.2080 -0.7691  0.7703
   53MOL    H3417818   5.933   2.467   0.744  1.2674  0.4867 -1.2710
   53MOL    H3517819   5.791   2.495   0.549 -1.0245  1.5617 -1.1282
   53MOL    C3617820   5.749   2.903   0.382 -0.2099  0.1527 -0.3807
   53MOL    C3717821   5.736   2.907   0.226 -0.2357  0.1540  0.1444
   53MOL    C3817822   5.611   2.973   0.176 -0.0874 -0.0302  0.8137
   53MOL    C3917823   5.498   2.893   0.142  0.2307 -0.4746 -1.0722
   53MOL    C4017824   5.379   2.957   0.094  0.0645 -0.3289 -1.2712
   53MOL    C4117825   5.374   3.100   0.088 -0.3675  0.3328 -1.1167
   53MOL    C4217826   5.485   3.184   0.120  0.0129 -0.6022  0.6569
   53MOL    C4317827   5.602   3.116   0.172 -0.1004  0.3726  0.1418
   53MOL    O4417828   5.733   2.766   0.201 -0.5594 -0.4221  0.5043
   53MOL    H4517829   5.772   3.003   0.418  2.5493 -1.6262  3.1065
   53MOL    H4617830   5.838   2.846   0.410  1.0528  1.9103 -0.6956
   53MOL    H4717831   5.820   2.961   0.183 -1.6184  0.4838 -2.1956
   53MOL    H4817832   5.497   2.785   0.141 -0.8472 -0.4873 -0.1451
   53MOL    H4917833   5.297   2.892   0.066 -0.2854 -0.7367  0.6153
   53MOL    H5017834   5.288   3.145   0.041  0.9129  2.3218 -1.6086
   53MOL    H5117835   5.474   3.291   0.114 -0.5927 -0.6711  0.5010
   53MOL    H5217836   5.688   3.173   0.201 -2.2087  2.9821  1.5288
   53MOL    C5317837   5.757   2.730   0.068 -0.0187 -0.6896 -0.1149
   53MOL    C5417838   5.783   2.575   0.063 -0.9852 -0.5469  0.3033
   53MOL    C5517839   5.750   2.518   8.007 -1.6925  0.2964  0.3788
   53MOL    C5617840   5.849   2.510   7.903  0.1902  0.1001  0.0351
   53MOL    C5717841   5.818   2.446   7.781 -0.7068 -0.2392  0.2269
   53MOL    C5817842   5.692   2.382   7.767 -0.8349  0.2535 -0.3577
   53MOL    C5917843   5.589   2.402   7.860 -0.3380  0.1807  0.2836
   53MOL    C6017844   5.620   2.469   7.981 -0.8092  0.5750  0.3203
   53MOL    O6117845   5.916   2.540   0.102 -0.0055 -0.2290  0.0070
   53MOL    H6217846   5.663   2.746   0.015 -1.4538  0.2313  2.6513
   53MOL    H6317847   5.841   2.785   0.025 -1.6712  0.4417 -1.9672
   53MOL    H6417848   5.712   2.530   0.133 -1.9889  2.5214  1.3361
   53MOL    H6517849   5.949   2.548   7.919  0.4240 -0.0140 -1.1616
   53MOL    H6617850   5.903   2.422   7.718 -0.2818  0.1759  0.6373
   53MOL    H6717851   5.673   2.327   7.677 -1.4325  2.9538 -1.9318
   53MOL    H6817852   5.486   2.370   7.844 -0.2884 -0.2241  0.7443
   53MOL    H6917853   5.547   2.470   8.061 -0.8979  0.8763  0.2395
   53MOL    C7017854   5.940   2.546   0.242  0.2707  0.2204 -0.9396
   53MOL    C7117855   6.093   2.563   0.268  1.2324 -0.1706  0.1911
   53MOL    C7217856   6.138   2.701   0.242 -0.1726 -0.0791 -0.0328
   53MOL    C7317857   6.135   2.787   0.348  0.3786  0.1309 -0.0126
   53MOL    C7417858   6.161   2.927   0.330 -0.4500 -0.4793  0.1523
   53MOL    C7517859   6.187   2.974   0.197  0.1551  0.0230  0.1748
   53MOL    C7617860   6.189   2.887   0.091 -0.0686 -0.0284  0.4630
   53MOL    C7717861   6.164   2.746   0.108  0.7359  0.1836  0.1170
   53MOL    O7817862   6.182   2.480   0.191  0.0572  0.1201  0.0908
   53MOL    H7917863   5.892   2.620   0.306  2.6536 -0.2158  1.4539
   53MOL    H8017864   5.906   2.448   0.276 -0.7506  0.1461 -2.1590
   53MOL    H8117865   6.111   2.550   0.374  1.9279 -0.6055  0.0241
   53MOL    H8217866   6.108   2.753   0.447  2.3659 -0.2402  0.4208
   53MOL    H8317867   6.158   3.001   0.409 -0.1345  0.3055 -0.5633
   53MOL    H8417868   6.216   3.073   0.166 -0.5528 -0.4354 -2.0099
   53MOL    H8517869   6.195   2.925   8.071  2.9357 -1.0347  0.2009
   53MOL    H8617870   6.153   2.680   0.024 -0.3359  1.3210 -0.6503
   53MOL    C8717871   6.168   2.343   0.223  0.5728 -0.3588 -0.0442
   53MOL    C8817872   6.283   2.255   0.161  0.5714 -0.2585  0.2133
   53MOL    C8917873   6.250   2.105   0.200  0.0527  0.8381 -0.2870
   53MOL    C9017874   6.315   2.042   0.309 -0.4367  0.9147  0.5247
   53MOL    C9117875   6.298   1.901   0.332  0.5088 -0.4988 -0.7289
   53MOL    C9217876   6.210   1.825   0.246 -0.7303 -0.5657 -0.5676
   53MOL    C9317877   6.135   1.893   0.147  0.3254  0.4962  0.5842
   53MOL    C9417878   6.150   2.034   0.130 -0.2252  0.6525 -0.8397
   53MOL    O9517879   6.412   2.300   0.199  0.1290 -0.4103 -0.0642
   53MOL    H9617880   6.069   2.310   0.192  1.1481 -0.8818 -1.3909
   53MOL    H9717881   6.164   2.322   0.330 -1.6027 -1.9738 -0.4032
   53MOL    H9817882   6.284   2.263   0.052  0.6824 -1.4446  0.1265
   53MOL    H9917883   6.390   2.093   0.368  1.2982  0.7875 -1.4827
   53MOL   H10017884   6.353   1.846   0.406 -0.2731  0.4820  0.6056
   53MOL   H10117885   6.202   1.718   0.264  0.0175 -0.8105 -1.6986
   53MOL   H10217886   6.061   1.832   0.098 -0.7432  1.5266  0.9012
   53MOL   H10317887   6.093   2.079   0.051 -1.2453  1.6513  0.4369
   53MOL   C10417888   6.507   2.286   0.098  0.2696 -0.2452 -0.5328
   53MOL   C10517889   6.634   2.369   0.132 -0.3276 -0.0196 -0.5342
   53MOL   C10617890   6.598   2.519   0.123 -0.4677  0.3567 -0.1602
   53MOL   C10717891   6.511   2.578   0.213  0.3835 -0.1345 -0.0886
   53MOL   C10817892   6.479   2.715   0.211  0.2798  0.3856 -0.2131
   53MOL   C10917893   6.533   2.785   0.099  0.1421  0.5093  0.3342
   53MOL   C11017894   6.618   2.732   8.080 -0.4615  0.0395 -0.0110
   53MOL   C11117895   6.652   2.595   0.012 -0.3684  0.2046 -0.0444
   53MOL   O11217896   6.680   2.326   0.255  0.0719  0.0125 -0.1838
   53MOL   H11317897   6.532   2.182   0.077  0.6262 -0.5917  1.4935
   53MOL   H11417898   6.471   2.329   0.005  0.4997  1.7885  0.2837
   53MOL   H11517899   6.688   2.343   0.040  0.7385  2.5694 -0.6866
   53MOL   H11617900   6.469   2.518   0.293 -0.7056  1.6527  0.7309
   53MOL   H11717901   6.412   2.751   0.287  0.0693 -2.5959  1.1002
   53MOL   H11817902   6.502   2.887   0.087  0.8645  0.6257 -0.5640
   53MOL   H11917903   6.647   2.796   7.998  1.1594  0.8409  1.1540
   53MOL   H12017904   6.726   2.557   8.024 -0.9068  1.0193 -1.0912
   53MOL   C12117905   6.813   2.366   0.284  0.1729 -0.0267 -0.3086
   53MOL   C12217906   6.929   2.285   0.221  0.2247 -0.4914 -0.1805
   53MOL   C12317907   6.911   2.135   0.231  0.1056  0.2424 -0.2117
   53MOL   C12417908   6.993   2.067   0.321 -0.1507 -0.3382 -0.6252
   53MOL   C12517909   6.973   1.928   0.342  0.7043  0.6249 -0.1657
   53MOL   C12617910   6.878   1.853   0.266  0.3355 -0.1904  0.7905
   53MOL   C12717911   6.800   1.928   0.171 -0.4990 -1.6728  0.0133
   53MOL   C12817912   6.820   2.066   0.157 -0.5918 -0.3647 -0.1394
   53MOL   O12917913   6.952   2.333   0.085 -0.5057  0.0656 -0.2853
   53MOL   H13017914   6.812   2.358   0.392  1.0533 -0.4329 -0.3305
   53MOL   H13117915   6.810   2.472   0.258  0.2806  0.1428  0.3771
   53MOL   H13217916   7.023   2.324   0.260  0.0754 -0.0890 -0.2195
   53MOL   H13317917   7.085   2.106   0.363 -0.0262 -0.8453 -0.4217
   53MOL   H13417918   7.021   1.878   0.425 -0.1955  0.3201  0.1674
   53MOL   H13517919   6.854   1.749   0.283  0.1516 -0.5537 -1.5829
   53MOL   H13617920   6.724   1.879   0.113 -2.4880 -1.3284  2.2391
   53MOL   H13717921   6.777   2.125   0.077  0.6903  1.7682  0.7055
   53MOL   C13817922   7.065   2.269   0.022  0.1275 -0.3041  0.1684
   53MOL   C13917923   7.079   2.316   7.956 -0.2014  0.0938  0.1070
   53MOL   C14017924   6.946   2.317   7.877  0.2761 -0.4269 -0.7627
   53MOL   C14117925   6.887   2.432   7.833 -0.1849 -0.1707  0.2872
   53MOL   C14217926   6.766   2.420   7.758 -0.3902  0.0143 -0.1688
   53MOL   C14317927   6.708   2.300   7.727  0.3097  1.3100 -0.4199
   53MOL   C14417928   6.767   2.181   7.775 -0.4767 -0.6083 -0.5579
   53MOL   C14517929   6.881   2.193   7.853 -0.7988  0.4165 -0.1066
   53MOL   O14617930   7.136   2.450   7.954 -0.1217  0.9837 -0.2410
   53MOL   H14717931   7.052   2.161   0.023 -0.7644 -0.1896  1.6255
   53MOL   H14817932   7.155   2.288   0.080 -0.2222  0.2463  0.5317
   53MOL   H14917933   7.160   2.263   7.908  2.0944  2.4844  1.1746
   53MOL   H15017934   6.929   2.530   7.847  1.3376 -0.5368 -1.5353
   53MOL   H15117935   6.709   2.506   7.727 -1.8374 -0.4128  1.2264
   53MOL   H15217936   6.620   2.294   7.664 -0.5125 -2.1003  0.9662
   53MOL   H15317937   6.719   2.086   7.754  0.0965 -1.0169 -0.0398
   53MOL   H15417938   6.914   2.097   7.890  1.4539  1.5830  1.0793
   53MOL   C15517939   7.213   2.476   7.842  0.3088  1.0637 -0.7150
   53MOL   C15617940   7.253   2.622   7.833 -0.0878 -0.0192  0.5815
   53MOL   C15717941   7.143   2.715   7.847 -0.1231 -1.0271  0.3794
   53MOL   C15817942   7.063   2.745   7.731 -0.5623 -0.4121  0.3616
   53MOL   C15917943   6.941   2.810   7.743 -0.0245 -0.0317 -0.4149
   53MOL   C16017944   6.899   2.861   7.870  0.0189 -0.6951 -0.2083
   53MOL   C16117945   6.974   2.834   7.988 -0.5330 -0.1805 -0.3568
   53MOL   C16217946   7.097   2.764   7.971 -0.0683 -0.4530  0.2133
   53MOL   O16317947   7.349   2.646   7.936  0.3860 -0.1787 -0.6047
   53MOL   H16417948   7.173   2.444   7.746 -0.8025  0.0790  0.0518
   53MOL   H16517949   7.307   2.421   7.844 -0.5493 -0.5669 -3.1051
   53MOL   H16617950   7.313   2.641   7.744 -0.9199  1.2916  0.2954
   53MOL   H16717951   7.095   2.696   7.640 -1.0820  0.1632 -0.1304
   53MOL   H16817952   6.884   2.830   7.653 -0.2143 -1.6771 -0.6713
   53MOL   H16917953   6.808   2.920   7.871 -1.2643 -2.5701 -1.7587
   53MOL   H17017954   6.941   2.871   0.004  1.9990 -2.0266  1.2861
   53MOL   H17117955   7.148   2.731   8.061 -1.7167 -1.9380  0.6406
   53MOL   C17217956   7.425   2.766   7.923 -0.0708  0.4494  0.3475
   53MOL   C17317957   7.565   2.732   7.896  0.1847  0.2865 -0.4591
   53MOL   C17417958   7.585   2.683   7.757  0.6128 -0.1136 -0.5884
   53MOL   C17517959   7.606   2.548   7.730 -0.5327  0.1859  0.0213
   53MOL   C17617960   7.651   2.506   7.603 -0.4512 -0.1547  0.6102
   53MOL   C17717961   7.660   2.598   7.492 -0.5621  0.2325 -0.2298
   53MOL   C17817962   7.631   2.731   7.521 -0.2357 -0.1815  0.1741
   53MOL   C17917963   7.591   2.771   7.648  0.9238 -0.1015  0.4805
   53MOL   O18017964   7.627   2.646   7.993 -0.6662 -0.1208 -0.3640
   53MOL   H18117965   7.387   2.823   7.838 -1.1844  0.0666  0.5745
   53MOL   H18217966   7.407   2.830   8.009 -3.8134  1.5971 -1.1883
   53MOL   H18317967   7.627   2.822   7.901  1.0795 -0.1133 -3.2760
   53MOL   H18417968   7.615   2.477   7.811 -0.3183  0.2594  0.0630
   53MOL   H18517969   7.697   2.410   7.586  1.9344  1.1787 -0.7621
   53MOL   H18617970   7.683   2.559   7.394 -1.0820  1.6537 -0.9372
   53MOL   H18717971   7.635   2.807   7.445 -2.7545 -2.0731 -1.9611
   53MOL   H18817972   7.578   2.877   7.665  0.6328 -0.0973  0.2365
   53MOL   C18917973   7.624   2.693   0.051 -0.4262  0.8735 -0.3272
   53MOL   C19017974   7.587   2.579   0.139  0.7692 -0.6021 -0.2319
   53MOL   C19117975   7.455   2.593   0.217 -0.4426 -0.3919 -0.3334
   53MOL   C19217976   7.443   2.654   0.345  0.4095  1.0606  0.5121
   53MOL   C19317977   7.313   2.674   0.404 -0.7273  0.7617 -0.0293
   53MOL   C19417978   7.195   2.630   0.343  0.0208  0.1228  0.6763
   53MOL   C19517979   7.213   2.579   0.211  0.7649 -0.2809 -0.4024
   53MOL   C19617980   7.336   2.560   0.151 -0.0214 -0.0283  0.0640
   53MOL   O19717981   7.694   2.534   0.221 -0.2571 -0.1275  0.2421
   53MOL   H19817982   7.721   2.735   0.077 -0.2032  1.0469 -1.4200
   53MOL   H19917983   7.551   2.772   0.070 -0.0064  1.0285  0.6652
   53MOL   H20017984   7.571   2.497   0.068  1.2753 -1.1324  0.2622
   53MOL   H20117985   7.536   2.677   0.395  0.6182  0.7993  0.2414
   53MOL   H20217986   7.309   2.728   0.498  2.8122  0.0206  0.6394
   53MOL   H20317987   7.101   2.647   0.392 -0.5239 -0.1240 -0.2755
   53MOL   H20417988   7.122   2.552   0.159  1.1815  0.2571 -1.4327
   53MOL   H20517989   7.343   2.525   0.049 -1.5305  1.6398 -0.6463
   53MOL   C20617990   7.684   2.406   0.269 -0.1395 -0.3568 -0.3716
   53MOL   C20717991   7.801   2.375   0.357 -0.3589 -0.3304  0.4729
   53MOL   C20817992   7.820   2.461   0.473  0.0975 -0.0101 -0.3864
   53MOL   C20917993   7.728   2.449   0.581  0.5606  0.6099  0.1831
   53MOL   C21017994   7.740   2.530   0.692  0.5582  0.5159  0.3816
   53MOL   C21117995   7.824   2.638   0.688  0.0743  0.8114  0.5619
   53MOL   C21217996   7.917   2.656   0.579  0.4194 -0.4605 -0.5865
   53MOL   C21317997   7.910   2.569   0.470 -0.0500 -0.1090 -0.1549
   53MOL   O21417998   7.925   2.351   0.288 -0.1647 -0.0749 -0.9179
   53MOL   H21517999   7.592   2.406   0.328  0.5521  0.5949  0.7271
   53MOL   H21618000   7.660   2.330   0.195 -1.3515  0.4171 -0.7921
   53MOL   H21718001   7.774   2.284   0.411 -0.9317 -0.5493 -0.1750
   53MOL   H21818002   7.661   2.367   0.601  0.3603  0.5024 -0.8942
   53MOL   H21918003   7.681   2.503   0.778 -0.9765 -0.7843 -1.0409
   53MOL   H22018004   7.825   2.703   0.773 -0.3593 -1.2573  2.1861
   53MOL   H22118005   7.995   2.729   0.593 -1.2593  1.1515  0.5581
   53MOL   H22218006   7.985   2.592   0.395  2.1509 -1.4750  1.5823
   53MOL   C22318007   7.917   2.234   0.206 -0.3268 -0.0959  0.3088
   53MOL   C22418008   7.935   2.098   0.271  0.1259 -0.5267  0.2029
   53MOL   C22518009   8.058   2.096   0.358 -0.4502 -0.2710  0.0361
   53MOL   C22618010   8.049   2.142   0.492 -0.0357 -0.1871 -0.1743
   53MOL   C22718011   0.074   2.122   0.587  0.7971 -0.3478 -1.1426
   53MOL   C22818012   0.196   2.068   0.535  0.6202 -0.0038  0.3031
   53MOL   C22918013   0.203   2.034   0.393  0.7134  0.0972 -0.0679
   53MOL   C23018014   0.093   2.034   0.307 -0.1156 -0.6787 -0.6055
   53MOL   O23118015   7.829   2.063   0.360 -0.0753  0.3101  0.2731
   53MOL   H23218016   7.822   2.220   0.154 -1.2077  1.3719  1.4906
   53MOL   H23318017   7.995   2.246   0.130 -0.6245 -0.6449 -0.0830
   53MOL   H23418018   7.936   2.021   0.195 -0.5038  1.5603 -1.9950
   53MOL   H23518019   7.957   2.175   0.538  1.1228  1.0948  1.2857
   53MOL   H23618020   0.062   2.150   0.690  0.6313  1.8855 -1.7457
   53MOL   H23718021   0.284   2.047   0.594  2.2695 -1.7496 -2.6595
   53MOL   H23818022   0.297   1.994   0.360 -0.1095 -1.1702 -0.9136
   53MOL   H23918023   0.098   1.990   0.208 -1.4490 -1.2261 -0.4302
   53MOL   C24018024   7.810   1.924   0.372  0.2972  0.7016 -0.8518
   53MOL   C24118025   7.688   1.901   0.454  0.2497 -0.1937 -0.4963
   53MOL   C24218026   7.576   1.994   0.415 -0.5085 -0.4590 -0.1075
   53MOL   C24318027   7.543   2.107   0.498  0.1466  0.2419  0.4649
   53MOL   C24418028   7.447   2.204   0.460  0.0045 -0.6720  0.0149
   53MOL   C24518029   7.363   2.172   0.348  0.2607  0.4639 -0.1002
   53MOL   C24618030   7.401   2.074   0.254  0.3937  0.4050  0.4605
   53MOL   C24718031   7.502   1.986   0.294 -0.7880 -0.2143  0.3745
   53MOL   O24818032   7.660   1.765   0.438 -0.0276 -0.3015  0.2614
   53MOL   H24918033   7.803   1.875   0.274  0.2352 -1.8088  0.3657
   53MOL   H25018034   7.900   1.885   0.420  0.1092  0.1085 -0.9727
   53MOL   H25118035   7.710   1.915   0.560 -0.6578 -1.3087 -0.1445
   53MOL   H25218036   7.583   2.129   0.596  1.1257  1.7335 -0.2580
   53MOL   H25318037   7.431   2.292   0.520 -0.4757 -1.1757  0.6282
   53MOL   H25418038   7.274   2.231   0.328 -0.4699 -1.1557 -1.7821
   53MOL   H25518039   7.346   2.077   0.160 -0.5427  0.7800  1.0110
   53MOL   H25618040   7.526   1.915   0.216 -2.0683 -0.5927  0.3253
   53MOL   C25718041   7.559   1.712   0.525 -0.0953 -0.2884  0.0471
   53MOL   C25818042   7.523   1.572   0.475  0.5246  0.8215 -0.4590
   53MOL   C25918043   7.638   1.472   0.492  0.0056 -0.2117  0.3890
   53MOL   C26018044   7.668   1.425   0.621  0.4508  0.0648  0.2510
   53MOL   C26118045   7.760   1.322   0.645  0.2136 -0.9508 -0.1860
   53MOL   C26218046   7.839   1.275   0.536  0.8243 -0.3842  0.1039
   53MOL   C26318047   7.806   1.325   0.406 -0.0174  0.2016 -0.2759
   53MOL   C26418048   7.708   1.423   0.384  0.2635 -0.4170  0.1450
   53MOL   O26518049   7.470   1.572   0.345 -0.2666  0.1227 -0.1409
   53MOL   H26618050   7.470   1.775   0.524  0.1063  0.0201  0.9361
   53MOL   H26718051   7.591   1.707   0.629  2.6676 -1.6942 -0.8182
   53MOL   H26818052   7.445   1.537   0.543  0.2498 -0.5660 -1.4719
   53MOL   H26918053   7.609   1.457   0.705  1.6361 -1.2999  1.6377
   53MOL   H27018054   7.778   1.298   0.749 -0.8722  3.3753  1.0931
   53MOL   H27118055   7.917   1.201   0.540  1.1425 -0.2142 -2.5078
   53MOL   H27218056   7.870   1.287   0.327 -1.3250  1.7687 -2.1202
   53MOL   H27318057   7.684   1.466   0.287 -0.1817  0.1415  0.4966
   53MOL   C27418058   7.358   1.494   0.336  0.4439  0.0669 -0.3710
   53MOL   C27518059   7.299   1.488   0.197 -0.1741  0.1981  0.0061
   53MOL   C27618060   7.289   1.626   0.133  0.0288  0.6685  0.0832
   53MOL   C27718061   7.383   1.660   0.034  0.3827 -0.1681  0.2339
   53MOL   C27818062   7.368   1.782   8.050 -0.2399 -0.6633  0.1609
   53MOL   C27918063   7.266   1.873   0.010  0.1058 -0.3173 -0.3266
   53MOL   C28018064   7.170   1.830   0.098 -0.2564 -1.1272 -0.9244
   53MOL   C28118065   7.180   1.709   0.166  0.2919  0.3114 -0.1034
   53MOL   O28218066   7.174   1.423   0.210  0.0190  0.1322  0.0000
   53MOL   H28318067   7.383   1.392   0.364 -2.4585 -0.8046 -0.7793
   53MOL   H28418068   7.277   1.528   0.400  0.5958  0.6925 -0.5101
   53MOL   H28518069   7.372   1.428   0.142  0.6564  1.2342 -0.0285
   53MOL   H28618070   7.452   1.585   8.077  0.8079  0.1157  0.4556
   53MOL   H28718071   7.432   1.816   7.970 -1.0118 -1.9738 -1.0241
   53MOL   H28818072   7.257   1.962   8.030  1.1838 -2.0036 -3.1118
   53MOL   H28918073   7.083   1.894   0.095  1.1420  0.8901  0.2045
   53MOL   H29018074   7.115   1.672   0.244  0.5391 -1.1274 -0.5497
   53MOL   C29118075   7.127   1.346   0.096 -0.2125  0.0859  0.1248
   53MOL   C29218076   7.173   1.200   0.117 -0.7934  0.3315  0.1360
   53MOL   C29318077   7.121   1.100   0.019  0.7220 -0.7631 -0.2359
   53MOL   C29418078   7.026   1.004   0.061 -0.7223 -0.9925 -0.5192
   53MOL   C29518079   6.960   0.923   8.050  0.0170  0.4172 -0.0892
   53MOL   C29618080   6.996   0.925   7.920 -0.0535 -0.1181  0.4489
   53MOL   C29718081   7.096   1.014   7.877 -0.9207 -0.4010  0.0946
   53MOL   C29818082   7.154   1.105   7.968 -0.7031 -0.1969  0.8534
   53MOL   O29918083   7.310   1.194   0.123  0.0117  0.1009  0.4934
   53MOL   H30018084   7.155   1.392   0.002 -0.6886 -1.6487 -0.8905
   53MOL   H30118085   7.019   1.340   0.101 -0.1342 -1.1216  0.5575
   53MOL   H30218086   7.121   1.164   0.206  1.2951 -3.7826 -0.2015
   53MOL   H30318087   6.991   0.998   0.163  0.3377 -0.2046 -0.1096
   53MOL   H30418088   6.884   0.855   0.006  0.6334  0.3074  1.0112
   53MOL   H30518089   6.951   0.861   7.846 -0.4010  1.4221 -0.7048
   53MOL   H30618090   7.123   1.011   7.772  2.6437 -1.0691  0.9396
   53MOL   H30718091   7.225   1.179   7.934 -0.3170 -0.6981  0.5516
   53MOL   C30818092   7.367   1.076   0.169 -1.1248 -0.4827 -0.7982
   53MOL   C30918093   7.522   1.098   0.171  0.1582  0.3122  0.4167
   53MOL   C31018094   7.589   0.979   0.239 -0.3703  0.1742  0.4286
   53MOL   C31118095   7.619   0.979   0.379  0.1104 -0.1351 -0.3026
   53MOL   C31218096   7.668   0.869   0.446  0.2345 -0.0733  0.1447
   53MOL   C31318097   7.724   0.761   0.369 -0.5169  0.5628  0.6555
   53MOL   C31418098   7.700   0.762   0.231  0.1636  0.6104 -0.5310
   53MOL   C31518099   7.640   0.869   0.164  0.5258 -0.1216 -0.0058
   53MOL   O31618100   7.555   1.124   0.039  0.5435  0.0124 -0.0205
   53MOL   H31718101   7.352   1.003   0.089 -2.6482  0.2696 -1.2290
   53MOL   H31818102   7.340   1.038   0.267  0.2948  0.5201  0.0002
   53MOL   H31918103   7.528   1.187   0.233 -0.1727  0.0830  0.7806
   53MOL   H32018104   7.578   1.053   0.445  1.4475 -0.5977  1.0704
   53MOL   H32118105   7.671   0.861   0.554  0.9882 -0.2130  0.1155
   53MOL   H32218106   7.776   0.684   0.424 -2.4982 -0.0679  1.6853
   53MOL   H32318107   7.736   0.681   0.169 -0.7815 -0.4397  0.2720
   53MOL   H32418108   7.633   0.865   0.056  1.9048 -3.8177 -0.0145
   53MOL   C32518109   7.632   1.247   0.025 -0.0081  0.1919 -0.1368
   53MOL   C32618110   7.632   1.280   7.952  0.1154  0.5589 -0.2749
   53MOL   C32718111   7.735   1.183   7.892  0.1356 -0.4064  1.1715
   53MOL   C32818112   7.690   1.054   7.847 -0.6989 -0.2360  0.3360
   53MOL   C32918113   7.785   0.971   7.784 -0.1685  0.2071 -0.1376
   53MOL   C33018114   7.917   1.013   7.768  0.1644 -0.1578 -0.5343
   53MOL   C33118115   7.963   1.137   7.815 -0.4749  0.5013 -0.3524
   53MOL   C33218116   7.869   1.224   7.877  0.3450 -0.1005  0.1320
   53MOL   O33318117   7.500   1.259   7.908 -0.0411  0.2803 -0.9050
   53MOL   H33418118   7.729   1.237   0.072 -1.2341 -0.9084  2.2783
   53MOL   H33518119   7.585   1.320   0.091 -0.1205 -0.7344  0.8329
   53MOL   H33618120   7.661   1.384   7.948  1.1175  0.3056  0.2180
   53MOL   H33718121   7.589   1.018   7.856 -0.7401 -1.1234 -3.1284
   53MOL   H33818122   7.755   0.876   7.741 -0.3165  0.8226 -1.4248
   53MOL   H33918123   7.990   0.945   7.725  1.8564 -0.2945  2.4098
   53MOL   H34018124   8.065   1.171   7.807 -0.2506 -0.4494 -1.9282
   53MOL   H34118125   7.901   1.321   7.915  1.4663 -1.6204  3.2546
   53MOL   H34218126   7.468   1.182   7.953 -0.9631  1.4362  0.4801
   54MOL     C118127   7.358   2.502   0.762 -0.2864  0.1659 -0.1374
   54MOL     C218128   7.213   2.484   0.816  0.2401 -0.8123 -0.3129
   54MOL     C318129   7.135   2.368   0.751  0.5224  0.3464  0.0489
   54MOL     C418130   7.008   2.395   0.702  0.6017  0.3771 -0.0483
   54MOL     C518131   6.936   2.283   0.648  0.6222 -0.1546 -0.1301
   54MOL     C618132   6.989   2.152   0.643 -0.2097  0.6603 -0.9077
   54MOL     C718133   7.121   2.134   0.688 -0.3842  1.0171 -0.2919
   54MOL     C818134   7.196   2.241   0.749  0.3676 -0.2122  0.2755
   54MOL     O918135   7.148   2.616   0.797 -0.6169 -0.3587  0.6184
   54MOL    H1018136   7.420   2.416   0.784  0.7694  0.9912  0.1764
   54MOL    H1118137   7.354   2.530   0.656 -0.6165 -1.3606 -0.5452
   54MOL    H1218138   7.225   2.451   0.919 -1.3339 -1.7210 -0.4043
   54MOL    H1318139   6.960   2.492   0.698 -1.2392 -0.4089  2.2856
   54MOL    H1418140   6.834   2.298   0.618  0.0872 -0.8803  1.2888
   54MOL    H1518141   6.936   2.064   0.609 -0.4568  0.7419 -0.7377
   54MOL    H1618142   7.161   2.034   0.675  0.9764  1.8506 -2.7698
   54MOL    H1718143   7.295   2.234   0.790  0.3974  0.2616  0.2854
   54MOL    H1818144   7.396   2.588   0.817  0.0487  0.7050 -1.1772
   54MOL    C1918145   7.043   2.648   0.889 -0.5311  0.7685  0.2793
   54MOL    C2018146   6.971   2.772   0.848  0.2221 -0.0793 -0.1456
   54MOL    C2118147   6.870   2.740   0.742 -0.4193 -0.2900  0.1574
   54MOL    C2218148   6.901   2.749   0.604  0.0999  0.4692 -0.3167
   54MOL    C2318149   6.815   2.704   0.501  0.0338  0.0477  1.0394
   54MOL    C2418150   6.688   2.652   0.540 -0.0877 -0.6262  0.5273
   54MOL    C2518151   6.650   2.647   0.676  0.2570  0.1860  0.4116
   54MOL    C2618152   6.743   2.682   0.781  0.0571 -0.6389  0.2597
   54MOL    O2718153   7.066   2.870   0.796 -0.0547 -0.2095  0.5422
   54MOL    H2818154   6.972   2.568   0.908 -0.6618  0.6941 -0.4903
   54MOL    H2918155   7.107   2.667   0.976 -1.3812  0.4870  0.9639
   54MOL    H3018156   6.899   2.814   0.918 -2.0398 -2.0573 -1.2144
   54MOL    H3118157   6.992   2.801   0.578  1.7407 -0.8157  2.5773
   54MOL    H3218158   6.843   2.723   0.398  2.6797  2.7653  2.2161
   54MOL    H3318159   6.617   2.614   0.468 -1.5813  0.2463  1.5218
   54MOL    H3418160   6.556   2.602   0.705  0.2046  1.0244  1.5609
   54MOL    H3518161   6.708   2.672   0.882 -0.8510 -0.6983 -0.0556
   54MOL    C3618162   7.124   2.943   0.907 -0.0496  0.4432  0.6167
   54MOL    C3718163   7.207   3.049   0.843  0.0912  0.4215  0.4566
   54MOL    C3818164   7.347   3.006   0.780  0.3403 -0.6135 -0.5423
   54MOL    C3918165   7.456   3.092   0.771 -0.0634 -0.1271 -0.5414
   54MOL    C4018166   7.581   3.067   0.710 -0.8817  0.1654  0.2539
   54MOL    C4118167   7.599   2.933   0.671 -0.1898 -0.3731  0.1451
   54MOL    C4218168   7.497   2.833   0.682 -0.3516  0.2204  0.3697
   54MOL    C4318169   7.376   2.869   0.744  0.3014  0.0507  0.0133
   54MOL    O4418170   7.230   3.165   0.928 -0.6212 -0.5399 -0.1224
   54MOL    H4518171   7.039   2.992   0.955 -1.1468  0.8872 -1.6829
   54MOL    H4618172   7.172   2.880   0.981  0.9761  0.4150 -0.0682
   54MOL    H4718173   7.160   3.078   0.750  0.5851 -0.1426  0.0241
   54MOL    H4818174   7.448   3.194   0.805 -1.3354 -0.2920 -0.3140
   54MOL    H4918175   7.654   3.146   0.698 -0.7004 -0.2787 -1.7284
   54MOL    H5018176   7.698   2.906   0.640  0.7026  1.8585  0.9549
   54MOL    H5118177   7.508   2.731   0.650 -1.6881  0.8954 -2.3355
   54MOL    H5218178   7.301   2.792   0.740  0.2667  0.1517 -1.6415
   54MOL    C5318179   7.127   3.265   0.946  0.7262 -0.0200 -0.1704
   54MOL    C5418180   7.074   3.332   0.812  0.0817 -0.9348 -0.3757
   54MOL    C5518181   6.983   3.448   0.836 -0.3221  0.7079 -0.1782
   54MOL    C5618182   7.033   3.565   0.896  0.3499  0.0789 -0.4765
   54MOL    C5718183   6.949   3.670   0.920 -0.1408  0.7760 -0.3313
   54MOL    C5818184   6.809   3.659   0.882 -0.4176 -0.7398 -0.7108
   54MOL    C5918185   6.753   3.544   0.827 -0.3891  0.1256 -0.1676
   54MOL    C6018186   6.845   3.443   0.791 -0.1723 -0.2398  0.4585
   54MOL    O6118187   7.191   3.373   0.753 -0.9350  0.0696 -0.1525
   54MOL    H6218188   7.045   3.224   1.004  1.3045  2.2239  2.3445
   54MOL    H6318189   7.172   3.338   1.014  0.8123 -1.0074  0.8443
   54MOL    H6418190   7.020   3.262   0.748 -2.5311 -0.0069  0.7593
   54MOL    H6518191   7.139   3.569   0.916 -0.1019 -2.4389  2.9035
   54MOL    H6618192   6.989   3.761   0.963  0.0259  0.8464 -0.6289
   54MOL    H6718193   6.745   3.744   0.901  0.4371 -0.0131 -1.0105
   54MOL    H6818194   6.648   3.542   0.803 -0.1409  0.0928 -1.2635
   54MOL    H6918195   6.801   3.359   0.740 -0.9042  1.2623 -1.4073
   54MOL    C7018196   7.170   3.446   0.633 -0.3322  0.3617  0.4207
   54MOL    C7118197   7.296   3.479   0.541 -0.5368 -0.0407 -0.3142
   54MOL    C7218198   7.399   3.575   0.597  0.2616  0.2547  0.0227
   54MOL    C7318199   7.405   3.709   0.547  0.2552  0.2828 -1.0020
   54MOL    C7418200   7.507   3.789   0.597 -0.2830  0.7700  0.1249
   54MOL    C7518201   7.605   3.740   0.681  0.3970  0.9857 -0.6717
   54MOL    C7618202   7.586   3.610   0.743 -0.3873  0.0736 -0.6107
   54MOL    C7718203   7.483   3.530   0.697  0.1302  0.0020  0.0310
   54MOL    O7818204   7.247   3.524   0.414 -0.4699  0.2863 -0.2425
   54MOL    H7918205   7.104   3.390   0.568 -1.5802 -0.0535  2.0015
   54MOL    H8018206   7.115   3.540   0.647  1.4409  1.2459  1.6881
   54MOL    H8118207   7.342   3.383   0.518  2.1347  1.0061  0.5300
   54MOL    H8218208   7.336   3.749   0.475  1.0318 -1.0574 -2.5264
   54MOL    H8318209   7.525   3.887   0.556  2.0815  1.0437  1.7213
   54MOL    H8418210   7.686   3.800   0.719  1.4760 -0.5218 -0.5386
   54MOL    H8518211   7.649   3.574   0.823 -0.0523  2.2307  0.1426
   54MOL    H8618212   7.460   3.434   0.741 -0.0832  0.2938  0.5667
   54MOL    C8718213   7.205   3.422   0.327 -1.1740 -0.4438 -0.4757
   54MOL    C8818214   7.108   3.482   0.217  0.7764  0.2509  0.5761
   54MOL    C8918215   7.045   3.374   0.134 -0.1356  0.3918 -0.1123
   54MOL    C9018216   7.122   3.292   0.051  0.5949 -0.2352 -1.2059
   54MOL    C9118217   7.061   3.199   8.039  0.4119 -0.0014 -0.4925
   54MOL    C9218218   6.924   3.188   8.034  0.5870 -0.2894 -0.4633
   54MOL    C9318219   6.843   3.265   0.043  0.4741  0.4141 -0.3980
   54MOL    C9418220   6.902   3.357   0.129  0.3065  0.2186  1.1376
   54MOL    O9518221   7.188   3.560   0.132 -0.1134 -0.0244 -1.1682
   54MOL    H9618222   7.151   3.340   0.375 -0.9899 -0.8901 -1.0401
   54MOL    H9718223   7.295   3.372   0.292 -0.7413 -1.4016  1.8828
   54MOL    H9818224   7.033   3.549   0.260  1.2962  0.9297  0.4211
   54MOL    H9918225   7.229   3.305   0.048  0.6459 -0.6364 -1.1542
   54MOL   H10018226   7.125   3.154   7.964  0.8145 -0.5943  0.2032
   54MOL   H10118227   6.870   3.122   7.967 -0.5610 -0.4034  0.5623
   54MOL   H10218228   6.737   3.247   0.052 -0.0048  2.6165 -1.4194
   54MOL   H10318229   6.845   3.408   0.205 -0.7190 -1.1247  1.2784
   54MOL   C10418230   7.124   3.646   0.038  0.3453  0.3447 -1.1080
   54MOL   C10518231   7.218   3.747   8.054  0.1762  0.5725  0.4955
   54MOL   C10618232   7.267   3.849   0.076  0.0879  0.0186  0.0184
   54MOL   C10718233   7.365   3.812   0.167 -0.1737 -0.0544 -0.7005
   54MOL   C10818234   7.421   3.901   0.262  0.0872  0.1805  0.2681
   54MOL   C10918235   7.369   4.026   0.267  0.7695  0.0999 -0.5484
   54MOL   C11018236   7.272   4.066   0.178 -0.8538 -0.2952  0.2532
   54MOL   C11118237   7.214   3.982   0.086  0.4561  0.3663  0.1079
   54MOL   O11218238   7.331   3.693   7.988  0.0903 -0.2583  0.0274
   54MOL   H11318239   7.074   3.582   8.045  0.5301 -0.8099 -0.2385
   54MOL   H11418240   7.051   3.698   0.100  0.4965 -0.5054 -0.2049
   54MOL   H11518241   7.157   3.801   7.981 -0.8166  0.1714  1.0280
   54MOL   H11618242   7.402   3.711   0.153 -2.5813 -1.5082  2.5838
   54MOL   H11718243   7.496   3.876   0.335 -1.8609 -1.4452  1.7717
   54MOL   H11818244   7.409   4.097   0.338 -0.4333 -0.1584  0.3917
   54MOL   H11918245   7.233   4.167   0.184 -0.6181 -0.0755 -1.5531
   54MOL   H12018246   7.142   4.027   0.019 -2.1109 -0.1587  2.3995
   54MOL   C12118247   7.307   3.613   7.865  0.3007 -0.1780 -0.5505
   54MOL   C12218248   7.440   3.579   7.797  0.0341  0.0147 -0.9290
   54MOL   C12318249   7.519   3.704   7.754 -0.5899  0.5816 -0.3276
   54MOL   C12418250   7.495   3.772   7.632  0.0495  0.1316 -0.4409
   54MOL   C12518251   7.570   3.889   7.601  0.2828 -0.4594 -0.2710
   54MOL   C12618252   7.675   3.935   7.683 -0.2926  0.3841 -0.6341
   54MOL   C12718253   7.696   3.871   7.804  0.6556  1.2464  0.7664
   54MOL   C12818254   7.617   3.764   7.843  0.4869 -0.3500 -0.1982
   54MOL   O12918255   7.518   3.484   7.872  0.5179 -0.2108  0.0041
   54MOL   H13018256   7.237   3.674   7.808  0.7102  1.4558  0.6567
   54MOL   H13118257   7.254   3.523   7.897  1.9134 -1.0759 -0.3380
   54MOL   H13218258   7.415   3.534   7.701 -2.6685 -0.3767 -0.0613
   54MOL   H13318259   7.418   3.737   7.565  0.7631 -0.2277 -1.0803
   54MOL   H13418260   7.544   3.938   7.508 -0.7820 -0.2842  0.1016
   54MOL   H13518261   7.736   4.020   7.658 -0.1654 -0.4695 -3.3489
   54MOL   H13618262   7.772   3.909   7.871  3.6257 -0.2469 -1.6220
   54MOL   H13718263   7.637   3.727   7.943 -1.5493  2.2105  1.2124
   54MOL   C13818264   7.455   3.389   7.955  0.6262 -0.6710 -0.1247
   54MOL   C13918265   7.551   3.281   8.008 -0.8303 -0.0266 -0.3378
   54MOL   C14018266   7.499   3.209   0.047 -0.1960  0.2112 -0.1421
   54MOL   C14118267   7.557   3.238   0.172  0.6843 -0.8875 -0.1319
   54MOL   C14218268   7.524   3.160   0.286 -0.1684 -0.2279 -0.1037
   54MOL   C14318269   7.427   3.057   0.276 -0.5307 -0.8012 -0.2536
   54MOL   C14418270   7.364   3.034   0.154 -0.5987 -0.3019 -0.1510
   54MOL   C14518271   7.402   3.107   0.038  0.0596 -0.3481  0.6717
   54MOL   O14618272   7.586   3.186   7.912  0.2746 -0.4690  0.8180
   54MOL   H14718273   7.368   3.341   7.909  1.2280 -1.6869 -0.1972
   54MOL   H14818274   7.429   3.447   8.043 -0.0938 -1.9836  0.5421
   54MOL   H14918275   7.637   3.344   8.032  0.4637 -1.7371 -0.4185
   54MOL   H15018276   7.641   3.305   0.170 -0.0057 -0.0091  0.2121
   54MOL   H15118277   7.575   3.172   0.381 -1.7102 -0.5229  0.7707
   54MOL   H15218278   7.411   2.989   0.358 -3.5773 -1.7792 -1.5960
   54MOL   H15318279   7.274   2.976   0.145 -0.5795 -0.2708 -0.5646
   54MOL   H15418280   7.352   3.078   8.026  0.5758  1.4153 -0.1819
   54MOL   C15518281   7.718   3.124   7.932 -0.0816  0.1149  0.1469
   54MOL   C15618282   7.844   3.208   7.889  0.0913 -0.8324  0.5287
   54MOL   C15718283   7.826   3.266   7.749  0.6721 -0.3949  0.3257
   54MOL   C15818284   7.835   3.172   7.640  0.4043 -0.0458 -0.4403
   54MOL   C15918285   7.800   3.220   7.512  0.6933  0.5901  0.8067
   54MOL   C16018286   7.778   3.357   7.483 -0.2731 -0.5396 -0.6984
   54MOL   C16118287   7.758   3.446   7.590  0.4058  0.0085  0.0152
   54MOL   C16218288   7.789   3.405   7.726 -0.3241 -0.1881  0.3886
   54MOL   O16318289   7.869   3.302   7.992 -0.5106 -0.0630 -0.3354
   54MOL   H16418290   7.716   3.030   7.876 -2.4162  0.3623 -0.2293
   54MOL   H16518291   7.719   3.095   8.037 -0.0546  0.1873  0.1672
   54MOL   H16618292   7.932   3.143   7.881  1.8944  1.5693  0.2432
   54MOL   H16718293   7.864   3.069   7.648  0.6048 -0.0728 -1.3668
   54MOL   H16818294   7.803   3.153   7.428 -0.0989  2.0929 -0.4435
   54MOL   H16918295   7.759   3.399   7.385  0.2296 -0.6661 -0.8486
   54MOL   H17018296   7.738   3.551   7.575  0.4805 -0.1635 -1.3565
   54MOL   H17118297   7.776   3.480   7.802  1.2661  0.7554 -0.2578
   54MOL   C17218298   7.927   3.252   0.034  0.3866  1.2245  0.4873
   54MOL   C17318299   7.997   3.362   0.113  0.4740  0.0919 -0.0702
   54MOL   C17418300   7.894   3.457   0.175 -0.2391  0.2044 -0.4797
   54MOL   C17518301   7.813   3.539   0.094 -0.7598  0.2149 -0.6590
   54MOL   C17618302   7.718   3.626   0.150  0.1435 -0.0466  0.5596
   54MOL   C17718303   7.711   3.635   0.292 -0.0361  0.6532 -0.0760
   54MOL   C17818304   7.782   3.552   0.372 -0.0771 -0.3351  0.5252
   54MOL   C17918305   7.879   3.472   0.311 -0.5141  0.1714 -0.2404
   54MOL   O18018306   0.014   3.439   0.053  0.1499 -0.2772  0.5480
   54MOL   H18118307   7.848   3.211   0.096  4.4052 -0.1273  5.0034
   54MOL   H18218308   8.000   3.172   0.023 -2.5780 -1.7420  1.5787
   54MOL   H18318309   8.036   3.312   0.202 -1.6414 -1.7988 -0.1409
   54MOL   H18418310   7.826   3.529   8.067  0.5668 -1.7041 -0.3400
   54MOL   H18518311   7.662   3.693   0.087 -0.3722 -0.3442  0.6997
   54MOL   H18618312   7.646   3.711   0.333 -3.1585 -0.9620 -1.8221
   54MOL   H18718313   7.763   3.549   0.478  0.3456  0.2684  0.6231
   54MOL   H18818314   7.926   3.402   0.379  0.4610  0.2818 -0.7848
   54MOL   C18918315   0.097   3.366   8.050  0.1107  0.5664 -0.1054
   54MOL   C19018316   0.230   3.310   0.043  0.4893 -0.2973  0.5343
   54MOL   C19118317   0.332   3.277   8.017  0.0367 -0.3606  0.5162
   54MOL   C19218318   0.348   3.139   7.979  0.0571  0.6712 -0.2790
   54MOL   C19318319   0.454   3.113   7.890  0.2275  0.3524 -0.2930
   54MOL   C19418320   0.540   3.219   7.844  0.1606  1.2142 -0.8913
   54MOL   C19518321   0.524   3.348   7.884  0.3007  0.0170 -0.2914
   54MOL   C19618322   0.413   3.379   7.961 -0.0342 -1.1257 -0.5060
   54MOL   O19718323   0.185   3.197   0.121  0.5259  0.3205 -0.0801
   54MOL   H19818324   0.056   3.289   7.984 -0.6099  0.1568  0.7968
   54MOL   H19918325   0.139   3.444   7.988  1.1271 -0.4267 -0.6919
   54MOL   H20018326   0.267   3.390   0.107 -0.3533 -0.5619  1.3609
   54MOL   H20118327   0.292   3.056   8.020  0.9069 -0.1770 -0.8209
   54MOL   H20218328   0.484   3.012   7.866  1.7985  0.9164 -0.7810
   54MOL   H20318329   0.631   3.192   7.792  0.3796 -1.4408  0.7924
   54MOL   H20418330   0.598   3.424   7.865  0.5391 -0.3030 -0.6489
   54MOL   H20518331   0.389   3.478   7.998 -0.3260 -1.8771  1.3781
   54MOL   C20618332   0.266   3.169   0.236 -0.3046  0.3943  0.1602
   54MOL   C20718333   0.226   3.038   0.308  0.2085 -0.3594  0.1108
   54MOL   C20818334   0.079   3.002   0.294  0.2939  0.3628  0.5347
   54MOL   C20918335   0.053   2.889   0.216  0.7755 -0.2565  0.2201
   54MOL   C21018336   8.000   2.832   0.215  0.0692 -0.1115 -0.1123
   54MOL   C21118337   7.905   2.893   0.298 -0.2203 -0.4456 -0.1290
   54MOL   C21218338   7.925   3.020   0.364  0.3906 -0.5299  1.0068
   54MOL   C21318339   8.055   3.071   0.368  0.1142 -0.3233  0.0722
   54MOL   O21418340   0.262   3.054   0.442 -0.8127 -0.0462 -0.5549
   54MOL   H21518341   0.374   3.165   0.219 -0.6144  1.5577 -2.1549
   54MOL   H21618342   0.252   3.258   0.297 -1.1915  0.3669 -0.0055
   54MOL   H21718343   0.283   2.958   0.262 -1.0035 -0.4977 -1.1923
   54MOL   H21818344   0.131   2.839   0.161 -1.0009 -1.7885 -1.0014
   54MOL   H21918345   7.974   2.745   0.158 -2.7070  0.5594  0.0655
   54MOL   H22018346   7.808   2.846   0.300  0.5563 -2.0931  1.2559
   54MOL   H22118347   7.845   3.071   0.417  2.0608  2.0744  1.1068
   54MOL   H22218348   0.002   3.161   0.421  0.9234 -0.7780  0.4437
   54MOL   C22318349   0.397   3.022   0.478  0.3839 -0.1623 -0.3879
   54MOL   C22418350   0.419   3.042   0.626  0.7538  0.0415  0.2303
   54MOL   C22518351   0.537   2.955   0.673  0.0433  0.1491  0.6722
   54MOL   C22618352   0.658   3.013   0.723  0.4257 -0.1241 -0.3343
   54MOL   C22718353   0.764   2.933   0.758  0.2376 -0.4785 -0.4221
   54MOL   C22818354   0.756   2.794   0.738  0.0015 -0.0588  0.1711
   54MOL   C22918355   0.645   2.730   0.685 -0.1284 -0.2207 -0.5856
   54MOL   C23018356   0.534   2.813   0.652  0.1381 -0.4165 -0.0398
   54MOL   O23118357   0.450   3.189   0.643  0.2226  0.0834 -0.4661
   54MOL   H23218358   0.404   2.916   0.453 -0.8150 -0.5630  0.9052
   54MOL   H23318359   0.467   3.081   0.419 -0.1951 -0.1272 -1.0483
   54MOL   H23418360   0.334   3.003   0.682  0.5835 -0.0583 -0.0955
   54MOL   H23518361   0.662   3.118   0.745 -3.2020 -0.0997  0.4049
   54MOL   H23618362   0.863   2.955   0.795 -0.0339  1.3754 -0.7724
   54MOL   H23718363   0.846   2.740   0.761  0.2177 -1.2189 -3.2276
   54MOL   H23818364   0.638   2.622   0.672 -1.8405 -0.1672 -0.2925
   54MOL   H23918365   0.439   2.776   0.618 -0.3424  1.1734 -0.4542
   54MOL   C24018366   0.404   3.218   0.771 -0.0806 -0.4139  0.0275
   54MOL   C24118367   0.464   3.350   0.820  0.4974 -0.3998  0.1184
   54MOL   C24218368   0.365   3.429   0.907 -0.4948 -0.3336 -0.0121
   54MOL   C24318369   0.274   3.525   0.850 -0.6972  0.4942  0.5466
   54MOL   C24418370   0.177   3.578   0.936 -0.8018 -0.0083  0.1263
   54MOL   C24518371   0.156   3.542   1.074  0.0623  0.0052  0.7753
   54MOL   C24618372   0.240   3.444   1.126 -0.3411  0.1659  0.0766
   54MOL   C24718373   0.347   3.392   1.046 -0.5181  0.0248  1.4849
   54MOL   O24818374   0.591   3.329   0.879 -0.2596 -0.0925 -0.2179
   54MOL   H24918375   0.296   3.227   0.773  0.0920  1.8616  1.0411
   54MOL   H25018376   0.428   3.143   0.847 -0.8220  0.3756  1.0609
   54MOL   H25118377   0.482   3.406   0.728  2.0803  0.1028  0.7171
   54MOL   H25218378   0.273   3.542   0.744 -0.7640 -0.3054  0.4115
   54MOL   H25318379   0.096   3.636   0.893 -1.3731 -0.1731  0.9923
   54MOL   H25418380   0.068   3.576   1.127 -2.1264 -1.4377 -1.8555
   54MOL   H25518381   0.229   3.396   1.222  0.9453  0.0789  0.1836
   54MOL   H25618382   0.417   3.324   1.093  0.9623 -1.6139 -2.8541
   54MOL   C25718383   0.662   3.443   0.909  0.0212 -0.3893  0.1317
   54MOL   C25818384   0.784   3.421   1.005  0.3046 -0.2198 -0.1799
   54MOL   C25918385   0.829   3.552   1.074  0.4840  0.6712  0.1018
   54MOL   C26018386   0.806   3.577   1.210 -0.0019 -0.2196 -0.3235
   54MOL   C26118387   0.858   3.692   1.276  0.7048  0.1263  0.3833
   54MOL   C26218388   0.918   3.791   1.198  0.4934  0.2268 -0.0026
   54MOL   C26318389   0.936   3.772   1.061 -0.2054 -0.2873 -0.2831
   54MOL   C26418390   0.892   3.654   0.998  0.0406  0.3645  0.7505
   54MOL   O26518391   0.899   3.377   0.932  0.5353  0.4610  0.2948
   54MOL   H26618392   0.590   3.515   0.948  1.2258  0.1795  1.3455
   54MOL   H26718393   0.704   3.487   0.818 -0.0240 -1.9977 -0.6808
   54MOL   H26818394   0.763   3.352   1.086  1.1645  3.8321  3.6535
   54MOL   H26918395   0.769   3.491   1.263  1.6221 -0.0719  1.1049
   54MOL   H27018396   0.848   3.695   1.383  1.5741 -0.7351  0.4979
   54MOL   H27118397   0.962   3.871   1.256  2.4415 -1.1545  0.4510
   54MOL   H27218398   0.976   3.856   1.007 -2.3345  0.2949 -1.0307
   54MOL   H27318399   0.887   3.651   0.890 -1.3872  4.4653  0.6319
   54MOL   C27418400   0.913   3.242   0.909  0.1637  0.2507  0.2177
   54MOL   C27518401   1.014   3.228   0.790 -0.1449  0.1170 -0.6735
   54MOL   C27618402   0.967   3.321   0.683  0.3964  0.2738 -0.2237
   54MOL   C27718403   0.888   3.264   0.580  0.0052  0.1137  0.2176
   54MOL   C27818404   0.819   3.347   0.489  0.2585 -0.2289  0.0030
   54MOL   C27918405   0.849   3.485   0.488  0.0355  0.0405 -0.4547
   54MOL   C28018406   0.929   3.538   0.586 -0.5917  0.5845 -0.5085
   54MOL   C28118407   0.992   3.463   0.679  0.3442  0.4878  0.0180
   54MOL   O28218408   1.029   3.090   0.745 -0.0696 -0.0855  0.0498
   54MOL   H28318409   0.938   3.186   1.000  1.1287  2.1533  1.1524
   54MOL   H28418410   0.818   3.198   0.881  1.2823 -1.3487 -1.1748
   54MOL   H28518411   1.111   3.260   0.829  0.6866 -1.1173 -1.6843
   54MOL   H28618412   0.867   3.159   0.591  1.6450 -0.0725  1.8214
   54MOL   H28718413   0.742   3.312   0.421  1.8072 -0.5060 -1.6404
   54MOL   H28818414   0.803   3.544   0.410  1.2531  2.7665  0.8370
   54MOL   H28918415   0.956   3.642   0.574 -2.9198  1.1320 -1.3375
   54MOL   H29018416   1.062   3.499   0.752  0.7267 -1.1465  0.4743
   54MOL   C29118417   1.158   3.055   0.685 -0.1875 -0.2656  0.5257
   54MOL   C29218418   1.151   2.927   0.602  0.3311 -0.2004  0.0777
   54MOL   C29318419   1.135   2.950   0.457  0.2625  0.2958  0.1940
   54MOL   C29418420   1.012   2.990   0.402 -0.2860  0.1059  0.2707
   54MOL   C29518421   1.000   3.030   0.262  0.5312  0.9077  0.1238
   54MOL   C29618422   1.113   3.035   0.178  0.8271  0.4494  0.1088
   54MOL   C29718423   1.232   3.002   0.236 -0.3450 -1.3048  0.0587
   54MOL   C29818424   1.247   2.960   0.372 -0.1964  0.1173  0.2398
   54MOL   O29918425   1.261   2.850   0.655  0.5026  0.6594 -0.1449
   54MOL   H30018426   1.237   3.051   0.760  0.6401 -0.7238 -0.3569
   54MOL   H30118427   1.191   3.136   0.619  0.8261 -0.8383  0.3124
   54MOL   H30218428   1.062   2.874   0.637 -0.0877  0.6564  0.3086
   54MOL   H30318429   0.926   2.999   0.466 -1.5373 -0.8549 -1.2164
   54MOL   H30418430   0.905   3.051   0.216  0.4311  0.0572 -0.0802
   54MOL   H30518431   1.111   3.086   0.083 -1.7014  0.7959  0.3058
   54MOL   H30618432   1.317   3.003   0.169 -1.1081 -1.4993 -0.9234
   54MOL   H30718433   1.341   2.949   0.423 -0.9897 -0.6703  1.5898
   54MOL   C30818434   1.260   2.707   0.619  0.2548  0.7753  0.5306
   54MOL   C30918435   1.388   2.628   0.650  0.3071 -0.8486 -1.1142
   54MOL   C31018436   1.511   2.682   0.578  0.4702 -0.4127 -1.1435
   54MOL   C31118437   1.550   2.632   0.449  0.1302 -0.2395  0.4158
   54MOL   C31218438   1.662   2.692   0.380 -0.1456  0.5634  0.3870
   54MOL   C31318439   1.736   2.788   0.447 -0.2684 -0.0019  0.3426
   54MOL   C31418440   1.705   2.831   0.576  0.0839  0.2667 -0.8549
   54MOL   C31518441   1.585   2.787   0.638 -0.0384  0.3535 -0.0646
   54MOL   O31618442   1.411   2.624   0.787  0.0033 -0.8567 -0.0378
   54MOL   H31718443   1.251   2.699   0.511  0.0010  4.9901  0.1575
   54MOL   H31818444   1.180   2.661   0.676  0.5528 -1.0919 -0.5034
   54MOL   H31918445   1.378   2.526   0.614  1.4917 -2.2951  2.4423
   54MOL   H32018446   1.478   2.570   0.398 -0.8718  1.8066 -0.7415
   54MOL   H32118447   1.683   2.673   0.276  0.4272  3.3847 -0.0465
   54MOL   H32218448   1.821   2.835   0.400 -0.1122 -2.1721 -1.6113
   54MOL   H32318449   1.775   2.899   0.622 -1.0079 -0.7153  2.4662
   54MOL   H32418450   1.555   2.836   0.729  0.8359  1.6509 -0.4505
   54MOL   C32518451   1.469   2.506   0.844 -0.3445 -0.4502  0.2141
   54MOL   C32618452   1.389   2.371   0.819  0.3333 -0.0498  0.0315
   54MOL   C32718453   1.232   2.371   0.827 -0.4879 -0.7966 -0.3330
   54MOL   C32818454   1.151   2.328   0.723 -0.6560 -0.6882  0.0300
   54MOL   C32918455   1.011   2.306   0.740  0.4292 -0.2530 -0.1322
   54MOL   C33018456   0.943   2.348   0.858  0.0433  1.0763  1.0932
   54MOL   C33118457   1.023   2.408   0.957 -0.3069 -0.1161  0.4849
   54MOL   C33218458   1.168   2.427   0.941  0.6430  0.0377 -0.3942
   54MOL   O33318459   1.443   2.305   0.711  0.0753  0.2931  0.6155
   54MOL   H33418460   1.470   2.520   0.952  2.1495  2.1633 -0.0874
   54MOL   H33518461   1.574   2.495   0.817  0.8379  0.9382  3.9325
   54MOL   H33618462   1.421   2.304   0.898  1.4357 -1.7142 -1.7706
   54MOL   H33718463   1.194   2.288   0.633  1.7782 -0.1691  0.9206
   54MOL   H33818464   0.962   2.255   0.658 -0.6087  0.6784 -0.1025
   54MOL   H33918465   0.840   2.330   0.885  0.3150 -1.7431  0.3663
   54MOL   H34018466   0.976   2.445   1.047 -0.9841  2.2235 -0.7932
   54MOL   H34118467   1.215   2.486   1.018 -3.3831  0.8658  1.5901
   54MOL   H34218468   1.458   2.214   0.733 -1.1972 -0.0270  0.2133
   55MOL     C118469   8.016   3.369   7.178  0.3190 -0.7677  0.3577
   55MOL     C218470   7.930   3.417   7.062  0.3302  0.3966 -0.0530
   55MOL     C318471   7.796   3.468   7.114 -0.5789  0.6465 -0.4741
   55MOL     C418472   7.686   3.379   7.124 -0.1628  0.0467 -0.8847
   55MOL     C518473   7.575   3.421   7.203  0.8496 -0.8280  1.7090
   55MOL     C618474   7.570   3.550   7.257  0.3088  0.9599 -0.1359
   55MOL     C718475   7.680   3.637   7.238  0.6467 -0.1766  0.2682
   55MOL     C818476   7.793   3.593   7.171 -0.3924 -0.5419 -0.0306
   55MOL     O918477   7.910   3.317   6.957  0.2005 -0.2896  0.1511
   55MOL    H1018478   7.970   3.295   7.243  0.8263  0.9881  2.7908
   55MOL    H1118479   0.029   3.322   7.147  1.2833  0.4930  1.2710
   55MOL    H1218480   7.985   3.499   7.016  2.7886 -1.9360 -1.4606
   55MOL    H1318481   7.686   3.276   7.092  0.5366 -0.7650  1.5864
   55MOL    H1418482   7.484   3.364   7.213  0.2794  0.0820  1.7769
   55MOL    H1518483   7.487   3.590   7.312 -1.7565 -0.2111 -2.3006
   55MOL    H1618484   7.665   3.730   7.291 -1.1371  0.3346 -1.0800
   55MOL    H1718485   7.873   3.664   7.154 -1.2876  0.9563  1.8727
   55MOL    H1818486   8.045   3.450   7.246 -1.0278  0.7109 -0.7704
   55MOL    C1918487   7.881   3.368   6.833 -0.0050 -0.6418  0.5299
   55MOL    C2018488   8.010   3.396   6.755 -0.5568  0.7239 -0.3521
   55MOL    C2118489   7.978   3.495   6.640  0.5130  0.1525  0.5360
   55MOL    C2218490   8.003   3.636   6.646  0.5383  0.0371  0.2713
   55MOL    C2318491   7.961   3.719   6.542 -0.1897 -0.4187  0.1891
   55MOL    C2418492   7.888   3.668   6.429 -0.4496 -0.6116 -0.0734
   55MOL    C2518493   7.859   3.532   6.423  0.2722  1.0827 -0.9306
   55MOL    C2618494   7.901   3.445   6.525 -0.2073  0.7214  0.2063
   55MOL    O2718495   8.062   3.279   6.706  0.0069  0.1258 -0.4881
   55MOL    H2818496   7.822   3.286   6.791 -0.9928 -0.7092  2.0316
   55MOL    H2918497   7.820   3.458   6.836  2.8058  1.3646 -0.6518
   55MOL    H3018498   0.002   3.452   6.815  1.9015  0.9885 -3.4530
   55MOL    H3118499   8.063   3.681   6.723  1.8818 -0.8647 -0.2279
   55MOL    H3218500   7.977   3.826   6.539 -3.2801  0.0516 -0.5740
   55MOL    H3318501   7.856   3.732   6.348  0.1133  1.7363  1.5153
   55MOL    H3418502   7.803   3.487   6.342 -1.3108 -0.1669  0.8340
   55MOL    H3518503   7.876   3.340   6.524 -0.3366  0.7595 -1.3100
   55MOL    C3618504   0.058   3.192   6.793  0.4298  0.7559  1.0703
   55MOL    C3718505   0.172   3.135   6.712  1.4597 -0.9663 -0.5129
   55MOL    C3818506   0.260   3.046   6.800  0.2968  0.0290  0.0994
   55MOL    C3918507   0.394   3.083   6.832  0.2017 -0.3521 -0.6411
   55MOL    C4018508   0.466   3.009   6.924  0.6949  0.3155 -0.1436
   55MOL    C4118509   0.418   2.886   6.978  0.2122  0.1239  0.5871
   55MOL    C4218510   0.286   2.849   6.932  0.5097 -0.3359  0.3408
   55MOL    C4318511   0.210   2.928   6.847  0.6220  0.2868  0.5735
   55MOL    O4418512   0.249   3.248   6.665 -0.0503  1.5000 -0.2610
   55MOL    H4518513   0.098   3.254   6.874 -0.7992  1.8021  0.8791
   55MOL    H4618514   8.079   3.115   6.842  0.5886  0.1880  0.3774
   55MOL    H4718515   0.129   3.082   6.627  1.3614  0.8728 -1.6321
   55MOL    H4818516   0.438   3.177   6.802  2.5190 -1.4509 -0.7922
   55MOL    H4918517   0.564   3.047   6.948 -1.4681  4.2469  3.1986
   55MOL    H5018518   0.478   2.821   7.040 -0.0893  0.8370  1.6607
   55MOL    H5118519   0.247   2.754   6.966  1.8153 -1.2403 -0.6288
   55MOL    H5218520   0.120   2.894   6.799  1.0829  0.8347 -0.7206
   55MOL    C5318521   0.248   3.274   6.524  0.9127  0.2315  0.3293
   55MOL    C5418522   0.269   3.429   6.496 -0.6860 -0.2631 -0.0464
   55MOL    C5518523   0.395   3.485   6.567 -0.0208 -0.5286 -0.2852
   55MOL    C5618524   0.522   3.451   6.514 -0.1486 -0.1787 -1.1605
   55MOL    C5718525   0.640   3.480   6.585  0.4053 -0.7283 -0.2945
   55MOL    C5818526   0.635   3.566   6.698  0.2952 -0.1916  0.0454
   55MOL    C5918527   0.506   3.600   6.755 -0.7984 -0.2366 -0.1927
   55MOL    C6018528   0.389   3.549   6.693 -0.4249  0.6796  0.2499
   55MOL    O6118529   0.270   3.452   6.354 -0.0265  0.0477 -0.1090
   55MOL    H6218530   0.325   3.223   6.467  0.6932 -0.1392  0.3627
   55MOL    H6318531   0.149   3.256   6.483  0.3053  0.5816  1.6152
   55MOL    H6418532   0.187   3.483   6.544 -1.1214  0.1203 -1.1998
   55MOL    H6518533   0.536   3.386   6.429  1.3002 -3.2511  1.2856
   55MOL    H6618534   0.738   3.448   6.555  0.3599 -2.3766  1.2093
   55MOL    H6718535   0.717   3.598   6.761  0.0565  3.2124 -1.2445
   55MOL    H6818536   0.488   3.653   6.847 -0.7774 -1.0677  0.2992
   55MOL    H6918537   0.290   3.564   6.734 -0.5448 -1.0241  0.6048
   55MOL    C7018538   0.156   3.431   6.280  0.5774  0.1374 -0.0189
   55MOL    C7118539   0.165   3.502   6.145 -0.5851  0.2877 -0.0304
   55MOL    C7218540   0.027   3.509   6.075  0.0146  0.9188  0.2541
   55MOL    C7318541   8.026   3.390   6.051 -0.3291 -0.7388  0.4315
   55MOL    C7418542   7.889   3.402   6.024  0.3176 -0.3148 -0.8110
   55MOL    C7518543   7.831   3.526   6.008 -0.3437 -0.5753 -0.5494
   55MOL    C7618544   7.908   3.641   6.019  0.2951  0.0637  0.7008
   55MOL    C7718545   8.042   3.636   6.053  0.0048 -0.6522  0.0553
   55MOL    O7818546   0.256   3.433   6.062  0.1628 -0.0739 -0.3150
   55MOL    H7918547   0.144   3.324   6.267  1.2049  0.0398  0.2308
   55MOL    H8018548   0.062   3.457   6.328  0.7454 -1.3959  1.1735
   55MOL    H8118549   0.190   3.608   6.151 -0.8625  0.3807 -0.4337
   55MOL    H8218550   8.071   3.293   6.067  0.5103 -0.2769  0.8984
   55MOL    H8318551   7.831   3.321   5.983 -2.3654  1.5578 -0.8454
   55MOL    H8418552   7.727   3.523   5.979 -0.0772 -2.8195 -1.4271
   55MOL    H8518553   7.858   3.737   6.013  0.5214  0.1813  0.7107
   55MOL    H8618554   0.019   3.727   6.067 -2.6328  1.2546 -1.3378
   55MOL    C8718555   0.386   3.485   6.060 -0.7651 -0.4378 -0.2688
   55MOL    C8818556   0.458   3.476   5.921 -0.1581  0.0785 -0.7283
   55MOL    C8918557   0.612   3.505   5.921 -0.2736 -0.1204 -0.6028
   55MOL    C9018558   0.645   3.642   5.891 -0.1526 -1.0606 -0.8066
   55MOL    C9118559   0.777   3.681   5.899 -0.6169  0.1983  0.2459
   55MOL    C9218560   0.876   3.585   5.917 -0.0482  0.1183  0.4024
   55MOL    C9318561   0.845   3.449   5.937  0.3925 -0.5893 -0.4189
   55MOL    C9418562   0.709   3.407   5.944 -0.3295  0.3980  0.0444
   55MOL    O9518563   0.385   3.571   5.832 -0.0874 -0.2757 -0.2736
   55MOL    H9618564   0.441   3.425   6.133 -1.0064  0.6098  0.7926
   55MOL    H9718565   0.392   3.592   6.078  0.6694 -0.7484  1.2057
   55MOL    H9818566   0.441   3.377   5.879  1.9404 -1.2778  1.4453
   55MOL    H9918567   0.567   3.717   5.890  0.5801 -0.1536  2.9982
   55MOL   H10018568   0.801   3.786   5.889 -1.7704  0.7828  3.1089
   55MOL   H10118569   0.977   3.618   5.896 -0.5518  1.2459 -0.3023
   55MOL   H10218570   0.926   3.382   5.959  0.5641 -0.1326  0.3611
   55MOL   H10318571   0.681   3.303   5.946 -0.3973  0.3958 -0.6470
   55MOL   C10418572   0.400   3.541   5.695  0.2738  0.0105 -0.2718
   55MOL   C10518573   0.283   3.466   5.641  0.4283 -0.0247 -0.7176
   55MOL   C10618574   0.160   3.548   5.609  0.1425 -0.2893  0.9233
   55MOL   C10718575   0.150   3.615   5.483 -0.1629 -0.1616 -0.6892
   55MOL   C10818576   0.034   3.683   5.449  0.4554  1.1340 -0.1016
   55MOL   C10918577   8.001   3.695   5.533  0.2664 -0.1352 -0.6644
   55MOL   C11018578   8.014   3.640   5.662  0.5589  0.3600  0.8471
   55MOL   C11118579   0.049   3.563   5.703  0.0538 -0.0699  0.6796
   55MOL   O11218580   0.319   3.382   5.528 -0.4272  0.2731 -0.1572
   55MOL   H11318581   0.398   3.631   5.634 -0.7613 -0.4592 -0.9464
   55MOL   H11418582   0.495   3.489   5.679 -0.2476 -1.2583  0.7045
   55MOL   H11518583   0.250   3.406   5.726  1.0417 -1.5164 -1.5056
   55MOL   H11618584   0.224   3.602   5.405 -1.7097 -2.0672 -1.9031
   55MOL   H11718585   0.030   3.731   5.353 -1.4804  1.2694  0.0261
   55MOL   H11818586   7.917   3.753   5.496  1.6269  2.8835  0.7738
   55MOL   H11918587   7.927   3.656   5.724 -1.3300  1.9603 -2.0655
   55MOL   H12018588   0.044   3.517   5.801 -1.2530  0.9142  1.0926
   55MOL   C12118589   0.215   3.308   5.474 -0.4178 -0.1626 -0.5068
   55MOL   C12218590   0.266   3.229   5.352  0.0481 -0.2955  0.4857
   55MOL   C12318591   0.169   3.122   5.312  0.3441 -0.4971 -0.8303
   55MOL   C12418592   0.207   2.986   5.310  0.1651  0.7126  0.8483
   55MOL   C12518593   0.115   2.879   5.276  0.0641  0.6110  0.6311
   55MOL   C12618594   8.059   2.916   5.245  0.7885 -0.1341  0.3591
   55MOL   C12718595   8.022   3.053   5.238 -0.1478  0.0379  0.3538
   55MOL   C12818596   0.040   3.152   5.266 -0.0456 -0.3965 -0.3167
   55MOL   O12918597   0.289   3.310   5.242  0.4283 -0.3029  0.4526
   55MOL   H13018598   0.131   3.368   5.438 -0.3292  0.6425  0.6051
   55MOL   H13118599   0.179   3.255   5.562 -0.9174 -0.5127 -0.9230
   55MOL   H13218600   0.354   3.176   5.388 -0.5380 -0.6648  1.3869
   55MOL   H13318601   0.310   2.971   5.342  0.1942  1.1806  0.9704
   55MOL   H13418602   0.141   2.776   5.291 -1.1443  0.3283  0.8528
   55MOL   H13518603   7.983   2.847   5.213  1.2689 -0.2634 -0.5276
   55MOL   H13618604   7.929   3.086   5.194 -1.3395 -4.2403 -0.6600
   55MOL   H13718605   0.001   3.252   5.259  1.5692  0.2018 -0.8241
   55MOL   C13818606   0.402   3.402   5.250 -0.2339 -0.6691  0.5891
   55MOL   C13918607   0.439   3.457   5.112 -1.0319  0.1615 -0.2681
   55MOL   C14018608   0.341   3.572   5.078  0.3151 -0.6017 -0.7917
   55MOL   C14118609   0.394   3.705   5.064 -0.0862 -0.4108  0.1318
   55MOL   C14218610   0.316   3.814   5.033 -0.5159  0.1179  0.6772
   55MOL   C14318611   0.174   3.805   5.026  0.1577  0.6425  0.6146
   55MOL   C14418612   0.119   3.677   5.046  0.4575 -0.0129  0.0626
   55MOL   C14518613   0.204   3.566   5.068 -0.3221  0.2757 -0.3139
   55MOL   O14618614   0.582   3.490   5.121 -0.7372  0.2500 -0.1085
   55MOL   H14718615   0.494   3.352   5.282  0.7073 -1.6464 -3.2926
   55MOL   H14818616   0.379   3.482   5.320  1.7512  0.4343  0.0161
   55MOL   H14918617   0.417   3.379   5.040 -1.7578 -1.5968  1.8111
   55MOL   H15018618   0.500   3.714   5.081 -0.5575 -0.5663  3.5605
   55MOL   H15118619   0.365   3.910   5.021 -1.6920  0.3225 -3.0425
   55MOL   H15218620   0.106   3.888   5.014 -1.1014 -0.0924  2.4451
   55MOL   H15318621   0.011   3.673   5.046  0.4111  1.0160  0.4101
   55MOL   H15418622   0.148   3.476   5.090  2.5927 -1.9206 -1.5723
   55MOL   C15518623   0.647   3.478   4.990 -0.0943 -0.0418  0.6009
   55MOL   C15618624   0.734   3.349   4.969 -0.5723 -0.0580  0.1769
   55MOL   C15718625   0.661   3.218   5.005  0.1551 -0.6599  0.0106
   55MOL   C15818626   0.654   3.178   5.136  0.1689 -0.1786  0.0490
   55MOL   C15918627   0.594   3.053   5.166  0.0338 -0.2828 -0.3987
   55MOL   C16018628   0.530   2.974   5.064  0.3824 -0.2516 -1.8512
   55MOL   C16118629   0.539   3.022   4.931 -0.3001 -0.4828 -0.5710
   55MOL   C16218630   0.601   3.145   4.897 -0.0783 -0.0591  0.1163
   55MOL   O16318631   0.785   3.344   4.834  0.2904 -0.1035  0.2338
   55MOL   H16418632   0.721   3.557   4.982  0.2775 -0.5604 -1.2886
   55MOL   H16518633   0.572   3.488   4.911  0.3422 -0.7343  0.0929
   55MOL   H16618634   0.809   3.348   5.048  1.8750  1.4888 -2.0428
   55MOL   H16718635   0.696   3.238   5.214  0.1059  0.6725 -0.5665
   55MOL   H16818636   0.598   3.013   5.266 -0.5810  0.5637 -0.0322
   55MOL   H16918637   0.493   2.879   5.101  0.1572  0.5794  0.1065
   55MOL   H17018638   0.488   2.967   4.854 -0.2203 -1.3371 -0.0191
   55MOL   H17118639   0.605   3.170   4.792  0.7267  1.3358  0.4585
   55MOL   C17218640   0.902   3.264   4.811  0.5926  0.1884 -1.3294
   55MOL   C17318641   0.932   3.287   4.669  0.0933 -0.5170  0.0761
   55MOL   C17418642   1.050   3.205   4.623 -0.6049  0.7010  0.2476
   55MOL   C17518643   1.032   3.101   4.522 -0.4292  0.5479  0.4934
   55MOL   C17618644   1.143   3.030   4.474  0.3729  0.6250  0.1814
   55MOL   C17718645   1.273   3.062   4.512 -0.1939 -0.2701  0.4201
   55MOL   C17818646   1.289   3.159   4.612  0.2538  0.0033  0.1762
   55MOL   C17918647   1.180   3.228   4.669 -1.5687 -0.1609 -0.2484
   55MOL   O18018648   0.946   3.420   4.630 -0.2308 -0.4548 -0.0516
   55MOL   H18118649   0.987   3.305   4.867  1.6137  1.2930 -3.6056
   55MOL   H18218650   0.888   3.158   4.830 -2.6305  0.9013  0.6647
   55MOL   H18318651   0.845   3.241   4.622 -0.1798 -0.2040  0.2819
   55MOL   H18418652   0.933   3.076   4.488 -0.8521  1.3768  1.1127
   55MOL   H18518653   1.135   2.947   4.405  2.2784  0.7051 -0.1538
   55MOL   H18618654   1.363   3.010   4.484  0.3492  0.9936 -0.2353
   55MOL   H18718655   1.386   3.182   4.655  0.8196  0.5874 -1.3567
   55MOL   H18818656   1.189   3.296   4.753 -0.0553 -1.1084  0.3790
   55MOL   C18918657   0.920   3.434   4.493 -0.5515 -0.3694 -0.4963
   55MOL   C19018658   0.891   3.582   4.455 -0.2402  0.1235 -0.1879
   55MOL   C19118659   0.753   3.629   4.510  0.0487  0.2826  0.2979
   55MOL   C19218660   0.638   3.630   4.423 -0.7250  0.6748  0.3911
   55MOL   C19318661   0.511   3.655   4.480 -1.0230 -0.1439 -0.0899
   55MOL   C19418662   0.496   3.667   4.621  0.1988 -0.2646 -0.1228
   55MOL   C19518663   0.603   3.655   4.707 -0.2947 -0.1146 -0.0661
   55MOL   C19618664   0.727   3.639   4.644 -0.1638  0.7990  0.9118
   55MOL   O19718665   0.908   3.593   4.316 -0.1673 -0.2441  0.3223
   55MOL   H19818666   1.001   3.395   4.432 -0.7821  1.3316 -1.9247
   55MOL   H19918667   0.836   3.369   4.466 -0.1958  0.1937 -3.1261
   55MOL   H20018668   0.971   3.641   4.500  1.0471 -0.2586 -1.9012
   55MOL   H20118669   0.661   3.605   4.321 -0.3778  0.0976  0.6121
   55MOL   H20218670   0.435   3.660   4.404  0.4929 -0.6045 -1.6724
   55MOL   H20318671   0.400   3.701   4.657  1.0827 -1.4652  3.6170
   55MOL   H20418672   0.595   3.673   4.814 -0.7963  1.8577 -0.4218
   55MOL   H20518673   0.819   3.638   4.701  1.1793  0.6168 -1.2150
   55MOL   C20618674   0.935   3.722   4.265 -0.5328 -0.2436 -0.2203
   55MOL   C20718675   0.978   3.707   4.121  0.7227 -0.4437  0.3588
   55MOL   C20818676   1.034   3.837   4.073 -0.1869 -0.6999 -1.1746
   55MOL   C20918677   1.169   3.872   4.101 -0.3684  0.2892  0.2306
   55MOL   C21018678   1.222   3.984   4.039 -0.0589 -0.3146 -0.1002
   55MOL   C21118679   1.143   4.065   3.952  0.5809 -0.8721 -0.3168
   55MOL   C21218680   1.010   4.032   3.921  0.5784  0.9726 -1.0717
   55MOL   C21318681   0.961   3.914   3.983  0.3159  0.4984 -0.0631
   55MOL   O21418682   0.870   3.649   4.045 -0.5165 -0.1241 -0.1937
   55MOL   H21518683   0.845   3.783   4.272 -0.5561 -0.3034  0.0221
   55MOL   H21618684   1.015   3.761   4.329 -1.3622  2.2466 -0.6482
   55MOL   H21718685   1.053   3.627   4.119 -0.6526 -1.7838  0.9905
   55MOL   H21818686   1.227   3.802   4.159 -0.0670 -0.6259 -1.1587
   55MOL   H21918687   1.327   4.007   4.050  0.1741 -1.6939  0.6554
   55MOL   H22018688   1.197   4.143   3.901  0.1378 -0.6396 -0.4318
   55MOL   H22118689   0.946   4.092   3.859 -0.6667  0.1746 -0.5780
   55MOL   H22218690   0.863   3.879   3.955  0.6292 -1.0091  0.6550
   55MOL   C22318691   0.922   3.550   3.958 -0.7793 -0.5223  0.5734
   55MOL   C22418692   0.834   3.523   3.829  0.0664  0.5050  0.3079
   55MOL   C22518693   0.815   3.659   3.762  0.0777  0.1854  0.0026
   55MOL   C22618694   0.908   3.705   3.664 -0.3770  0.6204 -0.3283
   55MOL   C22718695   0.889   3.824   3.591 -0.3280  0.3665 -0.9514
   55MOL   C22818696   0.787   3.911   3.635  0.7164 -0.4720 -0.1146
   55MOL   C22918697   0.705   3.873   3.743  0.0546  0.0530 -0.0185
   55MOL   C23018698   0.714   3.750   3.805  0.6024  0.0360 -0.5091
   55MOL   O23118699   0.896   3.434   3.738  0.3015  0.0109 -0.4246
   55MOL   H23218700   1.011   3.591   3.910 -1.3730  1.0672  0.8020
   55MOL   H23318701   0.945   3.461   4.017  0.6291 -0.3817  0.2639
   55MOL   H23418702   0.737   3.488   3.865  0.4990  0.9739  1.9882
   55MOL   H23518703   0.985   3.635   3.635  0.8600  0.7042  2.5102
   55MOL   H23618704   0.957   3.854   3.513 -0.2939  1.2303 -0.5994
   55MOL   H23718705   0.774   4.003   3.579 -2.6288 -1.4435 -1.0610
   55MOL   H23818706   0.623   3.938   3.772 -0.9673 -0.7648 -1.0225
   55MOL   H23918707   0.632   3.723   3.870 -1.2467  2.5080 -1.7856
   55MOL   C24018708   0.861   3.299   3.751 -0.0886  0.3723 -0.4268
   55MOL   C24118709   0.980   3.206   3.762  0.0827 -0.5286 -0.3775
   55MOL   C24218710   1.046   3.223   3.903 -0.1191  0.4887 -0.8005
   55MOL   C24318711   1.165   3.293   3.923  0.5102  0.5491 -0.6125
   55MOL   C24418712   1.220   3.302   4.052 -0.8150 -0.5709 -0.4321
   55MOL   C24518713   1.154   3.248   4.165 -0.3536  0.2185 -0.4130
   55MOL   C24618714   1.036   3.171   4.143 -0.4344  0.0392  0.5855
   55MOL   C24718715   0.979   3.163   4.012 -0.4721 -0.7300  0.0579
   55MOL   O24818716   0.960   3.067   3.743 -0.0368  0.0202 -0.3571
   55MOL   H24918717   0.803   3.291   3.843  0.0697 -2.1170 -0.4912
   55MOL   H25018718   0.791   3.262   3.676  0.7243  0.0193 -1.0106
   55MOL   H25118719   1.052   3.232   3.685 -0.8710 -1.0774 -1.4782
   55MOL   H25218720   1.213   3.337   3.837 -0.6762 -1.9733 -2.6422
   55MOL   H25318721   1.309   3.362   4.068 -0.5727 -1.2351  0.8526
   55MOL   H25418722   1.196   3.253   4.264  1.5243  1.1189 -1.2445
   55MOL   H25518723   0.987   3.138   4.233  0.0243  1.7912  1.5045
   55MOL   H25618724   0.889   3.107   3.991  0.7742 -2.9888  0.5052
   55MOL   C25718725   0.923   3.021   3.613  0.8119  0.6859  0.9889
   55MOL   C25818726   0.787   2.947   3.622  0.2407  0.2733  0.8993
   55MOL   C25918727   0.745   2.897   3.479 -0.1917  0.0676 -0.1088
   55MOL   C26018728   0.619   2.935   3.428  0.3979 -0.0325  0.0053
   55MOL   C26118729   0.575   2.880   3.306  0.6778  1.5796 -0.2419
   55MOL   C26218730   0.660   2.790   3.244 -0.0799 -0.0136  0.8514
   55MOL   C26318731   0.783   2.756   3.296  0.5314  0.2833  0.0741
   55MOL   C26418732   0.818   2.794   3.426 -0.0243 -0.0406  0.0810
   55MOL   O26518733   0.697   3.040   3.676  0.5164  0.0473 -0.3907
   55MOL   H26618734   1.000   2.959   3.567  0.8428  1.3239  0.1607
   55MOL   H26718735   0.913   3.100   3.538 -1.2922  0.7316  1.2764
   55MOL   H26818736   0.790   2.864   3.692  0.4854 -0.8781 -0.4494
   55MOL   H26918737   0.559   3.012   3.474 -0.7346 -1.7195  1.4496
   55MOL   H27018738   0.482   2.916   3.265  0.8041  1.9786 -0.1746
   55MOL   H27118739   0.645   2.767   3.139 -0.3212 -3.8664  1.6797
   55MOL   H27218740   0.851   2.683   3.254  1.3363  0.4463  1.0940
   55MOL   H27318741   0.912   2.765   3.471  0.5520 -1.6891 -2.0885
   55MOL   C27418742   0.589   2.993   3.760 -0.3425  0.1802  0.1468
   55MOL   C27518743   0.480   3.100   3.794 -0.1832  0.2770  0.1135
   55MOL   C27618744   0.397   3.075   3.920 -0.0046 -0.0150 -0.2402
   55MOL   C27718745   0.432   3.150   4.035 -0.9627  0.6413  0.0967
   55MOL   C27818746   0.356   3.114   4.148  0.6300 -0.9181  0.2141
   55MOL   C27918747   0.246   3.028   4.151 -0.1852  1.0019  0.1365
   55MOL   C28018748   0.219   2.956   4.034  0.9096 -0.5665  0.7249
   55MOL   C28118749   0.293   2.980   3.917  0.1229  0.5053 -0.1160
   55MOL   O28218750   0.396   3.127   3.688 -0.4609 -0.0954  0.3208
   55MOL   H28318751   0.542   2.912   3.704 -1.4995  1.7880 -1.2660
   55MOL   H28418752   0.630   2.948   3.850  1.7553  0.7207 -0.5034
   55MOL   H28518753   0.535   3.193   3.814 -3.0701  1.2553  3.9642
   55MOL   H28618754   0.520   3.211   4.047  0.4726 -1.4766  0.6864
   55MOL   H28718755   0.381   3.168   4.238 -0.9390  2.0389 -1.0700
   55MOL   H28818756   0.182   3.016   4.237 -0.6699 -0.7425 -0.4604
   55MOL   H28918757   0.129   2.896   4.039 -1.6876  3.1297  0.0196
   55MOL   H29018758   0.267   2.932   3.823 -0.8769 -2.2331  1.4971
   55MOL   C29118759   0.439   3.201   3.577 -1.0651  0.0409 -0.0955
   55MOL   C29218760   0.375   3.341   3.577 -0.4128  0.5039  0.0112
   55MOL   C29318761   0.451   3.435   3.486  0.0564  0.3055 -0.4171
   55MOL   C29418762   0.563   3.509   3.539  0.4833 -0.1605  0.0251
   55MOL   C29518763   0.613   3.620   3.476 -1.2200  0.0688  0.3441
   55MOL   C29618764   0.584   3.639   3.337  0.0960 -0.1856 -0.2815
   55MOL   C29718765   0.482   3.562   3.283  0.3174 -0.3604  0.3683
   55MOL   C29818766   0.411   3.458   3.351 -0.6306 -1.0437 -0.1680
   55MOL   O29918767   0.237   3.354   3.535  0.1443  0.3198  0.3188
   55MOL   H30018768   0.410   3.165   3.479 -0.1464  0.3033 -0.4676
   55MOL   H30118769   0.548   3.205   3.569 -1.1077  0.0411 -0.6713
   55MOL   H30218770   0.391   3.383   3.676  0.4296 -1.9556  0.9645
   55MOL   H30318771   0.593   3.487   3.641 -2.0675 -0.7869  0.6769
   55MOL   H30418772   0.687   3.682   3.525  0.3550 -1.1799 -0.4140
   55MOL   H30518773   0.645   3.718   3.294  1.9623  1.1954  4.5911
   55MOL   H30618774   0.457   3.595   3.182  1.4768 -1.2288 -0.2034
   55MOL   H30718775   0.329   3.401   3.308  1.1839 -2.1526 -2.2687
   55MOL   C30818776   0.141   3.298   3.625  0.8943  0.6822 -0.2831
   55MOL   C30918777   8.079   3.306   3.561 -0.9408  0.2793 -0.1538
   55MOL   C31018778   0.001   3.229   3.436 -0.4211  0.3624 -0.4979
   55MOL   C31118779   0.004   3.088   3.442 -0.4727 -0.2647 -1.0000
   55MOL   C31218780   8.069   3.013   3.323  0.3354 -0.0683 -0.8819
   55MOL   C31318781   8.044   3.076   3.197 -0.5056 -0.6441  0.2533
   55MOL   C31418782   8.044   3.221   3.188 -0.3473 -0.4032 -0.4974
   55MOL   C31518783   8.062   3.291   3.310 -0.4062  0.5725  0.5784
   55MOL   O31618784   7.988   3.242   3.659 -0.0800 -0.0612 -0.3911
   55MOL   H31718785   0.141   3.358   3.716  3.3240  1.8565 -1.0227
   55MOL   H31818786   0.179   3.200   3.653 -0.4516  0.2833  0.2023
   55MOL   H31918787   8.056   3.409   3.534 -1.7200  0.2930  0.5271
   55MOL   H32018788   0.018   3.036   3.536  2.4814  2.6219  0.2525
   55MOL   H32118789   8.074   2.905   3.313 -0.8197 -0.0603 -1.5934
   55MOL   H32218790   8.023   3.022   3.106 -1.1580 -0.2918  0.1904
   55MOL   H32318791   8.020   3.273   3.097 -1.2814 -0.7539 -0.4592
   55MOL   H32418792   8.038   3.396   3.304  1.1186  0.8450 -1.2645
   55MOL   C32518793   7.850   3.295   3.671 -0.9380 -0.2643  0.2514
   55MOL   C32618794   7.784   3.213   3.786  0.1750  0.8854  0.7883
   55MOL   C32718795   7.785   3.060   3.786 -0.7047  0.0921  0.0001
   55MOL   C32818796   7.757   2.987   3.906  0.0274 -0.3698 -0.2439
   55MOL   C32918797   7.760   2.849   3.903 -0.2182 -0.4360 -0.4111
   55MOL   C33018798   7.799   2.782   3.786  0.1476  0.4572 -0.2703
   55MOL   C33118799   7.836   2.855   3.673 -0.5135  0.2373  0.1359
   55MOL   C33218800   7.822   2.990   3.673  0.2986 -0.4201 -0.2003
   55MOL   O33318801   7.833   3.273   3.905  0.2211  0.5119  0.4985
   55MOL   H33418802   7.795   3.291   3.576 -1.4658  0.6486  0.5150
   55MOL   H33518803   7.863   3.400   3.698  3.5033 -0.9135  1.0853
   55MOL   H33618804   7.678   3.238   3.785 -0.0515 -0.0373 -0.8879
   55MOL   H33718805   7.712   3.026   3.996  1.6096 -2.2613  1.4148
   55MOL   H33818806   7.734   2.802   3.997 -0.3881 -0.2998 -0.3902
   55MOL   H33918807   7.797   2.675   3.777 -1.8348  0.5509 -1.3338
   55MOL   H34018808   7.860   2.800   3.583  0.1643  3.4273 -1.7142
   55MOL   H34118809   7.847   3.046   3.584 -2.6496  0.5513 -0.4661
   55MOL   H34218810   7.926   3.269   3.888  0.0265 -0.4121 -0.4026
   56MOL     C118811   6.541   5.527   6.614  0.5819  0.3197 -0.5087
   56MOL     C218812   6.521   5.387   6.666  0.0147  0.4888  0.9059
   56MOL     C318813   6.506   5.282   6.556  0.6347  0.3362  0.1310
   56MOL     C418814   6.625   5.224   6.514  0.3710  0.5198  0.7348
   56MOL     C518815   6.627   5.129   6.408  0.7545 -0.6366  0.3020
   56MOL     C618816   6.504   5.086   6.355 -0.5657 -0.1153 -0.2638
   56MOL     C718817   6.382   5.146   6.397  0.0742  0.1682 -0.0532
   56MOL     C818818   6.381   5.254   6.491  0.1238  0.0166 -0.7678
   56MOL     O918819   6.404   5.399   6.748  0.1172 -0.1614  0.1698
   56MOL    H1018820   6.639   5.525   6.567 -0.2087  1.2823 -2.2498
   56MOL    H1118821   6.471   5.561   6.537  1.1554  0.5651 -0.9292
   56MOL    H1218822   6.599   5.351   6.734 -1.4614 -2.1695  1.2588
   56MOL    H1318823   6.715   5.264   6.558  1.3691  0.7017 -1.4155
   56MOL    H1418824   6.721   5.096   6.366  1.0059 -0.7870  0.9826
   56MOL    H1518825   6.500   5.014   6.275  1.9698 -0.4760 -0.1152
   56MOL    H1618826   6.298   5.107   6.341  2.6398 -3.6230 -1.4833
   56MOL    H1718827   6.300   5.322   6.509  2.0179  1.8284  1.3530
   56MOL    H1818828   6.545   5.601   6.694  1.8032  0.5790 -0.8024
   56MOL    C1918829   6.417   5.461   6.880 -0.3336 -0.5068 -0.3536
   56MOL    C2018830   6.297   5.536   6.941  0.6267 -0.8735  0.2996
   56MOL    C2118831   6.280   5.674   6.875  0.2066  0.1211 -1.1138
   56MOL    C2218832   6.333   5.784   6.946  0.4955 -0.1069  0.3626
   56MOL    C2318833   6.327   5.910   6.885 -0.4751  0.0292  0.2817
   56MOL    C2418834   6.261   5.929   6.762  0.4010  0.0242 -0.2529
   56MOL    C2518835   6.229   5.818   6.689  0.1466  0.0216  0.3580
   56MOL    C2618836   6.238   5.691   6.740  0.1873 -0.3279  0.6200
   56MOL    O2718837   6.296   5.547   7.081  0.6139 -0.6854  0.3186
   56MOL    H2818838   6.440   5.372   6.939  2.1190  0.6372  0.4341
   56MOL    H2918839   6.503   5.526   6.892 -0.9548  0.3471 -0.4770
   56MOL    H3018840   6.210   5.484   6.901  1.8588 -0.5371 -2.9315
   56MOL    H3118841   6.386   5.773   7.039  0.3683 -0.6929  0.3710
   56MOL    H3218842   6.379   5.992   6.933 -0.6906  0.5311 -0.3243
   56MOL    H3318843   6.262   6.027   6.717 -2.3479  0.4910  0.6470
   56MOL    H3418844   6.199   5.840   6.587  0.9741  1.2688  0.3704
   56MOL    H3518845   6.211   5.609   6.675  0.0521  0.6688 -0.5920
   56MOL    C3618846   6.223   5.445   7.139  0.7794 -0.0814 -0.0237
   56MOL    C3718847   6.265   5.427   7.281  0.5312 -0.6225  0.1959
   56MOL    C3818848   6.421   5.418   7.289  0.5137  0.7812 -0.0905
   56MOL    C3918849   6.502   5.496   7.374 -0.2052 -0.5041  0.7313
   56MOL    C4018850   6.643   5.473   7.391 -0.4723  0.5179  0.9651
   56MOL    C4118851   6.702   5.368   7.315 -0.2110  0.1959 -0.3287
   56MOL    C4218852   6.617   5.292   7.231 -1.0402 -0.5066  0.3555
   56MOL    C4318853   6.475   5.308   7.220  0.5617 -0.4344 -0.2424
   56MOL    O4418854   6.194   5.333   7.359 -0.0252 -0.2074 -0.4782
   56MOL    H4518855   6.119   5.475   7.125  0.7149 -0.1804  0.2345
   56MOL    H4618856   6.238   5.354   7.081  2.2883 -0.5694  1.0907
   56MOL    H4718857   6.246   5.527   7.322  1.6648 -0.1627 -0.3793
   56MOL    H4818858   6.451   5.578   7.422  4.7412  2.6414  0.8937
   56MOL    H4918859   6.709   5.533   7.452  0.5387 -1.0095  1.3956
   56MOL    H5018860   6.805   5.349   7.341 -0.0842  1.1249 -0.1488
   56MOL    H5118861   6.680   5.230   7.168 -0.0027 -0.1139  0.9908
   56MOL    H5218862   6.417   5.249   7.151 -1.4792  0.8000  0.3618
   56MOL    C5318863   6.055   5.331   7.353  0.6566  0.8990  0.3237
   56MOL    C5418864   5.985   5.293   7.482 -0.0553  0.0525 -0.5266
   56MOL    C5518865   6.055   5.170   7.543 -0.2649 -0.5657 -0.4829
   56MOL    C5618866   6.179   5.180   7.617  0.5555 -0.1429 -0.2213
   56MOL    C5718867   6.229   5.068   7.686 -0.7867  0.3140 -0.1367
   56MOL    C5818868   6.164   4.943   7.665 -0.3757  0.4308  0.0675
   56MOL    C5918869   6.046   4.932   7.598  0.6223 -0.5297 -0.1444
   56MOL    C6018870   5.994   5.044   7.527 -0.7091  0.1412  0.1727
   56MOL    O6118871   5.981   5.411   7.559 -0.3324  0.5740  0.0769
   56MOL    H6218872   6.015   5.430   7.327 -0.9187  0.3840  0.7543
   56MOL    H6318873   6.029   5.245   7.292  2.3946  0.0639  0.7390
   56MOL    H6418874   5.882   5.268   7.459 -0.5663  1.4002  0.1991
   56MOL    H6518875   6.224   5.278   7.630 -0.5371  0.2793  0.4062
   56MOL    H6618876   6.317   5.073   7.748 -1.9075 -1.9098  1.6981
   56MOL    H6718877   6.197   4.855   7.718  1.2346 -0.3152 -2.0995
   56MOL    H6818878   5.988   4.842   7.604  1.9394 -1.2596  3.0401
   56MOL    H6918879   5.910   5.040   7.459 -0.8107  0.5370  0.2756
   56MOL    C7018880   5.896   5.406   7.669  0.4967 -0.3660  0.1582
   56MOL    C7118881   5.965   5.472   7.791  0.6086  0.7913  0.1982
   56MOL    C7218882   6.022   5.610   7.759 -0.5657  0.4768 -0.4689
   56MOL    C7318883   5.939   5.725   7.781 -0.1736 -0.2448 -0.0028
   56MOL    C7418884   5.986   5.848   7.747  0.4346  0.4126  0.2209
   56MOL    C7518885   6.115   5.875   7.698  0.4780 -0.0513  0.1718
   56MOL    C7618886   6.201   5.766   7.676 -0.1102  0.1389  0.2268
   56MOL    C7718887   6.153   5.632   7.700  0.5913 -0.3138 -0.1835
   56MOL    O7818888   6.069   5.381   7.843 -0.2542 -0.6856  0.1597
   56MOL    H7918889   5.805   5.460   7.645  0.7174 -0.1656 -0.2389
   56MOL    H8018890   5.871   5.304   7.698 -0.9887  0.2345  1.0148
   56MOL    H8118891   5.891   5.481   7.871 -2.0604 -1.8977 -1.8935
   56MOL    H8218892   5.838   5.711   7.817 -0.8298 -1.4326 -2.1969
   56MOL    H8318893   5.921   5.934   7.755  0.5100  0.2665  2.8727
   56MOL    H8418894   6.146   5.977   7.682  1.1051 -0.5287 -1.7798
   56MOL    H8518895   6.297   5.783   7.631 -1.2219  1.9315 -1.5393
   56MOL    H8618896   6.208   5.544   7.670  1.5802  0.3029 -0.1799
   56MOL    C8718897   6.122   5.420   7.965 -0.5889  0.1005  0.0034
   56MOL    C8818898   6.262   5.353   7.960  0.3558 -0.5267  0.6985
   56MOL    C8918899   6.315   5.339   0.015  0.5311  0.1567 -0.1067
   56MOL    C9018900   6.346   5.454   0.097  0.4665 -0.4377  0.8116
   56MOL    C9118901   6.405   5.437   0.224  0.1649  0.0666  0.6632
   56MOL    C9218902   6.438   5.307   0.264  0.1011 -0.1043  0.2072
   56MOL    C9318903   6.412   5.196   0.184 -0.0031 -0.5049 -0.9568
   56MOL    C9418904   6.349   5.211   0.063  0.2760 -0.3079  0.3408
   56MOL    O9518905   6.345   5.442   7.878  0.6678  0.0712  0.3326
   56MOL    H9618906   6.062   5.386   8.049 -1.1603  0.7187 -0.1527
   56MOL    H9718907   6.130   5.529   7.974  0.6105  0.0570 -0.4127
   56MOL    H9818908   6.251   5.259   7.906  0.8366  0.8370 -1.8362
   56MOL    H9918909   6.338   5.551   0.051  0.8126  0.2048  2.0879
   56MOL   H10018910   6.425   5.532   0.273  0.8037  0.1421  0.2707
   56MOL   H10118911   6.503   5.286   0.347  2.3842 -0.9212 -1.7293
   56MOL   H10218912   6.427   5.093   0.212  0.2444  0.2744  1.8698
   56MOL   H10318913   6.336   5.122   0.003  1.2262  0.2138 -0.6512
   56MOL   C10418914   6.471   5.398   7.844 -0.4749 -0.6356 -0.2697
   56MOL   C10518915   6.571   5.520   7.830 -0.1628 -0.1335 -0.7892
   56MOL   C10618916   6.581   5.591   7.961 -0.5304  0.8190  0.6345
   56MOL   C10718917   6.677   5.556   8.058 -0.1409  0.0263 -0.4271
   56MOL   C10818918   6.680   5.626   0.099 -0.1153  0.2625  0.1351
   56MOL   C10918919   6.591   5.730   0.127 -0.0984 -0.4640  0.0536
   56MOL   C11018920   6.498   5.771   0.034 -0.4614  0.0913  0.1522
   56MOL   C11118921   6.497   5.701   7.992  0.0041 -0.5806  0.0944
   56MOL   O11218922   6.699   5.478   7.778  0.3857  0.6215 -0.3878
   56MOL   H11318923   6.493   5.330   7.927 -1.6309 -1.0292 -0.2786
   56MOL   H11418924   6.457   5.345   7.750 -3.4008  1.4279 -1.0633
   56MOL   H11518925   6.537   5.594   7.758 -0.3230  1.4165  0.8409
   56MOL   H11618926   6.744   5.471   8.051 -1.6223 -1.0926 -1.1354
   56MOL   H11718927   6.737   5.583   0.181 -1.3634 -2.3494 -0.3225
   56MOL   H11818928   6.597   5.779   0.223 -1.4290  1.7094 -0.9545
   56MOL   H11918929   6.436   5.855   0.061 -0.4923 -0.6245  2.4732
   56MOL   H12018930   6.417   5.726   7.924 -1.5094 -2.0004  1.3114
   56MOL   C12118931   6.800   5.573   7.740  0.1147  0.4647  0.3533
   56MOL   C12218932   6.933   5.508   7.698 -0.7407  0.6819 -0.3302
   56MOL   C12318933   7.028   5.600   7.624 -0.3832 -0.0374 -0.2933
   56MOL   C12418934   7.109   5.692   7.699 -0.2207 -0.1855 -0.0427
   56MOL   C12518935   7.205   5.776   7.637  0.9036  0.0886 -0.2766
   56MOL   C12618936   7.211   5.770   7.497  0.0332  0.6662  0.2835
   56MOL   C12718937   7.128   5.690   7.416 -0.1502  0.4229  0.3800
   56MOL   C12818938   7.043   5.598   7.486  0.1694  0.3890 -0.1939
   56MOL   O12918939   7.004   5.453   7.809  0.1282 -0.0859  0.8652
   56MOL   H13018940   6.829   5.641   7.820  1.3160  0.6945 -0.2692
   56MOL   H13118941   6.759   5.627   7.655 -1.1239 -0.1053  0.5833
   56MOL   H13218942   6.907   5.427   7.630 -0.5630  0.0430  0.3558
   56MOL   H13318943   7.093   5.703   7.805  0.6143  1.0952 -0.0347
   56MOL   H13418944   7.278   5.826   7.697 -0.6492 -1.1664  2.7747
   56MOL   H13518945   7.285   5.820   7.435 -0.3660 -0.7185 -1.3330
   56MOL   H13618946   7.137   5.690   7.309 -1.1804  1.4485  0.2797
   56MOL   H13718947   6.978   5.532   7.430  1.8217  0.3758 -2.1692
   56MOL   C13818948   6.942   5.334   7.873 -0.6868 -0.0889 -0.1261
   56MOL   C13918949   7.030   5.300   7.988  0.0606 -0.3167 -0.5074
   56MOL   C14018950   7.181   5.286   7.957  0.1227 -0.2031  0.0475
   56MOL   C14118951   7.258   5.391   7.916 -0.2137  0.4076  0.0301
   56MOL   C14218952   7.394   5.368   7.884 -0.4427 -0.2176 -0.7452
   56MOL   C14318953   7.445   5.238   7.887 -0.1734 -0.2137  0.3037
   56MOL   C14418954   7.363   5.128   7.919  0.2031 -0.5994 -0.7615
   56MOL   C14518955   7.230   5.154   7.954 -0.8324 -0.1111 -0.6730
   56MOL   O14618956   7.000   5.401   0.008  0.1374 -0.1062 -0.4119
   56MOL   H14718957   6.940   5.257   7.795 -0.2035  0.3769 -0.6014
   56MOL   H14818958   6.840   5.358   7.904  0.5189  2.6116  1.9275
   56MOL   H14918959   6.984   5.212   8.033  0.7639 -0.8975 -0.8988
   56MOL   H15018960   7.215   5.490   7.908 -2.4481 -0.6316 -1.3206
   56MOL   H15118961   7.454   5.456   7.866 -3.0967  2.4981  3.0348
   56MOL   H15218962   7.546   5.224   7.853 -0.1554 -0.5672  0.4984
   56MOL   H15318963   7.397   5.026   7.911 -0.3338 -0.7421 -1.3209
   56MOL   H15418964   7.160   5.076   7.979 -0.2902 -0.3878  0.0215
   56MOL   C15518965   7.040   5.364   0.143 -0.2822  0.5984  0.1649
   56MOL   C15618966   6.921   5.328   0.239 -0.1807 -0.0590 -0.9222
   56MOL   C15718967   6.854   5.193   0.203 -0.0556 -0.9956  0.2739
   56MOL   C15818968   6.749   5.191   0.114  0.4984  0.0415  0.6289
   56MOL   C15918969   6.685   5.067   0.083  0.0734  0.0410  0.4973
   56MOL   C16018970   6.723   4.954   0.151  1.0865 -0.1158 -0.8864
   56MOL   C16118971   6.820   4.954   0.247 -0.5917 -0.1708 -0.3062
   56MOL   C16218972   6.886   5.074   0.271  0.6110  0.2848 -0.4657
   56MOL   O16318973   6.981   5.318   0.369  0.3764  0.1483 -0.0237
   56MOL   H16418974   7.101   5.447   0.176 -0.8855  1.6534 -1.3182
   56MOL   H16518975   7.114   5.284   0.134  0.8568  1.6507  0.1789
   56MOL   H16618976   6.837   5.398   0.243  2.0891  2.6520  1.4717
   56MOL   H16718977   6.718   5.280   0.062  1.1211 -0.1004  0.0093
   56MOL   H16818978   6.594   5.068   0.024  0.7794  1.3214 -0.5761
   56MOL   H16918979   6.682   4.856   0.132 -1.0005  0.7647 -0.9956
   56MOL   H17018980   6.857   4.862   0.290 -0.8057 -0.5147 -0.8551
   56MOL   H17118981   6.961   5.071   0.349  0.4292  1.7007 -0.2243
   56MOL   C17218982   6.960   5.421   0.459  0.3587  0.1511 -0.3606
   56MOL   C17318983   7.064   5.423   0.566  0.0232  0.6028  0.0729
   56MOL   C17418984   7.042   5.305   0.661 -0.6066 -0.1016  0.0857
   56MOL   C17518985   7.086   5.179   0.621  0.0866 -0.3056  0.5600
   56MOL   C17618986   7.084   5.067   0.701  0.1927  1.2304 -0.1991
   56MOL   C17718987   7.047   5.081   0.835 -0.0656  0.2192 -0.1404
   56MOL   C17818988   6.994   5.204   0.879 -0.2402  0.8788 -0.3990
   56MOL   C17918989   6.988   5.309   0.788  0.1195 -0.6328 -0.1064
   56MOL   O18018990   7.051   5.543   0.629 -0.0978  0.0366 -0.2039
   56MOL   H18118991   6.963   5.520   0.412  1.5003 -0.5413 -1.8023
   56MOL   H18218992   6.860   5.420   0.501  1.4570 -0.6823  2.3384
   56MOL   H18318993   7.164   5.407   0.527  0.4130  0.4698  1.1090
   56MOL   H18418994   7.121   5.164   0.520  0.4060 -0.3580  0.6773
   56MOL   H18518995   7.122   4.975   0.659 -0.5624  0.5307  0.6502
   56MOL   H18618996   7.046   4.987   0.889  2.6808  1.4036  2.0887
   56MOL   H18718997   6.958   5.218   0.979  1.4961 -1.5068  0.6144
   56MOL   H18818998   6.947   5.405   0.812  2.0247  0.4279 -0.9638
   56MOL   C18918999   7.146   5.645   0.600  0.1779 -0.2068  0.0391
   56MOL   C19019000   7.086   5.779   0.650  0.9274  0.1584 -0.4565
   56MOL   C19119001   6.943   5.805   0.597  0.5768  0.4288 -0.0514
   56MOL   C19219002   6.825   5.772   0.669 -0.2629  0.2775 -0.4714
   56MOL   C19319003   6.697   5.810   0.620 -0.1008  0.2768  0.7283
   56MOL   C19419004   6.697   5.874   0.495  0.4938  0.1207 -0.0539
   56MOL   C19519005   6.813   5.914   0.427 -0.0951  0.3163  0.2870
   56MOL   C19619006   6.936   5.872   0.475 -0.2537 -0.2803 -0.0722
   56MOL   O19719007   7.175   5.876   0.596  0.5327  0.1459  0.0395
   56MOL   H19819008   7.246   5.620   0.636 -0.1331 -1.1871  0.2194
   56MOL   H19919009   7.149   5.652   0.491 -0.6547  0.4342  0.0451
   56MOL   H20019010   7.094   5.777   0.759  1.6478  1.2830 -0.4759
   56MOL   H20119011   6.832   5.727   0.767  0.9161  0.3006 -0.5360
   56MOL   H20219012   6.606   5.790   0.676 -0.6438  1.5402  0.3108
   56MOL   H20319013   6.596   5.898   0.465  0.1717 -1.7119 -0.5529
   56MOL   H20419014   6.808   5.960   0.329  2.5747  0.4656  0.1924
   56MOL   H20519015   7.029   5.900   0.428 -0.3456 -0.0988 -0.1464
   56MOL   C20619016   7.161   5.996   0.668 -0.1861 -0.0987  0.3838
   56MOL   C20719017   7.238   6.097   0.582  0.2985 -0.6108  0.9040
   56MOL   C20819018   7.259   6.231   0.657  0.5587 -0.4149 -0.0825
   56MOL   C20919019   7.386   6.269   0.712 -0.1983 -0.6551  0.5945
   56MOL   C21019020   7.403   6.389   0.779 -0.6999 -0.4967 -0.1340
   56MOL   C21119021   7.292   6.477   0.799 -0.0329  0.0095  0.0590
   56MOL   C21219022   7.167   6.436   0.745  0.1463 -0.6004  0.4587
   56MOL   C21319023   7.153   6.320   0.668 -0.0250  0.2437  0.1118
   56MOL   O21419024   7.150   6.115   0.472  0.5843  0.0475  0.2858
   56MOL   H21519025   7.059   6.036   0.660 -0.5912 -1.3322 -0.8380
   56MOL   H21619026   7.210   5.989   0.765 -3.0265  0.7847  1.9624
   56MOL   H21719027   7.332   6.045   0.563  0.1833 -0.3685 -0.4077
   56MOL   H21819028   7.465   6.196   0.704 -0.6155 -0.8968 -1.5549
   56MOL   H21919029   7.497   6.415   0.825 -0.4842  0.4088 -1.0750
   56MOL   H22019030   7.309   6.567   0.857  0.9847  0.7878 -1.4261
   56MOL   H22119031   7.079   6.497   0.761 -0.1695 -0.9192 -0.0658
   56MOL   H22219032   7.055   6.293   0.632  0.5134 -0.4781 -0.7977
   56MOL   C22319033   7.210   6.197   0.374 -0.0346  0.0227  0.0307
   56MOL   C22419034   7.145   6.177   0.232  0.2511  0.0836  0.2178
   56MOL   C22519035   7.141   6.035   0.183 -0.6127  0.0532 -0.7651
   56MOL   C22619036   7.054   6.004   0.074 -0.0173 -0.7025 -0.5575
   56MOL   C22719037   7.042   5.875   0.018 -0.1384  0.7431  0.4402
   56MOL   C22819038   7.125   5.770   0.074  0.0614 -0.8475 -0.2871
   56MOL   C22919039   7.208   5.793   0.187  0.2826  0.3996  0.2807
   56MOL   C23019040   7.218   5.928   0.236 -0.1383  0.0916 -0.2686
   56MOL   O23119041   7.018   6.234   0.243  0.2533 -0.7837  0.2501
   56MOL   H23219042   7.196   6.302   0.398  0.0401 -0.0066  0.2061
   56MOL   H23319043   7.313   6.163   0.373  0.0880  0.3779  0.7417
   56MOL   H23419044   7.200   6.231   0.156 -0.3669 -0.8980 -0.9411
   56MOL   H23519045   6.993   6.081   0.029  0.7913  0.0323 -0.4041
   56MOL   H23619046   6.970   5.870   8.018 -2.8332 -0.2025  2.8465
   56MOL   H23719047   7.104   5.674   0.028 -1.2748 -0.2924 -0.8519
   56MOL   H23819048   7.262   5.707   0.224  1.6875  0.7404 -0.9255
   56MOL   H23919049   7.287   5.935   0.319  1.2472 -2.7611 -1.1072
   56MOL   C24019050   6.993   6.369   0.231  0.2867  0.1482 -0.2911
   56MOL   C24119051   6.848   6.406   0.278  0.4143  0.1844  0.3130
   56MOL   C24219052   6.844   6.385   0.431  0.0683 -0.2911  0.5288
   56MOL   C24319053   6.846   6.494   0.525 -0.2589  0.2137  0.2744
   56MOL   C24419054   6.821   6.475   0.661 -0.0891 -0.0853 -0.0269
   56MOL   C24519055   6.793   6.342   0.710  0.4076 -0.0074  0.0842
   56MOL   C24619056   6.805   6.231   0.613 -0.3331  0.0229 -0.1532
   56MOL   C24719057   6.827   6.253   0.478  0.0352  0.1529  0.1743
   56MOL   O24819058   6.839   6.540   0.233 -0.3230 -0.5925 -0.4279
   56MOL   H24919059   7.058   6.424   0.299  1.8445 -0.9895 -0.8406
   56MOL   H25019060   7.014   6.405   0.130 -0.9170 -0.8927 -0.9378
   56MOL   H25119061   6.786   6.329   0.233  2.6960 -2.1471  1.0437
   56MOL   H25219062   6.847   6.593   0.482  1.9036 -0.5497 -1.5276
   56MOL   H25319063   6.813   6.562   0.725 -1.1365  0.1854 -0.5213
   56MOL   H25419064   6.776   6.315   0.813 -2.7174  0.7020 -0.1998
   56MOL   H25519065   6.789   6.129   0.643  2.4337 -0.8426 -1.4871
   56MOL   H25619066   6.837   6.174   0.404  0.9818 -0.7439  1.2249
   56MOL   C25719067   6.704   6.588   0.236 -0.5755  0.1272 -0.6811
   56MOL   C25819068   6.696   6.740   0.222  0.2738 -0.3735 -0.4139
   56MOL   C25919069   6.732   6.789   0.085  0.5492 -0.4945  0.1750
   56MOL   C26019070   6.637   6.792   8.063  0.4772 -0.5369 -1.5676
   56MOL   C26119071   6.675   6.847   7.938  0.8190  0.3769  0.0182
   56MOL   C26219072   6.800   6.908   7.919 -0.7163 -0.3320  0.4658
   56MOL   C26319073   6.898   6.899   8.020 -0.4817 -0.5766  0.3285
   56MOL   C26419074   6.861   6.838   0.065 -0.3778 -0.3930 -0.3220
   56MOL   O26519075   6.783   6.793   0.321 -0.0746 -0.1587  0.3251
   56MOL   H26619076   6.648   6.549   0.320  0.1267  0.2098 -0.1667
   56MOL   H26719077   6.659   6.536   0.152  3.2512 -2.2418 -1.4254
   56MOL   H26819078   6.594   6.769   0.244  0.4941 -0.4736  0.8154
   56MOL   H26919079   6.542   6.755   0.020  0.1469  1.5191 -0.2537
   56MOL   H27019080   6.618   6.832   7.848  1.3267 -0.0675 -0.2338
   56MOL   H27119081   6.817   6.953   7.822 -1.7181 -0.6475  0.1361
   56MOL   H27219082   6.998   6.937   8.009 -0.6065  0.3612  2.1834
   56MOL   H27319083   6.926   6.839   0.151 -1.0049  0.9030  0.1647
   56MOL   C27419084   6.763   6.935   0.345 -0.3718 -0.3098  0.4253
   56MOL   C27519085   6.855   6.990   0.456 -0.2581 -0.0879 -0.0045
   56MOL   C27619086   6.804   7.126   0.491 -0.3796 -1.1578 -0.0347
   56MOL   C27719087   6.714   7.154   0.592 -0.2172  0.0969 -0.1576
   56MOL   C27819088   6.645   7.279   0.594  0.5941  0.3128  0.1547
   56MOL   C27919089   6.684   7.383   0.505  0.1359  0.7660 -0.3285
   56MOL   C28019090   6.789   7.361   0.412 -0.4711 -0.0933 -1.0107
   56MOL   C28119091   6.846   7.233   0.406  0.1885  1.0711 -0.6995
   56MOL   O28219092   6.974   6.995   0.391  0.4253  0.0800  0.2848
   56MOL   H28319093   6.751   6.996   0.255  2.3033  1.3870  1.1889
   56MOL   H28419094   6.662   6.933   0.385 -0.9099 -1.8247 -0.9282
   56MOL   H28519095   6.870   6.920   0.538  0.7921  1.2755  1.0030
   56MOL   H28619096   6.693   7.066   0.650 -1.5276 -1.1724 -2.4613
   56MOL   H28719097   6.566   7.303   0.663 -0.9106 -0.0798 -1.3940
   56MOL   H28819098   6.644   7.483   0.516 -0.1522  1.3360 -5.2729
   56MOL   H28919099   6.833   7.445   0.360  0.9108  0.2806  0.7069
   56MOL   H29019100   6.906   7.207   0.320  0.1259 -1.3011 -0.0839
   56MOL   C29119101   7.088   7.014   0.470 -0.3931  0.2840 -0.4157
   56MOL   C29219102   7.207   7.063   0.379 -0.1378  0.3895  1.1754
   56MOL   C29319103   7.175   7.188   0.306 -0.0343 -0.0569 -0.2476
   56MOL   C29419104   7.146   7.190   0.171 -0.1744  0.2467  0.7345
   56MOL   C29519105   7.098   7.308   0.107 -0.2101  0.0187  0.0688
   56MOL   C29619106   7.086   7.423   0.181  0.6931  0.6284 -0.0571
   56MOL   C29719107   7.117   7.425   0.320  0.6338  0.2314  0.3651
   56MOL   C29819108   7.170   7.310   0.384  0.3812  0.0127 -0.0266
   56MOL   O29919109   7.312   7.077   0.472 -0.0290  0.1672  0.0957
   56MOL   H30019110   7.123   6.921   0.515  0.4459  0.8910  0.2059
   56MOL   H30119111   7.072   7.090   0.546 -1.1733  0.3001 -0.5998
   56MOL   H30219112   7.229   6.980   0.313 -0.4947  0.3812  1.0673
   56MOL   H30319113   7.154   7.098   0.114  0.8132  0.3598  0.6831
   56MOL   H30419114   7.069   7.308   0.003  2.2183 -0.5403 -0.6427
   56MOL   H30519115   7.063   7.519   0.138  0.7432  1.6445  2.0958
   56MOL   H30619116   7.112   7.521   0.370  0.9883  1.5974 -2.1126
   56MOL   H30719117   7.199   7.303   0.488  0.3372  0.5804  0.0253
   56MOL   C30819118   7.445   7.090   0.418 -0.1331 -0.6808  0.1852
   56MOL   C30919119   7.551   7.070   0.537  0.3963  0.4099  0.2217
   56MOL   C31019120   7.512   7.153   0.660  0.5708 -0.3116 -0.6443
   56MOL   C31119121   7.570   7.281   0.671 -0.3610 -0.0482 -0.3027
   56MOL   C31219122   7.528   7.369   0.775 -0.2881  0.3662 -0.2168
   56MOL   C31319123   7.436   7.332   0.874 -0.2838  0.0057 -0.2817
   56MOL   C31419124   7.378   7.205   0.862 -0.6657  0.1095 -0.3537
   56MOL   C31519125   7.418   7.118   0.754  0.0112 -0.0225 -0.4768
   56MOL   O31619126   7.565   6.929   0.573  0.1275  0.1312 -0.1731
   56MOL   H31719127   7.454   7.194   0.385  0.9793 -1.1675 -1.0646
   56MOL   H31819128   7.463   7.022   0.335  1.1840  0.6664 -0.6480
   56MOL   H31919129   7.650   7.099   0.502 -0.6883  2.9359 -0.8352
   56MOL   H32019130   7.642   7.313   0.597 -0.0336  0.8774  0.4085
   56MOL   H32119131   7.579   7.464   0.779 -0.9329  0.7559 -0.9838
   56MOL   H32219132   7.408   7.404   0.950 -2.0850 -1.4461  0.4749
   56MOL   H32319133   7.304   7.169   0.931 -0.0867 -0.5497 -0.0729
   56MOL   H32419134   7.386   7.016   0.738  0.5859 -0.0713 -1.3664
   56MOL   C32519135   7.628   6.847   0.485 -0.3119  0.3701  0.0034
   56MOL   C32619136   7.727   6.767   0.571 -0.5103 -0.2530 -0.8937
   56MOL   C32719137   7.776   6.631   0.516 -0.6482  0.0672  1.1204
   56MOL   C32819138   7.893   6.618   0.435  0.1562 -0.2508 -0.0600
   56MOL   C32919139   7.930   6.498   0.376  0.3378 -0.1877  0.1815
   56MOL   C33019140   7.859   6.381   0.411 -0.6903  0.4459 -0.3970
   56MOL   C33119141   7.746   6.391   0.500  0.1182 -0.0328  0.2978
   56MOL   C33219142   7.702   6.516   0.546 -0.1926  0.0279 -0.2315
   56MOL   O33319143   7.830   6.852   0.601 -0.5247  0.1312 -0.0253
   56MOL   H33419144   7.675   6.911   0.411 -1.4716 -1.2621 -2.1857
   56MOL   H33519145   7.557   6.778   0.439  0.5874 -0.5051 -0.1045
   56MOL   H33619146   7.680   6.741   0.666 -0.4201 -1.6757 -1.2225
   56MOL   H33719147   7.960   6.702   0.423  2.2300 -1.9340 -0.3751
   56MOL   H33819148   8.006   6.492   0.299 -0.2476 -1.0027 -0.3396
   56MOL   H33919149   7.891   6.285   0.372 -0.4590  0.8106 -1.1201
   56MOL   H34019150   7.695   6.301   0.529 -0.3022  1.2038  3.5712
   56MOL   H34119151   7.613   6.519   0.608  0.0875 -0.1132  0.1832
   56MOL   H34219152   7.799   6.940   0.617  1.8777  1.1675 -0.7459
   57MOL     C119153   6.325   1.158   0.724  0.0454  0.3949  0.4281
   57MOL     C219154   6.411   1.038   0.659 -0.7636  0.8051  0.7842
   57MOL     C319155   6.531   1.004   0.744  0.0667 -0.2192 -0.1153
   57MOL     C419156   6.524   0.892   0.831 -0.4553  0.4576 -0.6440
   57MOL     C519157   6.628   0.866   0.921 -0.5541 -0.5949  0.5495
   57MOL     C619158   6.741   0.953   0.922  0.8366 -0.1318  0.6298
   57MOL     C719159   6.747   1.067   0.839  0.4260 -0.0441 -0.3422
   57MOL     C819160   6.638   1.097   0.751  0.4169 -0.0652 -0.1467
   57MOL     O919161   6.439   1.076   0.529 -0.4761  0.7483 -0.2568
   57MOL    H1019162   6.388   1.246   0.735 -1.1563  1.3619 -0.3057
   57MOL    H1119163   6.243   1.181   0.657 -0.4861 -0.6752  0.6962
   57MOL    H1219164   6.337   0.959   0.661  0.6109 -0.5156  0.1551
   57MOL    H1319165   6.440   0.824   0.825 -0.8118  0.4708  3.0007
   57MOL    H1419166   6.614   0.782   0.987 -0.1314 -1.0098  0.1098
   57MOL    H1519167   6.816   0.941   0.999 -0.0136 -0.8470  1.3619
   57MOL    H1619168   6.831   1.135   0.844 -1.2034  2.0307 -0.3025
   57MOL    H1719169   6.649   1.186   0.690 -1.9981  1.5892  1.7438
   57MOL    H1819170   6.279   1.130   0.819  1.3372  2.0632  1.5616
   57MOL    C1919171   6.495   0.969   0.448 -0.5387  0.2274 -0.0757
   57MOL    C2019172   6.507   0.986   0.292  0.5137 -0.1315 -0.8095
   57MOL    C2119173   6.508   0.846   0.230 -0.1174  0.0655 -0.3763
   57MOL    C2219174   6.633   0.781   0.208  0.3115 -0.5491 -0.2470
   57MOL    C2319175   6.647   0.655   0.157  0.5583 -0.2657 -0.2338
   57MOL    C2419176   6.530   0.586   0.127 -0.1869 -0.0422  0.1573
   57MOL    C2519177   6.405   0.643   0.142 -0.7727  0.8026 -0.5700
   57MOL    C2619178   6.396   0.774   0.191 -0.2170 -0.4078  0.5481
   57MOL    O2719179   6.623   1.053   0.256  0.4488  0.0057  0.7207
   57MOL    H2819180   6.595   0.956   0.490  0.3644 -1.1969 -2.5655
   57MOL    H2919181   6.438   0.878   0.468 -1.6087  0.4072 -2.1797
   57MOL    H3019182   6.422   1.030   0.239 -0.4637 -1.0644 -0.0549
   57MOL    H3119183   6.721   0.833   0.242 -0.9031  1.4643 -0.0974
   57MOL    H3219184   6.739   0.599   0.141  1.9961  2.1528 -0.6247
   57MOL    H3319185   6.550   0.483   0.102 -1.4153 -0.5295  1.0803
   57MOL    H3419186   6.310   0.597   0.119 -0.5454  0.7679 -1.4532
   57MOL    H3519187   6.298   0.819   0.197  0.1890  0.4478  0.9066
   57MOL    C3619188   6.609   1.191   0.238 -0.2255  0.3044 -0.3692
   57MOL    C3719189   6.754   1.240   0.205  0.4503  0.3057  0.1460
   57MOL    C3819190   6.821   1.297   0.336 -0.0132  0.1755 -0.5180
   57MOL    C3919191   6.875   1.215   0.440 -0.1183  0.4456 -0.0154
   57MOL    C4019192   6.958   1.268   0.543 -0.2271  0.5962 -0.4636
   57MOL    C4119193   6.976   1.405   0.553  0.1260 -0.0123 -0.5252
   57MOL    C4219194   6.915   1.490   0.454 -0.1131  0.3555  0.4973
   57MOL    C4319195   6.839   1.440   0.349 -0.0524  0.2592  0.3495
   57MOL    O4419196   6.749   1.341   0.100  0.6943 -0.3713  0.3403
   57MOL    H4519197   6.534   1.200   0.159 -1.8463 -2.6637  0.7769
   57MOL    H4619198   6.582   1.233   0.334  0.0423 -1.8492  0.6829
   57MOL    H4719199   6.813   1.156   0.167 -0.6113 -1.5386  2.4212
   57MOL    H4819200   6.862   1.108   0.429 -1.7882  0.5576  0.7492
   57MOL    H4919201   7.001   1.196   0.610 -2.3358 -0.1048  0.1967
   57MOL    H5019202   7.027   1.449   0.637  0.2383 -0.1872 -0.5025
   57MOL    H5119203   6.915   1.598   0.465  1.3593  1.1491 -5.6013
   57MOL    H5219204   6.787   1.514   0.289 -0.8986  0.1468  0.9287
   57MOL    C5319205   6.745   1.285   8.052  0.0537  0.3152  0.0238
   57MOL    C5419206   6.761   1.396   7.945  0.2634 -0.0021 -0.1807
   57MOL    C5519207   6.663   1.513   7.945  0.2399  0.5796 -0.4900
   57MOL    C5619208   6.542   1.502   7.868 -1.1974 -0.2365 -0.1568
   57MOL    C5719209   6.456   1.615   7.863  0.4890 -0.0919  0.1271
   57MOL    C5819210   6.502   1.736   7.919  0.2400  0.1264  0.3258
   57MOL    C5919211   6.633   1.745   7.974  0.3977 -0.1093  0.0244
   57MOL    C6019212   6.709   1.633   7.993 -0.8536  0.1185  0.1651
   57MOL    O6119213   6.894   1.437   7.932 -0.0308  0.4137 -0.3569
   57MOL    H6219214   6.832   1.220   8.042 -0.7531 -0.6731 -0.6929
   57MOL    H6319215   6.650   1.235   8.033  0.0432 -0.9243  3.0530
   57MOL    H6419216   6.731   1.335   7.860  3.5181 -1.8943 -0.0833
   57MOL    H6519217   6.507   1.407   7.830 -0.9400 -0.1172 -0.6836
   57MOL    H6619218   6.363   1.609   7.809  1.9538 -0.5997 -2.4252
   57MOL    H6719219   6.436   1.822   7.916  0.7541  0.5092 -0.3963
   57MOL    H6819220   6.673   1.838   8.011 -0.1473  0.1507 -0.0296
   57MOL    H6919221   6.806   1.637   8.041 -0.8057  4.8360 -0.1163
   57MOL    C7019222   6.966   1.361   7.841 -0.3476 -0.0344  0.0965
   57MOL    C7119223   6.964   1.414   7.693  0.7596  0.2324 -0.2019
   57MOL    C7219224   6.849   1.358   7.616  0.6081  0.4367 -0.4044
   57MOL    C7319225   6.738   1.438   7.578  0.0605 -0.3915  1.0665
   57MOL    C7419226   6.633   1.378   7.504  0.0394 -0.1030 -0.8103
   57MOL    C7519227   6.635   1.246   7.475  0.7776  0.3762  0.5449
   57MOL    C7619228   6.746   1.169   7.495  0.4362  0.2995 -0.5479
   57MOL    C7719229   6.849   1.223   7.578 -0.0717 -0.0952  0.9416
   57MOL    O7819230   7.086   1.377   7.632 -0.4914  0.4011 -0.6201
   57MOL    H7919231   7.070   1.368   7.873 -0.4162  1.2505  0.0597
   57MOL    H8019232   6.940   1.255   7.843  2.2992 -0.7399 -1.1262
   57MOL    H8119233   6.963   1.523   7.697  0.0541  0.2284 -0.2737
   57MOL    H8219234   6.729   1.540   7.613  0.7087  0.1976 -0.4092
   57MOL    H8319235   6.538   1.424   7.484  0.1095  0.7118  0.6547
   57MOL    H8419236   6.554   1.195   7.426  1.6736 -0.9341  0.4195
   57MOL    H8519237   6.744   1.066   7.461 -2.7110  0.4103 -0.8519
   57MOL    H8619238   6.934   1.160   7.603  2.8269  3.3254  0.1693
   57MOL    C8719239   7.108   1.442   7.511  0.3300  0.4189  0.0343
   57MOL    C8819240   7.207   1.367   7.415 -0.3342 -0.2601  0.0662
   57MOL    C8919241   7.189   1.218   7.395 -0.1120  0.6824 -0.1414
   57MOL    C9019242   7.197   1.170   7.263  0.7021 -0.2281 -0.2043
   57MOL    C9119243   7.188   1.032   7.228 -0.5022  0.4529  0.0069
   57MOL    C9219244   7.178   0.941   7.333  0.4299 -0.1529 -0.4685
   57MOL    C9319245   7.170   0.983   7.467  0.1669  0.3752 -0.1209
   57MOL    C9419246   7.181   1.120   7.497  0.1170 -0.4416  0.8058
   57MOL    O9519247   7.343   1.402   7.423  0.2035  0.1517 -0.0229
   57MOL    H9619248   7.138   1.546   7.523 -1.2280  0.8002  0.7036
   57MOL    H9719249   7.016   1.445   7.452  0.9763 -1.0611 -1.0884
   57MOL    H9819250   7.190   1.417   7.320  1.1365  0.4541  0.1674
   57MOL    H9919251   7.213   1.253   7.195 -0.0173  2.2500  2.5321
   57MOL   H10019252   7.183   1.001   7.125 -1.6614 -0.7243  0.4057
   57MOL   H10119253   7.161   0.837   7.306  0.3535 -0.4212  0.5802
   57MOL   H10219254   7.149   0.914   7.548 -1.7655 -0.5560 -1.3903
   57MOL   H10319255   7.192   1.160   7.597  0.7538  2.6023 -0.4140
   57MOL   C10419256   7.406   1.359   7.545  0.2167  0.3602  0.2309
   57MOL   C10519257   7.536   1.443   7.566  0.0137 -0.2304 -0.3689
   57MOL   C10619258   7.635   1.416   7.455  0.1357  0.2043  0.2933
   57MOL   C10719259   7.719   1.307   7.471  0.0195 -0.0086 -0.0169
   57MOL   C10819260   7.794   1.271   7.357 -0.5983 -0.0143  0.5199
   57MOL   C10919261   7.805   1.354   7.245  0.6539  0.5376 -0.0764
   57MOL   C11019262   7.738   1.473   7.235 -0.1853  0.0888  0.4005
   57MOL   C11119263   7.645   1.498   7.335 -0.1113  0.4070  0.0230
   57MOL   O11219264   7.513   1.578   7.581 -0.4009 -0.1540 -0.1494
   57MOL   H11319265   7.333   1.368   7.625 -0.3371 -1.8470  0.0273
   57MOL   H11419266   7.434   1.254   7.553  0.4053  0.2870 -1.1512
   57MOL   H11519267   7.592   1.409   7.653  1.1162  0.9992 -0.5845
   57MOL   H11619268   7.717   1.237   7.554  0.6919  0.0692  0.0699
   57MOL   H11719269   7.855   1.182   7.365 -0.2979  0.0681 -0.7192
   57MOL   H11819270   7.872   1.321   7.167  0.0647 -1.9445  0.4239
   57MOL   H11919271   7.748   1.536   7.148 -0.2807 -0.6020 -0.1137
   57MOL   H12019272   7.593   1.590   7.314  2.1296  2.0050  1.2782
   57MOL   C12119273   7.413   1.627   7.684 -0.2223  0.0288 -0.2812
   57MOL   C12219274   7.350   1.756   7.635  0.2193 -0.5751  0.3199
   57MOL   C12319275   7.205   1.781   7.670 -0.2557 -0.4808  0.1536
   57MOL   C12419276   7.118   1.841   7.573 -0.3509  0.7357 -0.3340
   57MOL   C12519277   6.982   1.864   7.601  0.3033 -0.0102 -0.6862
   57MOL   C12619278   6.928   1.827   7.725 -0.2472  0.1575 -0.6182
   57MOL   C12719279   7.014   1.779   7.826 -0.5898  0.4514 -0.7868
   57MOL   C12819280   7.150   1.754   7.797  0.5862  0.3768  1.2184
   57MOL   O12919281   7.441   1.856   7.684 -0.2513  0.5084  0.4096
   57MOL   H13019282   7.460   1.626   7.782 -1.8509  1.1749  0.5489
   57MOL   H13119283   7.336   1.552   7.704  0.0948 -0.4333 -0.7924
   57MOL   H13219284   7.353   1.753   7.526 -1.5035 -0.8101  0.2628
   57MOL   H13319285   7.154   1.872   7.476 -1.2620  2.8787 -0.0174
   57MOL   H13419286   6.921   1.905   7.522 -0.2832 -3.0909 -1.8978
   57MOL   H13519287   6.823   1.839   7.746 -0.1498  3.2867 -1.6690
   57MOL   H13619288   6.966   1.746   7.917  0.5333  0.7441 -0.0797
   57MOL   H13719289   7.219   1.722   7.873  1.5105  1.8743  1.0443
   57MOL   C13819290   7.447   1.974   7.602  0.2878 -0.2278 -0.6667
   57MOL   C13919291   7.582   2.042   7.637  0.4845 -0.5785  0.0881
   57MOL   C14019292   7.585   2.080   7.785 -0.2437  0.2054 -0.3474
   57MOL   C14119293   7.645   1.989   7.870 -0.0402  0.5762  0.0890
   57MOL   C14219294   7.644   2.023   8.010 -0.0438  0.5307 -0.9508
   57MOL   C14319295   7.587   2.144   8.054  0.7273  0.0179  0.3619
   57MOL   C14419296   7.524   2.233   7.962 -0.2519 -0.1481 -0.6818
   57MOL   C14519297   7.529   2.204   7.823 -0.3249 -0.2067 -0.2042
   57MOL   O14619298   7.685   1.953   7.589  0.1977  0.2489 -0.1082
   57MOL   H14719299   7.367   2.044   7.626  1.8202  0.3329  3.0939
   57MOL   H14819300   7.449   1.948   7.496 -2.4650 -0.5556 -0.6721
   57MOL   H14919301   7.597   2.137   7.584  0.8606  0.2232  1.5839
   57MOL   H15019302   7.690   1.896   7.838  0.5531  1.1432 -0.7192
   57MOL   H15119303   7.673   1.956   0.010  2.4000  1.6788 -0.8243
   57MOL   H15219304   7.574   2.177   0.076  1.0498 -1.1280  0.7855
   57MOL   H15319305   7.484   2.331   7.983 -0.6913 -0.1366 -1.5537
   57MOL   H15419306   7.483   2.268   7.749  2.1458 -0.0113 -1.6043
   57MOL   C15519307   7.820   2.009   7.593  0.2000 -0.6568 -0.9810
   57MOL   C15619308   7.912   1.921   7.496  0.2426  0.4164 -0.5059
   57MOL   C15719309   8.020   2.000   7.431  0.5285 -0.3349  0.0255
   57MOL   C15819310   8.036   2.013   7.290 -0.3538  0.0063 -0.2666
   57MOL   C15919311   0.046   2.107   7.235  0.6094 -0.6277 -0.0848
   57MOL   C16019312   0.136   2.180   7.324  0.4559 -0.1616  0.0409
   57MOL   C16119313   0.111   2.166   7.463  0.2910 -0.1398  0.1253
   57MOL   C16219314   0.018   2.080   7.515 -0.5485 -0.1304  0.1977
   57MOL   O16319315   7.965   1.811   7.567 -0.1182  0.5144 -0.3644
   57MOL   H16419316   7.854   2.000   7.697  0.8260 -3.0916 -1.3734
   57MOL   H16519317   7.829   2.111   7.555  0.8074 -0.6125 -0.7350
   57MOL   H16619318   7.846   1.897   7.413  0.4564 -1.5280 -0.1337
   57MOL   H16719319   7.977   1.948   7.228  0.2456 -0.1682 -0.6581
   57MOL   H16819320   0.051   2.114   7.127 -1.1441  1.4889 -0.0652
   57MOL   H16919321   0.207   2.251   7.286 -0.0549  1.1184  1.4700
   57MOL   H17019322   0.174   2.224   7.529  0.3526  0.4334 -0.4250
   57MOL   H17119323   0.002   2.071   7.621 -1.7070 -2.7708 -0.1722
   57MOL   C17219324   7.889   1.689   7.560 -0.0106  0.4334  0.4054
   57MOL   C17319325   7.933   1.586   7.662  0.3752  0.4203  0.4271
   57MOL   C17419326   7.921   1.644   7.804  0.3061  0.7377 -0.8798
   57MOL   C17519327   8.028   1.716   7.867 -0.5043  0.0465 -0.0046
   57MOL   C17619328   8.005   1.780   7.988  0.0978  0.6186 -0.1007
   57MOL   C17719329   7.890   1.755   8.067 -0.4414 -0.6157 -0.4474
   57MOL   C17819330   7.790   1.676   8.009 -0.1278  0.0874  0.3286
   57MOL   C17919331   7.801   1.634   7.879  0.3776  0.1618  0.2771
   57MOL   O18019332   8.063   1.551   7.620 -0.1341  0.3470  0.1963
   57MOL   H18119333   7.783   1.715   7.566 -0.1357  0.3175 -0.9917
   57MOL   H18219334   7.879   1.645   7.460 -0.2787 -0.3445  0.7698
   57MOL   H18319335   7.869   1.498   7.651  0.2967  0.3204  1.6010
   57MOL   H18419336   0.045   1.718   7.820  1.0235 -1.0866  2.9844
   57MOL   H18519337   0.012   1.834   8.023  0.5053  0.0473 -0.2229
   57MOL   H18619338   7.887   1.788   0.089  0.8843  1.3488 -1.0214
   57MOL   H18719339   7.702   1.666   8.071  0.8484  2.2637  2.1092
   57MOL   H18819340   7.720   1.577   7.835  2.5126 -3.9815  1.4205
   57MOL   C18919341   0.033   1.426   7.658 -0.2440  1.0889 -0.3599
   57MOL   C19019342   0.145   1.375   7.562  0.0019  0.2272 -0.2727
   57MOL   C19119343   0.154   1.219   7.573  0.6448  0.7320  0.5599
   57MOL   C19219344   0.260   1.161   7.644  0.2070  0.4695 -0.0592
   57MOL   C19319345   0.284   1.024   7.621 -0.5312  1.0002 -0.1627
   57MOL   C19419346   0.194   0.942   7.560  0.7489  1.0241 -0.2292
   57MOL   C19519347   0.086   0.999   7.493  0.9792  0.4571 -0.0178
   57MOL   C19619348   0.064   1.137   7.499  0.1687 -0.2842  1.0922
   57MOL   O19719349   0.261   1.436   7.619 -0.3148 -0.1136  0.4068
   57MOL   H19819350   0.043   1.423   7.766 -0.6505 -0.9543 -0.3552
   57MOL   H19919351   8.037   1.351   7.634 -0.0484  0.9910 -0.6831
   57MOL   H20019352   0.115   1.409   7.463  0.1582  2.6404  0.4670
   57MOL   H20119353   0.335   1.217   7.698 -0.0013  0.2609  0.4547
   57MOL   H20219354   0.360   0.977   7.681 -2.4864 -1.4252  0.5057
   57MOL   H20319355   0.215   0.836   7.550  1.9654  0.9924  2.0718
   57MOL   H20419356   0.020   0.931   7.441  1.5143 -1.5197  1.8174
   57MOL   H20519357   8.064   1.189   7.447  0.5071  0.0719  0.9291
   57MOL   C20619358   0.388   1.442   7.551 -0.7524 -0.2256  0.5134
   57MOL   C20719359   0.399   1.569   7.457  0.0460 -0.6174 -0.6906
   57MOL   C20819360   0.514   1.567   7.358 -0.6730  0.1346 -1.0063
   57MOL   C20919361   0.511   1.464   7.262  0.2467  0.1012 -0.0734
   57MOL   C21019362   0.623   1.447   7.178 -1.0530 -0.3996  0.6382
   57MOL   C21119363   0.728   1.546   7.175 -0.8710 -0.5701  0.3394
   57MOL   C21219364   0.732   1.643   7.279  0.3654 -0.5395 -0.1846
   57MOL   C21319365   0.629   1.639   7.377  0.2734 -0.0577 -0.0202
   57MOL   O21419366   0.404   1.677   7.541 -0.1696  0.0189 -0.1160
   57MOL   H21519367   0.472   1.418   7.616  1.2981  1.1923 -1.5434
   57MOL   H21619368   0.391   1.358   7.482  1.1372  1.2180 -1.2458
   57MOL   H21719369   0.312   1.575   7.392 -0.1368 -3.7121 -0.7879
   57MOL   H21819370   0.428   1.395   7.269  0.5108 -0.2762 -0.5405
   57MOL   H21919371   0.630   1.360   7.114 -1.0224  0.1053 -0.0541
   57MOL   H22019372   0.800   1.536   7.095  0.3418  2.4305  1.0161
   57MOL   H22119373   0.808   1.719   7.287  0.6221 -0.4767 -2.8599
   57MOL   H22219374   0.628   1.711   7.457 -0.7645  0.9215 -0.8852
   57MOL   C22319375   0.310   1.772   7.522  0.2922  0.3339 -0.7211
   57MOL   C22419376   0.360   1.870   7.407 -0.3451  0.1003 -0.9806
   57MOL   C22519377   0.496   1.939   7.439 -0.0681 -0.5601 -0.1486
   57MOL   C22619378   0.536   1.964   7.572 -0.2232  0.1579  0.4137
   57MOL   C22719379   0.654   2.034   7.608  0.3128 -0.3386 -0.3325
   57MOL   C22819380   0.734   2.091   7.510  0.0141  0.4038  0.0656
   57MOL   C22919381   0.706   2.064   7.375  0.0524  0.1385  0.2706
   57MOL   C23019382   0.586   1.990   7.340  0.4999 -0.0693  0.3907
   57MOL   O23119383   0.365   1.806   7.282 -0.0493  0.5157 -0.4316
   57MOL   H23219384   0.216   1.720   7.500 -0.3052 -0.3408  3.1296
   57MOL   H23319385   0.294   1.815   7.621  2.2871  1.1537 -0.7451
   57MOL   H23419386   0.297   1.959   7.407 -0.2683  0.1994 -3.2817
   57MOL   H23519387   0.474   1.928   7.653 -4.7291  3.4192 -1.3366
   57MOL   H23619388   0.679   2.034   7.713  0.5739 -1.0200 -0.3951
   57MOL   H23719389   0.827   2.135   7.543  0.2658 -1.2487  1.6063
   57MOL   H23819390   0.784   2.087   7.303 -0.0116  0.4166  0.2877
   57MOL   H23919391   0.581   1.966   7.235  1.8969 -1.0302  0.5319
   57MOL   C24019392   0.243   1.771   7.214 -0.3921 -0.7496 -0.3962
   57MOL   C24119393   0.263   1.728   7.067 -0.4045 -0.0739 -0.4920
   57MOL   C24219394   0.347   1.829   6.992 -0.4647 -0.9747  0.4427
   57MOL   C24319395   0.490   1.825   6.996 -0.0980  0.1524  0.1727
   57MOL   C24419396   0.568   1.903   6.913 -0.1943  0.1566  0.8184
   57MOL   C24519397   0.509   1.989   6.820  0.7007 -0.1143 -0.4739
   57MOL   C24619398   0.369   2.015   6.832 -0.3325 -0.0302  0.1192
   57MOL   C24719399   0.285   1.935   6.913  0.1845  0.1596  0.3548
   57MOL   O24819400   0.311   1.593   7.072 -0.3300  0.4491  0.2593
   57MOL   H24919401   0.177   1.701   7.265  2.1562 -2.4275  0.6766
   57MOL   H25019402   0.190   1.866   7.213  3.1483  1.3250 -0.9797
   57MOL   H25119403   0.164   1.719   7.024 -1.7805  1.9054  2.0860
   57MOL   H25219404   0.529   1.757   7.069 -2.7857 -1.6107  0.0275
   57MOL   H25319405   0.676   1.891   6.919 -0.0692 -0.1083 -1.4502
   57MOL   H25419406   0.571   2.046   6.752  1.4728 -0.4756 -0.0822
   57MOL   H25519407   0.323   2.100   6.783 -0.4182 -0.3166 -0.2993
   57MOL   H25619408   0.180   1.959   6.906  0.0396 -0.5459  0.0638
   57MOL   C25719409   0.346   1.532   6.948 -0.6598 -0.6063 -0.1230
   57MOL   C25819410   0.223   1.448   6.912 -0.4150  0.2240  0.2071
   57MOL   C25919411   0.253   1.353   6.795  0.1758  0.0207  0.2009
   57MOL   C26019412   0.266   1.406   6.671 -0.4994  0.4424 -0.4846
   57MOL   C26119413   0.308   1.324   6.564  0.0739 -0.0468 -0.5065
   57MOL   C26219414   0.339   1.190   6.584  0.2851  0.3399 -0.3881
   57MOL   C26319415   0.316   1.130   6.710 -0.2877 -0.0513  0.0916
   57MOL   C26419416   0.264   1.212   6.813 -0.3130 -0.0894  0.1266
   57MOL   O26519417   0.110   1.523   6.878 -0.5586 -1.1199  0.2013
   57MOL   H26619418   0.431   1.465   6.965  0.5451  0.6289 -1.1954
   57MOL   H26719419   0.371   1.605   6.871 -0.7115 -0.7298 -0.2574
   57MOL   H26819420   0.209   1.391   7.004  1.4134  0.8667  0.9116
   57MOL   H26919421   0.223   1.502   6.647 -1.9064  0.4140  1.6957
   57MOL   H27019422   0.310   1.356   6.461 -2.8420 -0.0553 -0.5990
   57MOL   H27119423   0.381   1.130   6.505 -2.5686 -0.0818 -1.6089
   57MOL   H27219424   0.341   1.025   6.713 -0.9503 -0.2070  0.1636
   57MOL   H27319425   0.247   1.170   6.911  3.7796 -0.2036  0.8806
   57MOL   C27419426   8.066   1.470   6.923 -0.7316  0.1760 -0.1160
   57MOL   C27519427   7.956   1.543   6.855 -0.6018 -0.1266  0.1488
   57MOL   C27619428   7.967   1.696   6.851  0.8237 -0.0901 -0.6778
   57MOL   C27719429   7.928   1.781   6.954  0.5274  0.2899 -0.4852
   57MOL   C27819430   7.940   1.918   6.948 -0.5675 -0.1359  0.1619
   57MOL   C27919431   7.998   1.980   6.834 -0.4544  0.4253  0.0439
   57MOL   C28019432   8.053   1.896   6.733 -0.4040 -0.0862 -0.0282
   57MOL   C28119433   8.033   1.754   6.738 -0.0095  0.5378  0.2725
   57MOL   O28219434   7.841   1.496   6.903  0.0254  0.0828 -0.6728
   57MOL   H28319435   8.057   1.365   6.899  1.4651 -0.1835  0.5180
   57MOL   H28419436   8.066   1.493   7.030 -0.0226  3.4577 -0.7557
   57MOL   H28519437   7.975   1.518   6.750 -0.5679 -2.4195  0.6911
   57MOL   H28619438   7.883   1.731   7.038 -0.8539 -1.9379 -2.4735
   57MOL   H28719439   7.902   1.980   7.029  1.2409  0.1269  0.8440
   57MOL   H28819440   8.016   2.087   6.832 -0.4494  0.4054 -1.5948
   57MOL   H28919441   0.027   1.934   6.648  1.1011 -1.9094  0.0869
   57MOL   H29019442   8.073   1.696   6.656 -2.9864 -0.0996 -0.7842
   57MOL   C29119443   7.727   1.537   6.831  0.2208 -0.2939  0.6169
   57MOL   C29219444   7.603   1.473   6.891 -0.7402 -0.2874 -0.2325
   57MOL   C29319445   7.469   1.519   6.833  0.7626 -0.1147  0.3712
   57MOL   C29419446   7.355   1.533   6.913  0.6968  0.1986 -0.5914
   57MOL   C29519447   7.231   1.583   6.865  0.3814  0.3887  0.3525
   57MOL   C29619448   7.222   1.614   6.734 -0.4773  0.5770  0.1752
   57MOL   C29719449   7.334   1.602   6.647 -0.0654 -0.2563  0.3504
   57MOL   C29819450   7.459   1.556   6.698  0.2087 -0.4217 -0.5426
   57MOL   O29919451   7.626   1.334   6.877 -0.5213 -0.6847  0.2713
   57MOL   H30019452   7.722   1.499   6.729 -0.9770 -0.8154  0.8492
   57MOL   H30119453   7.716   1.645   6.828 -1.5715 -0.4992 -1.0503
   57MOL   H30219454   7.606   1.486   6.999 -0.3586 -2.3889  0.0300
   57MOL   H30319455   7.369   1.507   7.017  0.0084  1.1053 -0.2607
   57MOL   H30419456   7.139   1.582   6.921  0.0432  2.8239 -0.1002
   57MOL   H30519457   7.129   1.645   6.691  0.7216  2.6124 -1.0222
   57MOL   H30619458   7.334   1.637   6.544 -0.8050  2.2248  1.1723
   57MOL   H30719459   7.539   1.539   6.627 -0.1705 -0.0132 -1.0755
   57MOL   C30819460   7.540   1.244   6.943  0.3255  0.5642 -0.7260
   57MOL   C30919461   7.596   1.104   6.930 -0.5314 -0.3021  0.2386
   57MOL   C31019462   7.746   1.101   6.954  0.8740 -0.7122  0.1445
   57MOL   C31119463   7.797   1.070   7.086  0.4865  0.1767  0.3796
   57MOL   C31219464   7.934   1.046   7.107  0.0412  0.0098  0.1449
   57MOL   C31319465   8.022   1.056   6.997  0.5814  0.3353  0.7288
   57MOL   C31419466   7.977   1.093   6.873  0.7905  0.2761  1.1542
   57MOL   C31519467   7.838   1.113   6.848 -0.4528  0.3617 -0.0114
   57MOL   O31619468   7.523   1.007   6.996 -0.9536 -0.3230 -0.3224
   57MOL   H31719469   7.440   1.246   6.902  0.0945 -0.5509 -0.2390
   57MOL   H31819470   7.527   1.275   7.047 -1.0847  1.2788 -1.1104
   57MOL   H31919471   7.588   1.080   6.824 -0.3548  0.2791  0.0932
   57MOL   H32019472   7.730   1.068   7.171  0.1438 -0.8421  0.0922
   57MOL   H32119473   7.964   1.015   7.206  1.2331 -2.0351 -0.8328
   57MOL   H32219474   0.049   1.046   7.008  0.3393 -1.2812  1.8044
   57MOL   H32319475   8.053   1.091   6.797  0.6771 -2.0223  1.0503
   57MOL   H32419476   7.809   1.130   6.745 -1.0719  3.0237  0.5736
   57MOL   C32519477   7.545   0.874   6.949 -0.3950  0.5129 -1.0064
   57MOL   C32619478   7.525   0.760   7.060 -0.2402 -0.9564  0.0648
   57MOL   C32719479   7.604   0.776   7.190 -0.4666  0.4296 -0.3114
   57MOL   C32819480   7.727   0.708   7.203  0.3808  0.3941 -0.1505
   57MOL   C32919481   7.807   0.730   7.319 -0.8724 -0.4551 -0.6995
   57MOL   C33019482   7.763   0.814   7.424 -0.0020 -0.2098  0.6195
   57MOL   C33119483   7.632   0.870   7.417  0.1978 -0.0486  0.6202
   57MOL   C33219484   7.559   0.851   7.297 -0.9089 -0.0952  0.3303
   57MOL   O33319485   7.389   0.781   7.087  0.4854 -0.0502 -0.3783
   57MOL   H33419486   7.647   0.857   6.916  0.9161  0.6208  2.7529
   57MOL   H33519487   7.483   0.852   6.861 -2.1148  0.4386  0.1847
   57MOL   H33619488   7.540   0.663   7.014 -2.1610 -1.6987  0.9700
   57MOL   H33719489   7.766   0.644   7.126  1.8210  0.1216  0.7952
   57MOL   H33819490   7.899   0.676   7.337 -1.3941 -0.7793  1.1787
   57MOL   H33919491   7.825   0.830   7.511  1.3107  1.0740 -0.5272
   57MOL   H34019492   7.590   0.932   7.495 -3.0837 -0.5614 -0.6771
   57MOL   H34119493   7.464   0.903   7.296  0.0285  1.7850  3.3018
   57MOL   H34219494   7.372   0.874   7.088 -0.0957 -0.1224 -1.7789
   58MOL     C119495   4.748   6.384   5.060  0.3820 -0.3091 -0.3622
   58MOL     C219496   4.668   6.382   4.926 -0.3947 -0.1261  0.5811
   58MOL     C319497   4.726   6.481   4.829  0.5347  0.5053  0.3489
   58MOL     C419498   4.710   6.616   4.848  0.6923 -0.1250  0.6827
   58MOL     C519499   4.774   6.708   4.771 -0.2970 -0.6898  0.0112
   58MOL     C619500   4.864   6.662   4.665 -1.0731  1.1401  0.7464
   58MOL     C719501   4.880   6.521   4.642  0.3538 -0.5179  0.5393
   58MOL     C819502   4.816   6.434   4.731 -0.6561 -0.4540 -0.0802
   58MOL     O919503   4.536   6.414   4.959 -0.3443 -0.7686 -0.0527
   58MOL    H1019504   4.847   6.339   5.063  1.3923  1.8810  0.3647
   58MOL    H1119505   4.753   6.487   5.095 -0.9131 -1.2647  2.7913
   58MOL    H1219506   4.677   6.282   4.882  1.3699  0.0350  0.5290
   58MOL    H1319507   4.644   6.643   4.930 -0.4271 -0.1943 -0.1823
   58MOL    H1419508   4.757   6.813   4.789 -0.0794 -0.3477 -1.7150
   58MOL    H1519509   4.915   6.729   4.597  0.0537  1.7396  2.1740
   58MOL    H1619510   4.946   6.476   4.569  1.2099 -1.8941  2.1098
   58MOL    H1719511   4.847   6.331   4.734  1.4000  0.1657  0.6184
   58MOL    H1819512   4.695   6.331   5.139 -0.5373  0.3051 -0.5489
   58MOL    C1919513   4.434   6.350   4.884 -0.1613 -0.6734  0.1767
   58MOL    C2019514   4.300   6.372   4.953  0.2684  0.2277  0.0794
   58MOL    C2119515   4.188   6.274   4.908  0.0702 -0.2245  0.8257
   58MOL    C2219516   4.168   6.147   4.969 -0.9278 -0.4786 -0.2224
   58MOL    C2319517   4.058   6.066   4.930  0.0795  0.3502  0.3531
   58MOL    C2419518   3.963   6.102   4.832 -0.7245  0.5129  0.3034
   58MOL    C2519519   3.990   6.226   4.767  0.6023 -0.6440  0.0767
   58MOL    C2619520   4.096   6.310   4.809 -0.2031  0.3780 -0.0052
   58MOL    O2719521   4.252   6.507   4.948 -0.1007  0.1359 -0.8488
   58MOL    H2819522   4.423   6.374   4.778  1.3281  1.2270  0.4207
   58MOL    H2919523   4.460   6.244   4.897  1.3286 -0.6691 -2.3678
   58MOL    H3019524   4.323   6.337   5.054  2.5710 -0.4872 -0.6521
   58MOL    H3119525   4.221   6.122   5.060 -1.3567  2.4506  0.8702
   58MOL    H3219526   4.028   5.978   4.984 -0.8800 -0.5419 -1.5877
   58MOL    H3319527   3.874   6.044   4.813  0.6722 -0.9891 -1.9935
   58MOL    H3419528   3.915   6.265   4.701  0.0611  0.4726  1.3385
   58MOL    H3519529   4.098   6.412   4.775  0.9154 -0.0964 -1.3990
   58MOL    C3619530   4.169   6.546   5.062  0.2754  0.1296  0.0270
   58MOL    C3719531   4.210   6.681   5.119  0.1854 -0.4180 -0.8072
   58MOL    C3819532   4.176   6.789   5.016  0.4740 -0.1006  0.0242
   58MOL    C3919533   4.237   6.794   4.884  0.6983  0.3888  0.7604
   58MOL    C4019534   4.194   6.903   4.796  0.7102 -0.2106 -0.2440
   58MOL    C4119535   4.095   6.991   4.837 -0.4033  0.9981  0.6051
   58MOL    C4219536   4.037   6.978   4.964 -0.6017  0.2934 -0.5043
   58MOL    C4319537   4.079   6.882   5.052 -0.1162  0.1985  0.6088
   58MOL    O4419538   4.354   6.676   5.137  0.7469 -0.5561 -0.0796
   58MOL    H4519539   4.062   6.537   5.042  0.0207 -0.3787  1.5794
   58MOL    H4619540   4.181   6.469   5.138 -2.1939 -0.3988 -0.0707
   58MOL    H4719541   4.161   6.706   5.213  1.8637 -1.0686  0.2470
   58MOL    H4819542   4.312   6.728   4.844  1.0126  2.3357 -2.0309
   58MOL    H4919543   4.246   6.910   4.701  1.0375  0.2229 -0.0340
   58MOL    H5019544   4.061   7.065   4.767  0.5670  1.3935  0.5434
   58MOL    H5119545   3.953   7.042   4.986 -0.3013  0.5146  0.0049
   58MOL    H5219546   4.039   6.878   5.152 -4.0591 -1.1293 -0.9419
   58MOL    C5319547   4.412   6.737   5.248 -0.2437 -0.4870 -0.2936
   58MOL    C5419548   4.562   6.738   5.224  0.7137 -0.2410  0.1422
   58MOL    C5519549   4.608   6.844   5.117 -0.6500  0.1655  0.1712
   58MOL    C5619550   4.518   6.915   5.033  0.4687  0.1172 -0.0697
   58MOL    C5719551   4.571   7.002   4.941 -0.3120 -0.0110 -0.1509
   58MOL    C5819552   4.704   7.035   4.930  0.0884 -0.0443 -0.3236
   58MOL    C5919553   4.792   6.967   5.017 -0.4194  0.1777  0.5410
   58MOL    C6019554   4.744   6.875   5.111  0.3846 -0.5687  0.1490
   58MOL    O6119555   4.623   6.762   5.348 -0.2203 -0.1492  0.0763
   58MOL    H6219556   4.362   6.833   5.265  4.0963  2.0979 -1.4547
   58MOL    H6319557   4.382   6.675   5.333  1.3829 -1.7146 -0.6035
   58MOL    H6419558   4.587   6.640   5.185  1.4956 -1.1968  2.9274
   58MOL    H6519559   4.410   6.908   5.031  0.5065 -0.3558 -0.7762
   58MOL    H6619560   4.492   7.046   4.883 -2.0403 -3.1274 -0.2900
   58MOL    H6719561   4.741   7.101   4.854  0.9459 -1.7624 -1.4432
   58MOL    H6819562   4.897   6.986   5.005 -0.3700 -0.4868 -0.0345
   58MOL    H6919563   4.810   6.844   5.191 -0.7518  0.0006  1.3360
   58MOL    C7019564   4.678   6.646   5.409  0.1182  0.0196 -0.7387
   58MOL    C7119565   4.734   6.672   5.555  0.0261 -0.1610  0.5334
   58MOL    C7219566   4.641   6.743   5.653 -0.4866  0.4552  0.2583
   58MOL    C7319567   4.652   6.879   5.679 -0.2769  0.1100 -0.3882
   58MOL    C7419568   4.569   6.937   5.769  0.2740 -0.1984 -1.0323
   58MOL    C7519569   4.472   6.863   5.843 -0.4424 -0.8648  0.3283
   58MOL    C7619570   4.458   6.729   5.812 -0.5073  0.6394  0.2499
   58MOL    C7719571   4.539   6.669   5.716  0.0014  0.1727 -0.4658
   58MOL    O7819572   4.846   6.752   5.535 -0.1296  0.1277 -0.5892
   58MOL    H7919573   4.600   6.570   5.408  1.0227 -1.0094  2.0999
   58MOL    H8019574   4.759   6.604   5.349  0.7967 -0.0894  0.2300
   58MOL    H8119575   4.754   6.576   5.603  1.0182 -0.9749 -1.4487
   58MOL    H8219576   4.729   6.942   5.638 -1.2484  1.4274 -0.2072
   58MOL    H8319577   4.595   7.038   5.795 -1.8734 -0.3537  2.0202
   58MOL    H8419578   4.422   6.918   5.921 -2.2086 -1.2879 -0.4507
   58MOL    H8519579   4.378   6.671   5.856 -0.5573 -1.2765 -2.2427
   58MOL    H8619580   4.516   6.567   5.688 -1.8824  0.5359 -0.3423
   58MOL    C8719581   4.971   6.700   5.578 -0.0123  0.0386  0.0440
   58MOL    C8819582   5.045   6.599   5.481  0.6230  0.0046  0.1117
   58MOL    C8919583   5.059   6.646   5.340 -0.0637 -0.6401 -0.1803
   58MOL    C9019584   5.077   6.783   5.312  0.6561 -0.2529 -0.2344
   58MOL    C9119585   5.068   6.835   5.178  0.0833 -0.2923 -0.3650
   58MOL    C9219586   5.046   6.744   5.077 -0.8382 -0.1964 -0.7243
   58MOL    C9319587   5.040   6.608   5.100 -0.1434  0.4363  0.2102
   58MOL    C9419588   5.051   6.561   5.232  0.7207  0.3067  0.3537
   58MOL    O9519589   4.959   6.483   5.466 -0.1477  0.4575  0.2749
   58MOL    H9619590   4.956   6.655   5.677  1.4042  1.4982  0.9504
   58MOL    H9719591   5.032   6.789   5.594  0.7113 -0.2059 -1.3566
   58MOL    H9819592   5.142   6.568   5.519  1.5106  2.1736 -0.3130
   58MOL    H9919593   5.094   6.858   5.387 -2.0249  0.6170 -0.4591
   58MOL   H10019594   5.083   6.941   5.161  1.0544 -0.4773 -0.6966
   58MOL   H10119595   5.035   6.790   4.980 -1.2623 -1.5092 -1.3084
   58MOL   H10219596   5.024   6.544   5.014 -2.0290  3.6465 -1.9426
   58MOL   H10319597   5.032   6.455   5.243 -1.5643  0.5849 -0.5671
   58MOL   C10419598   4.949   6.382   5.563  0.2398  0.2618 -0.8721
   58MOL   C10519599   5.041   6.268   5.507 -0.4129 -0.1610  0.3792
   58MOL   C10619600   5.040   6.136   5.575 -0.8868  0.1198  0.1347
   58MOL   C10719601   5.164   6.074   5.611 -0.3638  0.4877 -0.0244
   58MOL   C10819602   5.164   5.954   5.683  0.4417  0.0539 -0.5584
   58MOL   C10919603   5.044   5.895   5.723  0.3609 -0.1746 -0.5631
   58MOL   C11019604   4.924   5.955   5.686  0.2731 -0.0045 -0.7450
   58MOL   C11119605   4.921   6.072   5.611  0.4501  0.5692 -0.3367
   58MOL   O11219606   4.994   6.238   5.374 -1.0240 -0.1048  0.0816
   58MOL   H11319607   4.987   6.410   5.662 -1.5222  1.6172 -0.5439
   58MOL   H11419608   4.849   6.341   5.561  0.2507  0.3140 -3.6268
   58MOL   H11519609   5.138   6.316   5.493 -1.9381  2.5097 -1.7350
   58MOL   H11619610   5.255   6.127   5.588  0.3386 -0.4183  0.6273
   58MOL   H11719611   5.261   5.911   5.701  0.1047 -1.1193 -1.4772
   58MOL   H11819612   5.041   5.799   5.772  2.5170 -0.5084 -1.0153
   58MOL   H11919613   4.828   5.917   5.717 -0.3951  2.5265  0.4554
   58MOL   H12019614   4.830   6.130   5.603  0.0907  0.4871  2.5077
   58MOL   C12119615   5.089   6.186   5.280  0.3124 -1.1534  0.3319
   58MOL   C12219616   5.049   6.046   5.228  0.2037  0.0028 -0.6401
   58MOL   C12319617   4.947   6.046   5.114  0.1098  0.3131 -0.1389
   58MOL   C12419618   4.978   6.005   4.985 -0.5077  0.5151 -0.6228
   58MOL   C12519619   4.875   5.978   4.894 -0.3134  0.4431  0.2720
   58MOL   C12619620   4.739   5.986   4.933 -1.3057  0.0342 -0.1478
   58MOL   C12719621   4.710   6.037   5.057 -0.3874 -0.0485  0.0084
   58MOL   C12819622   4.810   6.064   5.152  0.0280  0.0016  0.1719
   58MOL   O12919623   5.161   5.973   5.186 -0.9412  0.1692  0.4367
   58MOL   H13019624   5.188   6.189   5.327  0.2517 -0.1501  0.4141
   58MOL   H13119625   5.090   6.259   5.199 -3.6680 -0.7106  0.6215
   58MOL   H13219626   4.998   5.988   5.305  2.9634 -1.6493 -0.0168
   58MOL   H13319627   5.080   5.986   4.954 -0.2176 -0.8639  1.1107
   58MOL   H13419628   4.906   5.955   4.793 -0.7896 -3.1298  0.8776
   58MOL   H13519629   4.660   5.955   4.867 -1.9362  1.7829 -0.2343
   58MOL   H13619630   4.608   6.053   5.089 -0.5487 -0.3299 -0.3701
   58MOL   H13719631   4.798   6.105   5.251  0.3042  1.7494 -0.4922
   58MOL   C13819632   5.208   5.856   5.255 -0.1017 -0.2412 -0.5273
   58MOL   C13919633   5.313   5.774   5.187  1.0766 -0.2180 -0.3557
   58MOL   C14019634   5.280   5.770   5.044 -0.3996  0.6192  0.8418
   58MOL   C14119635   5.168   5.694   5.004  0.0187 -0.4454  0.9733
   58MOL   C14219636   5.139   5.683   4.870  0.1978  0.1924  0.1497
   58MOL   C14319637   5.217   5.749   4.770 -0.1095 -0.0082 -0.3537
   58MOL   C14419638   5.329   5.823   4.811  0.1432  0.2576 -0.2859
   58MOL   C14519639   5.358   5.838   4.944 -0.1885 -0.0413  0.0562
   58MOL   O14619640   5.440   5.816   5.198  0.0308 -0.4554 -0.1043
   58MOL   H14719641   5.116   5.798   5.264 -0.2294 -0.2857 -1.9208
   58MOL   H14819642   5.242   5.879   5.356  0.7134 -2.4056 -0.2772
   58MOL   H14919643   5.312   5.669   5.218  2.8179 -0.0406  0.3325
   58MOL   H15019644   5.102   5.649   5.076 -1.4689  1.8324  1.0681
   58MOL   H15119645   5.050   5.626   4.845  0.1812 -0.2233  1.1321
   58MOL   H15219646   5.200   5.744   4.663 -0.7836  0.8934 -0.2881
   58MOL   H15319647   5.384   5.883   4.741  0.5389 -0.0001 -0.1953
   58MOL   H15419648   5.444   5.893   4.979 -1.1915  0.3556  1.9911
   58MOL   C15519649   5.505   5.803   5.328  0.6765 -0.1112 -0.6865
   58MOL   C15619650   5.647   5.856   5.333  0.4363  0.5148  0.1373
   58MOL   C15719651   5.695   5.901   5.476 -1.1304  0.8144 -0.0499
   58MOL   C15819652   5.825   5.959   5.485  0.0747 -0.0457  0.2764
   58MOL   C15919653   5.876   6.002   5.606 -0.0016 -0.2222  0.1671
   58MOL   C16019654   5.797   6.000   5.724 -0.0590  0.3035 -1.3642
   58MOL   C16119655   5.663   5.946   5.713 -0.4141 -0.2357 -0.1216
   58MOL   C16219656   5.614   5.897   5.593 -0.7956  0.3554 -0.6234
   58MOL   O16319657   5.734   5.754   5.290 -0.1321  0.3071  0.2989
   58MOL   H16419658   5.509   5.699   5.359  0.3839  0.1419  0.2144
   58MOL   H16519659   5.438   5.855   5.396 -0.9814 -0.7829 -1.7664
   58MOL   H16619660   5.653   5.943   5.267  0.1593  0.0744 -0.4681
   58MOL   H16719661   5.898   5.963   5.405  1.0184 -0.8408  1.0943
   58MOL   H16819662   5.978   6.036   5.614  0.2233 -0.2685 -2.0175
   58MOL   H16919663   5.829   6.026   5.823 -1.9037  1.2249 -1.0119
   58MOL   H17019664   5.612   5.952   5.808  1.1417  0.7532  0.6947
   58MOL   H17119665   5.520   5.843   5.593  0.5410 -2.0806  0.8020
   58MOL   C17219666   5.736   5.723   5.151  0.3434 -0.4976 -0.0248
   58MOL   C17319667   5.842   5.616   5.103  0.5108 -0.3380 -0.4537
   58MOL   C17419668   5.958   5.683   5.031 -0.6011 -0.5874 -0.1540
   58MOL   C17519669   6.054   5.761   5.095 -0.1749  0.3428 -0.2852
   58MOL   C17619670   6.171   5.814   5.032  0.7194  0.1141  1.0293
   58MOL   C17719671   6.194   5.776   4.897  0.0822  0.4557  0.6324
   58MOL   C17819672   6.088   5.714   4.819 -0.4192  0.3556 -0.8809
   58MOL   C17919673   5.973   5.670   4.889  0.7829  0.3430  0.8355
   58MOL   O18019674   5.797   5.502   5.027 -0.1520 -0.0058  0.7977
   58MOL   H18119675   5.633   5.692   5.131 -0.3862  0.5845  1.8963
   58MOL   H18219676   5.748   5.815   5.094  1.7101 -1.0712 -0.6741
   58MOL   H18319677   5.889   5.578   5.194 -2.3349 -0.5428  0.9923
   58MOL   H18419678   6.040   5.778   5.201 -0.3273 -0.2811 -0.2037
   58MOL   H18519679   6.244   5.879   5.080  1.3411  0.3612 -0.2155
   58MOL   H18619680   6.287   5.805   4.850  0.4353  1.2417  1.8065
   58MOL   H18719681   6.093   5.677   4.718 -0.1785 -3.1272  0.3368
   58MOL   H18819682   5.901   5.608   4.836  0.2798  1.5536  0.0891
   58MOL   C18919683   5.722   5.409   5.110  0.1956 -0.8999  0.8011
   58MOL   C19019684   5.678   5.285   5.032  0.3141 -0.2333 -0.1297
   58MOL   C19119685   5.606   5.311   4.903  0.7045 -0.3941  0.1940
   58MOL   C19219686   5.623   5.212   4.798  0.7227  0.0798  0.7953
   58MOL   C19319687   5.550   5.237   4.672 -0.4018  0.0879  0.6726
   58MOL   C19419688   5.473   5.357   4.652 -0.4176 -0.2674  0.2966
   58MOL   C19519689   5.472   5.451   4.759 -0.3132 -0.5889  0.2811
   58MOL   C19619690   5.531   5.424   4.883  0.0335  0.1523  0.1944
   58MOL   O19719691   5.594   5.213   5.127  0.2945 -0.3135 -0.0518
   58MOL   H19819692   5.782   5.377   5.194  0.7053  2.5810  1.8610
   58MOL   H19919693   5.641   5.464   5.159 -0.6051 -2.0684  0.8176
   58MOL   H20019694   5.772   5.241   4.999 -0.3432  0.2697 -2.8011
   58MOL   H20119695   5.686   5.123   4.799 -0.4080 -0.7323  0.6939
   58MOL   H20219696   5.558   5.160   4.597  0.0320 -0.1684  0.9763
   58MOL   H20319697   5.409   5.369   4.565  0.2356 -0.6695 -0.2415
   58MOL   H20419698   5.422   5.547   4.752  0.5223  0.0839  2.9497
   58MOL   H20519699   5.520   5.499   4.960 -2.1533 -1.2674  1.2934
   58MOL   C20619700   5.603   5.074   5.113 -0.8145  0.0617 -0.1376
   58MOL   C20719701   5.740   4.995   5.111  0.3399  0.0672  0.8061
   58MOL   C20819702   5.830   5.034   5.225  0.0346  1.1154 -0.9596
   58MOL   C20919703   5.787   4.997   5.356  0.2541 -0.0303 -0.0917
   58MOL   C21019704   5.864   5.034   5.468 -0.4629  0.0114 -0.1510
   58MOL   C21119705   5.984   5.100   5.447 -0.2518 -0.3437 -0.1464
   58MOL   C21219706   6.028   5.136   5.318  0.4020 -0.1300 -0.9354
   58MOL   C21319707   5.950   5.106   5.207  0.5975  0.1959 -0.1599
   58MOL   O21419708   5.796   5.008   4.983  0.0657 -0.7316  0.1271
   58MOL   H21519709   5.533   5.040   5.188 -1.7972  3.2436  0.4907
   58MOL   H21619710   5.557   5.051   5.017  2.1380  0.0055 -1.6180
   58MOL   H21719711   5.708   4.892   5.120 -1.7205  0.7189  0.9940
   58MOL   H21819712   5.693   4.951   5.384  0.8671 -0.1659  1.8286
   58MOL   H21919713   5.830   5.008   5.568  0.6730 -1.2667 -0.0767
   58MOL   H22019714   6.033   5.127   5.539  1.3182 -0.0098 -1.0459
   58MOL   H22119715   6.124   5.185   5.309  0.7764 -0.7096 -0.1698
   58MOL   H22219716   5.976   5.137   5.107 -0.6690 -0.0689 -0.5868
   58MOL   C22319717   5.899   4.905   4.961  0.4520  0.7244 -0.5399
   58MOL   C22419718   5.856   4.811   4.847 -0.2053  0.1458 -0.1795
   58MOL   C22519719   5.969   4.745   4.773 -0.4562  0.6597  0.2544
   58MOL   C22619720   6.063   4.664   4.838 -1.0440  0.4533  0.3936
   58MOL   C22719721   6.161   4.597   4.768 -0.0364  0.5576  0.6799
   58MOL   C22819722   6.176   4.610   4.630  0.4500  0.3205  0.2965
   58MOL   C22919723   6.084   4.690   4.563  0.1256  0.2163 -0.0986
   58MOL   C23019724   5.981   4.757   4.633  0.1074  0.1530  0.3532
   58MOL   O23119725   5.758   4.717   4.901 -0.7199  0.1143  0.0697
   58MOL   H23219726   5.988   4.964   4.939  2.3738 -1.5164  0.9475
   58MOL   H23319727   5.926   4.837   5.042  1.6592  2.8300  0.8860
   58MOL   H23419728   5.811   4.877   4.774  1.4818 -0.5754 -1.9005
   58MOL   H23519729   6.057   4.646   4.945 -1.0723 -2.1220 -0.0156
   58MOL   H23619730   6.215   4.524   4.827 -1.7492  0.4283  2.1332
   58MOL   H23719731   6.255   4.566   4.571  2.1570  1.8669  1.3894
   58MOL   H23819732   6.096   4.717   4.459 -1.7179 -1.4606 -0.7791
   58MOL   H23919733   5.915   4.822   4.576  1.1638  0.0588 -0.9944
   58MOL   C24019734   5.649   4.697   4.817 -0.1205 -0.5641 -0.4012
   58MOL   C24119735   5.550   4.605   4.880  0.6738  0.1027  0.4161
   58MOL   C24219736   5.409   4.626   4.815  0.4045 -0.0736  0.4590
   58MOL   C24319737   5.323   4.716   4.880 -0.0709  0.3171 -1.2433
   58MOL   C24419738   5.190   4.728   4.836  0.3556 -0.4764  0.4355
   58MOL   C24519739   5.146   4.652   4.727 -0.0653  0.3003  0.0311
   58MOL   C24619740   5.234   4.560   4.663 -0.6064  0.0719  0.3443
   58MOL   C24719741   5.369   4.557   4.699 -0.3401  0.0139 -0.2592
   58MOL   O24819742   5.590   4.476   4.859 -0.1160  0.2911  0.2845
   58MOL   H24919743   5.598   4.792   4.803  1.8493  0.4408 -0.8666
   58MOL   H25019744   5.682   4.668   4.717 -0.9720  5.0120 -2.4761
   58MOL   H25119745   5.541   4.632   4.985 -0.6304 -0.5579  0.4799
   58MOL   H25219746   5.362   4.766   4.967  0.5220  0.5028 -1.6152
   58MOL   H25319747   5.123   4.796   4.887  0.7811  1.2480 -1.2493
   58MOL   H25419748   5.045   4.666   4.693  1.0066  0.3832 -3.2500
   58MOL   H25519749   5.196   4.490   4.590  1.0583  1.2396 -1.6924
   58MOL   H25619750   5.435   4.492   4.645  1.0158  1.3399 -0.2236
   58MOL   C25719751   5.693   4.437   4.952 -0.3823  0.1140  0.6055
   58MOL   C25819752   5.748   4.302   4.916 -0.1762 -0.1256 -0.2449
   58MOL   C25919753   5.814   4.303   4.784 -0.5319  0.3100 -0.0996
   58MOL   C26019754   5.742   4.335   4.668  0.4646 -0.5421 -0.7225
   58MOL   C26119755   5.799   4.350   4.540 -0.3319 -0.2256  0.2305
   58MOL   C26219756   5.937   4.333   4.536 -0.6596 -0.4336 -0.6085
   58MOL   C26319757   6.014   4.299   4.644  0.2575  0.5344 -0.3583
   58MOL   C26419758   5.955   4.285   4.771 -0.8826 -0.2669 -0.4210
   58MOL   O26519759   5.653   4.195   4.932  0.0126 -0.4017  0.3563
   58MOL   H26619760   5.649   4.437   5.052  1.2312 -1.6262  1.3433
   58MOL   H26719761   5.776   4.507   4.962 -0.9511  1.1815 -1.7117
   58MOL   H26819762   5.818   4.281   4.997 -0.2009  0.8852  0.0411
   58MOL   H26919763   5.636   4.352   4.682  1.1250  1.7583  1.7411
   58MOL   H27019764   5.738   4.363   4.452 -1.6398 -1.7283  0.8808
   58MOL   H27119765   5.990   4.337   4.442  3.4549  1.8376  1.6998
   58MOL   H27219766   6.122   4.293   4.642  0.2747  1.1015 -2.0810
   58MOL   H27319767   6.018   4.249   4.852 -0.0732 -0.2739 -1.0522
   58MOL   C27419768   5.706   4.066   4.944 -0.8925 -0.3517 -0.0161
   58MOL   C27519769   5.691   4.022   5.093 -0.4235 -1.1897  0.1676
   58MOL   C27619770   5.553   4.005   5.146  0.3205 -0.1217 -0.1061
   58MOL   C27719771   5.477   3.902   5.099  0.4398 -1.0644  0.0107
   58MOL   C27819772   5.344   3.882   5.146 -0.5082  0.3507  0.4341
   58MOL   C27919773   5.298   3.963   5.247  0.4019 -0.6079  0.0854
   58MOL   C28019774   5.378   4.066   5.303 -0.2517 -0.4482 -0.4503
   58MOL   C28119775   5.507   4.086   5.253  0.9403  0.4111  0.1052
   58MOL   O28219776   5.772   4.111   5.173 -0.2400  0.1764  0.1100
   58MOL   H28319777   5.645   4.001   4.880 -0.5379 -0.4237 -0.2830
   58MOL   H28419778   5.806   4.063   4.900 -0.0911  1.4693  1.6294
   58MOL   H28519779   5.744   3.926   5.093  0.5657 -0.6564  0.0992
   58MOL   H28619780   5.516   3.842   5.018  0.6913 -0.3595 -0.3952
   58MOL   H28719781   5.289   3.798   5.105 -0.1757  0.2913  0.1027
   58MOL   H28819782   5.197   3.957   5.287  0.6076 -0.0558  0.7069
   58MOL   H28919783   5.339   4.136   5.376 -1.3510  0.1825 -1.6163
   58MOL   H29019784   5.564   4.174   5.279  3.2883 -0.2803 -2.3584
   58MOL   C29119785   5.840   4.059   5.288  0.2837 -0.0411 -0.2737
   58MOL   C29219786   5.986   4.029   5.259  0.9585 -0.1078  0.5266
   58MOL   C29319787   6.069   4.009   5.381 -0.5257  0.1929  0.0113
   58MOL   C29419788   6.141   3.891   5.401 -0.6075  0.2206  0.1329
   58MOL   C29519789   6.218   3.871   5.516 -0.0909  0.8838  0.7225
   58MOL   C29619790   6.234   3.979   5.600 -0.4491 -0.1679 -0.1181
   58MOL   C29719791   6.159   4.099   5.591  0.5371 -0.5420  0.0625
   58MOL   C29819792   6.079   4.108   5.478  0.6238  0.0068  0.4571
   58MOL   O29919793   5.991   3.914   5.174 -0.2275 -0.1840 -0.3929
   58MOL   H30019794   5.789   3.969   5.323  0.5120  0.3857  1.1766
   58MOL   H30119795   5.833   4.130   5.370  0.6949 -0.9410  0.5451
   58MOL   H30219796   6.031   4.113   5.206  0.7097 -0.5571 -0.4208
   58MOL   H30319797   6.129   3.810   5.329 -0.4670 -0.7982  1.2403
   58MOL   H30419798   6.279   3.782   5.531  0.1096  0.8158 -0.4410
   58MOL   H30519799   6.289   3.960   5.691  0.6215  0.2079 -0.6758
   58MOL   H30619800   6.170   4.173   5.669  1.4444  0.5952 -1.1215
   58MOL   H30719801   6.024   4.200   5.468  1.2451  0.2329 -1.1457
   58MOL   C30819802   6.057   3.929   5.050 -0.7415  0.5713  0.2301
   58MOL   C30919803   6.046   3.786   4.985  0.1986 -0.0377 -0.3302
   58MOL   C31019804   6.044   3.803   4.831  0.1147  0.1684  0.3555
   58MOL   C31119805   5.921   3.798   4.759 -0.0142  0.9279  0.4697
   58MOL   C31219806   5.916   3.838   4.622 -0.5922  0.3492  0.0391
   58MOL   C31319807   6.031   3.891   4.557  0.3510 -0.0767 -0.0820
   58MOL   C31419808   6.157   3.879   4.624 -0.5352  0.8212 -0.1130
   58MOL   C31519809   6.156   3.844   4.764  0.3736  0.0903  0.1248
   58MOL   O31619810   6.156   3.710   5.043  0.3322 -0.5339  0.2779
   58MOL   H31719811   6.159   3.961   5.067 -1.3671  3.5459 -1.2136
   58MOL   H31819812   6.011   3.997   4.978  1.6395  1.6185 -0.3394
   58MOL   H31919813   5.949   3.744   5.013  0.9463  0.4684  3.2506
   58MOL   H32019814   5.836   3.763   4.817 -0.9440  0.6730 -1.0169
   58MOL   H32119815   5.825   3.837   4.565 -0.4032 -1.8159 -0.2917
   58MOL   H32219816   6.033   3.917   4.452 -0.8407  0.2692 -0.0284
   58MOL   H32319817   6.244   3.905   4.567 -0.1165 -0.5425 -0.1135
   58MOL   H32419818   6.251   3.838   4.816  0.6767  1.2519 -0.2707
   58MOL   C32519819   6.186   3.583   4.984  0.1905 -0.1745 -0.2856
   58MOL   C32619820   6.312   3.537   5.050 -0.5487 -0.0386 -0.5173
   58MOL   C32719821   6.438   3.614   5.016 -0.7796  0.4107  0.0406
   58MOL   C32819822   6.533   3.546   4.942 -0.0777 -0.0375  0.9018
   58MOL   C32919823   6.656   3.608   4.911  0.0751  0.5523 -0.2934
   58MOL   C33019824   6.676   3.745   4.949  0.4768 -0.2864  0.1497
   58MOL   C33119825   6.582   3.806   5.029  0.2127 -0.1411 -0.1764
   58MOL   C33219826   6.464   3.741   5.062 -0.1468  0.5428  0.5734
   58MOL   O33319827   6.298   3.529   5.187  0.0302  0.0993  0.2276
   58MOL   H33419828   6.202   3.600   4.878 -2.2737  0.4001 -0.5881
   58MOL   H33519829   6.108   3.510   5.007 -0.2730 -0.6814 -3.3262
   58MOL   H33619830   6.322   3.429   5.040 -2.1652 -0.0976 -1.6270
   58MOL   H33719831   6.504   3.445   4.917  0.4937 -0.5474  2.2547
   58MOL   H33819832   6.725   3.555   4.847  2.1600  1.1984  1.3513
   58MOL   H33919833   6.771   3.793   4.930  2.1303 -2.4067  2.5608
   58MOL   H34019834   6.608   3.902   5.071  1.6724  0.1612 -1.7152
   58MOL   H34119835   6.385   3.785   5.121 -3.7049 -1.0836 -2.7801
   58MOL   H34219836   6.263   3.611   5.218  0.9984 -0.4478  2.9273
   59MOL     C119837   7.523   7.399   4.190  0.3549  0.6068 -0.2072
   59MOL     C219838   7.381   7.379   4.135  0.7455  0.2988  0.5297
   59MOL     C319839   7.283   7.376   4.246  0.4651  0.4742 -0.5153
   59MOL     C419840   7.205   7.491   4.271 -0.2905 -0.4537 -0.2490
   59MOL     C519841   7.107   7.494   4.371  0.1004  0.4366 -0.1851
   59MOL     C619842   7.090   7.394   4.464  0.2411 -0.1184  0.6461
   59MOL     C719843   7.171   7.282   4.442 -0.0127 -0.2771  0.1586
   59MOL     C819844   7.266   7.268   4.338 -0.3054  0.0602 -0.2699
   59MOL     O919845   7.374   7.266   4.055 -0.7720  0.0978 -0.0194
   59MOL    H1019846   7.528   7.496   4.239 -1.4767  0.8858 -0.5245
   59MOL    H1119847   7.558   7.318   4.254 -0.1173  1.0050  0.5608
   59MOL    H1219848   7.361   7.467   4.075 -4.8487 -0.6475  0.7689
   59MOL    H1319849   7.224   7.569   4.198 -0.9186  1.0722  1.2037
   59MOL    H1419850   7.060   7.591   4.380  1.6890  1.2110  0.0782
   59MOL    H1519851   7.023   7.407   4.548  0.0347  0.5686  0.3754
   59MOL    H1619852   7.150   7.194   4.501 -0.3688 -0.3057 -0.0083
   59MOL    H1719853   7.320   7.177   4.318  0.4549 -0.4120  3.5819
   59MOL    H1819854   7.584   7.408   4.100  0.1822 -2.3142 -0.6761
   59MOL    C1919855   7.246   7.238   4.000  0.2710  0.0808  0.0412
   59MOL    C2019856   7.218   7.340   3.884 -0.4535  0.7913 -0.2612
   59MOL    C2119857   7.332   7.356   3.782  0.6950 -0.4069 -0.5481
   59MOL    C2219858   7.341   7.258   3.683 -0.2563 -0.2875 -0.8456
   59MOL    C2319859   7.441   7.278   3.582  0.2688 -0.3767  0.6595
   59MOL    C2419860   7.528   7.392   3.581 -0.2641  0.3548 -0.3267
   59MOL    C2519861   7.519   7.484   3.686  0.5894 -0.3064 -0.3017
   59MOL    C2619862   7.425   7.465   3.789  0.4881 -0.1801  0.3192
   59MOL    O2719863   7.168   7.459   3.926 -0.1652 -0.2167 -0.3711
   59MOL    H2819864   7.254   7.139   3.954 -1.9632  0.4196 -1.1532
   59MOL    H2919865   7.168   7.216   4.072  0.0766  0.0449 -0.1808
   59MOL    H3019866   7.133   7.306   3.824  0.0892 -2.5732  0.7411
   59MOL    H3119867   7.271   7.177   3.667 -1.5314  0.9065 -1.4837
   59MOL    H3219868   7.427   7.222   3.491  1.0334 -0.9586  0.8941
   59MOL    H3319869   7.597   7.392   3.497 -1.2178 -2.0329 -1.1595
   59MOL    H3419870   7.580   7.573   3.685  1.2267 -0.7414 -0.8582
   59MOL    H3519871   7.420   7.536   3.870 -0.1342  0.4602 -0.2707
   59MOL    C3619872   7.023   7.472   3.951 -0.0528 -0.0077 -0.0272
   59MOL    C3719873   6.961   7.616   3.941 -0.4228 -0.5116  0.0556
   59MOL    C3819874   6.975   7.696   4.069 -0.1035  0.1147  0.4094
   59MOL    C3919875   7.083   7.787   4.094  0.4101  0.0522  0.0352
   59MOL    C4019876   7.100   7.838   4.222 -0.1107  0.1599  0.1567
   59MOL    C4119877   6.992   7.834   4.311  0.1803 -0.4144  0.3124
   59MOL    C4219878   6.875   7.761   4.276 -0.1517 -0.7170 -0.3328
   59MOL    C4319879   6.878   7.678   4.165 -0.1989  0.1590  0.2956
   59MOL    O4419880   6.822   7.607   3.900  0.2536  0.1007  0.4556
   59MOL    H4519881   6.971   7.414   3.875  1.6789 -1.2284 -0.3228
   59MOL    H4619882   6.990   7.431   4.045  0.4138  2.3496  1.2145
   59MOL    H4719883   7.010   7.673   3.863  1.7437 -1.9096  0.3462
   59MOL    H4819884   7.158   7.809   4.019  0.7438  2.6837  1.0792
   59MOL    H4919885   7.180   7.908   4.244 -1.4989  2.4317 -1.7405
   59MOL    H5019886   7.007   7.888   4.403 -0.9178 -0.5929  0.6034
   59MOL    H5119887   6.784   7.758   4.334 -0.4480  1.6935 -0.6284
   59MOL    H5219888   6.787   7.624   4.142  1.1480 -2.6443  1.2939
   59MOL    C5319889   6.794   7.629   3.756 -0.5432  0.2546  0.5611
   59MOL    C5419890   6.771   7.782   3.726 -0.2577  0.4644  0.4185
   59MOL    C5519891   6.659   7.852   3.804  0.0122  0.3240  0.1636
   59MOL    C5619892   6.689   7.893   3.935  0.0097 -0.0577 -0.3799
   59MOL    C5719893   6.581   7.940   4.020  0.3666  0.4308  0.4743
   59MOL    C5819894   6.451   7.938   3.971 -0.0935  0.3145 -0.6242
   59MOL    C5919895   6.428   7.904   3.837 -0.1161  0.1072 -0.6475
   59MOL    C6019896   6.530   7.857   3.756  0.7816  0.0316 -0.0383
   59MOL    O6119897   6.894   7.846   3.749 -0.2393  0.1874  0.4842
   59MOL    H6219898   6.866   7.592   3.683 -0.5081 -0.8474  1.1434
   59MOL    H6319899   6.700   7.573   3.746 -1.5129  1.8223  0.6815
   59MOL    H6419900   6.746   7.787   3.620 -0.0939 -0.2971  0.3372
   59MOL    H6519901   6.789   7.882   3.973 -0.4666  0.9427  1.2034
   59MOL    H6619902   6.609   7.985   4.114  0.2959 -0.5884  0.9943
   59MOL    H6719903   6.366   7.972   4.028  1.1094  1.4391  0.5142
   59MOL    H6819904   6.328   7.910   3.796  0.1159 -0.5919 -1.3341
   59MOL    H6919905   6.513   7.816   3.657 -1.0623  2.5626 -0.8192
   59MOL    C7019906   6.922   7.973   3.697  0.0569 -0.3319 -0.2821
   59MOL    C7119907   7.068   7.978   3.638  0.9427  0.4202 -0.5140
   59MOL    C7219908   7.101   7.856   3.561 -0.4940  0.1285 -0.6401
   59MOL    C7319909   7.167   7.746   3.629  0.2026  0.3835 -0.2077
   59MOL    C7419910   7.205   7.628   3.555 -0.0296 -0.2302 -0.0515
   59MOL    C7519911   7.170   7.618   3.421  0.0999  0.1488 -0.0301
   59MOL    C7619912   7.107   7.726   3.354  0.1860  0.1477 -0.5083
   59MOL    C7719913   7.076   7.843   3.426 -0.6835  0.5554 -0.2121
   59MOL    O7819914   7.164   8.007   3.738  0.0265 -0.1984 -0.0706
   59MOL    H7919915   6.851   8.002   3.620  0.8749 -1.0871 -1.3340
   59MOL    H8019916   6.916   8.055   3.769  0.0136  2.0254 -2.8661
   59MOL    H8119917   7.069   8.068   3.576  0.2933  0.0682 -1.0473
   59MOL    H8219918   7.197   7.755   3.732 -1.3186  1.9502  0.1260
   59MOL    H8319919   7.242   7.540   3.604  1.0231 -0.4571 -1.2497
   59MOL    H8419920   7.203   7.531   3.365 -0.8780 -0.0629 -0.2792
   59MOL    H8519921   7.078   7.720   3.250 -0.0375  2.4494 -0.6112
   59MOL    H8619922   7.035   7.924   3.368 -2.0994 -1.3619 -1.9761
   59MOL    C8719923   7.269   0.029   3.715  0.7855 -0.1461  0.3931
   59MOL    C8819924   7.408   8.051   3.765 -0.1315  0.1994  0.3548
   59MOL    C8919925   7.409   8.020   3.911  0.2471  0.1720 -0.6230
   59MOL    C9019926   7.431   7.884   3.952 -0.6200  0.2579  0.3027
   59MOL    C9119927   7.448   7.854   4.087  0.2731 -0.0421  0.3303
   59MOL    C9219928   7.437   7.958   4.181  0.7234  0.8631 -0.8377
   59MOL    C9319929   7.410   0.010   4.136 -0.2627  0.1678 -0.0136
   59MOL    C9419930   7.395   0.037   4.002 -0.1919  0.1188 -0.5253
   59MOL    O9519931   7.507   0.070   3.741  0.3055 -0.2530 -0.2241
   59MOL    H9619932   7.244   0.121   3.766  1.3464 -0.5128  1.3347
   59MOL    H9719933   7.275   0.040   3.607  0.1535 -0.1471  0.3555
   59MOL    H9819934   7.428   7.959   3.709 -1.2079 -0.4976  1.1017
   59MOL    H9919935   7.431   7.804   3.879  0.9311 -1.2188  1.8847
   59MOL   H10019936   7.459   7.752   4.122  1.7225  0.1997  0.6192
   59MOL   H10119937   7.457   7.935   4.285 -0.7924  1.1937 -0.4590
   59MOL   H10219938   7.390   0.091   4.205  1.1810  0.0077  0.6099
   59MOL   H10319939   7.374   0.138   3.968 -1.1166 -0.2331 -0.9897
   59MOL   C10419940   7.637   0.016   3.755  1.0875 -0.2659  0.0056
   59MOL   C10519941   7.746   0.114   3.712  0.3502  0.2180 -0.2778
   59MOL   C10619942   7.741   0.254   3.781 -0.0489 -0.8624  0.3219
   59MOL   C10719943   7.659   0.357   3.738  0.0214 -0.8286 -0.3079
   59MOL   C10819944   7.656   0.490   3.791  0.2964  0.4751  0.1850
   59MOL   C10919945   7.734   0.514   3.900 -0.3762 -0.7079 -0.1603
   59MOL   C11019946   7.814   0.412   3.957  1.0618 -0.2894 -0.4585
   59MOL   C11119947   7.820   0.282   3.898  0.6110  0.9319 -0.1789
   59MOL   O11219948   7.879   0.055   3.729  0.5005 -0.4949  0.0338
   59MOL   H11319949   7.655   8.071   3.859  0.3508  0.9874  0.4509
   59MOL   H11419950   7.664   8.005   3.701  2.7944  0.6443 -0.7006
   59MOL   H11519951   7.735   0.140   3.606  1.2404 -0.6257 -0.5878
   59MOL   H11619952   7.598   0.327   3.655 -2.0685  1.8021  0.2193
   59MOL   H11719953   7.584   0.556   3.743 -0.7208  0.0151  1.0522
   59MOL   H11819954   7.722   0.607   3.954 -0.0047 -1.6879  1.6538
   59MOL   H11919955   7.875   0.438   4.042 -0.1446  0.2452  0.2489
   59MOL   H12019956   7.881   0.202   3.938  0.1681  2.0567  2.9274
   59MOL   C12119957   7.979   0.119   3.655 -0.1157  0.3948 -0.6522
   59MOL   C12219958   8.026   0.031   3.530 -0.3285 -0.0748  0.4702
   59MOL   C12319959   8.057   7.965   3.577 -0.2316 -0.5163 -0.1223
   59MOL   C12419960   0.110   7.941   3.609  0.2027  0.3180  0.5535
   59MOL   C12519961   0.148   7.806   3.643  0.2205 -0.7239 -0.0374
   59MOL   C12619962   0.053   7.701   3.654  0.0733 -0.7317  0.1532
   59MOL   C12719963   7.997   7.729   3.634  0.0513  0.7530  0.5046
   59MOL   C12819964   7.961   7.862   3.589 -0.5901 -0.3303  0.0012
   59MOL   O12919965   7.935   0.048   3.426 -0.2229  0.9485 -0.6020
   59MOL   H13019966   8.070   0.133   3.714 -0.5492  0.2092  0.0670
   59MOL   H13119967   7.960   0.220   3.621  1.1427  0.8157 -0.1533
   59MOL   H13219968   0.031   0.090   3.497 -2.1964  2.5212  0.1888
   59MOL   H13319969   0.186   8.013   3.580  0.6110  0.3575  1.6828
   59MOL   H13419970   0.253   7.782   3.644  0.3434 -0.1866 -0.1853
   59MOL   H13519971   0.096   7.605   3.676 -2.4577 -2.3398 -1.6906
   59MOL   H13619972   7.920   7.655   3.650  0.2414  0.3409 -0.4744
   59MOL   H13719973   7.858   7.881   3.563 -0.6083 -0.9597 -0.4030
   59MOL   C13819974   7.961   8.046   3.309  0.1896  0.0669 -0.7021
   59MOL   C13919975   7.840   8.050   3.213 -0.6926  0.6271 -0.0595
   59MOL   C14019976   7.713   8.003   3.280 -0.2605 -0.5230 -0.2187
   59MOL   C14119977   7.680   7.866   3.275 -0.2748 -1.0279  0.1925
   59MOL   C14219978   7.560   7.820   3.322  0.3610  0.5950  0.2650
   59MOL   C14319979   7.466   7.907   3.392 -0.0014 -0.3099  0.4293
   59MOL   C14419980   7.501   8.046   3.394 -0.4791 -0.3286  0.2046
   59MOL   C14519981   7.623   0.014   3.348  0.2817 -0.1808  0.2520
   59MOL   O14619982   7.836   0.100   3.162 -0.3373  0.2903 -0.0375
   59MOL   H14719983   7.986   7.942   3.329  2.1349  1.0140  2.1933
   59MOL   H14819984   8.039   0.009   3.246  0.4377  0.7240  0.0368
   59MOL   H14919985   7.867   7.979   3.134  1.0809  1.3017 -0.0754
   59MOL   H15019986   7.743   7.790   3.231  0.9922 -0.9268  1.7779
   59MOL   H15119987   7.526   7.718   3.313  1.4160  0.0518  2.2006
   59MOL   H15219988   7.369   7.871   3.423  0.8162 -2.2004  0.8671
   59MOL   H15319989   7.420   0.029   3.427 -0.2473 -0.0239  0.1881
   59MOL   H15419990   7.638   0.121   3.350 -0.1215 -0.1142 -0.0718
   59MOL   C15519991   7.731   0.121   3.064  0.4304  0.6238  0.5025
   59MOL   C15619992   7.715   0.272   3.048 -0.4445 -0.4818 -0.5160
   59MOL   C15719993   7.610   0.301   2.951  0.2103  0.4459 -0.2117
   59MOL   C15819994   7.644   0.366   2.830 -0.4400 -0.3057 -0.6343
   59MOL   C15919995   7.539   0.396   2.742 -0.5580 -0.0320 -0.0358
   59MOL   C16019996   7.410   0.345   2.762  0.2330 -0.1483  0.3105
   59MOL   C16119997   7.375   0.275   2.878 -0.4211  0.0187  0.4565
   59MOL   C16219998   7.475   0.254   2.977 -0.3591  0.2010 -0.1568
   59MOL   O16319999   7.678   0.315   3.177  0.6724 -0.6042  0.0121
   59MOL   H16420000   7.638   0.065   3.076 -0.7777  2.4315 -0.2425
   59MOL   H16520001   7.768   0.094   2.965  3.3124 -1.3936  2.0171
   59MOL   H16620002   7.809   0.317   3.017 -0.4094  0.8715  1.4383
   59MOL   H16720003   7.748   0.391   2.813 -0.3814 -0.9345 -1.2490
   59MOL   H16820004   7.566   0.451   2.653 -2.7412  1.4813  0.1895
   59MOL   H16920005   7.331   0.353   2.688  1.0759  0.5954 -0.5240
   59MOL   H17020006   7.271   0.246   2.881 -0.4258  0.0262  0.3549
   59MOL   H17120007   7.456   0.196   3.067 -2.3654 -1.7026 -1.7299
   59MOL   C17220008   7.671   0.456   3.189 -0.6165 -0.0264  0.0230
   59MOL   C17320009   7.624   0.472   3.339  0.4142 -0.0098  0.0112
   59MOL   C17420010   7.506   0.564   3.357  0.3523  0.3818  0.3389
   59MOL   C17520011   7.513   0.679   3.437 -0.1041 -0.0375 -0.6203
   59MOL   C17620012   7.408   0.767   3.461 -0.1091 -0.5488  0.2150
   59MOL   C17720013   7.284   0.739   3.394  0.0803 -0.4811 -0.5848
   59MOL   C17820014   7.281   0.632   3.303 -0.4462  0.7443 -0.0340
   59MOL   C17920015   7.383   0.532   3.294 -0.4062 -0.4351 -1.0267
   59MOL   O18020016   7.740   0.518   3.412  0.3196  0.1675 -0.2510
   59MOL   H18120017   7.776   0.486   3.179 -0.2396 -1.0749  0.7547
   59MOL   H18220018   7.607   0.512   3.122  0.1319 -0.6959 -1.2742
   59MOL   H18320019   7.592   0.376   3.379  0.6402  0.8781  2.3841
   59MOL   H18420020   7.607   0.704   3.484 -1.1269 -0.5535  1.7695
   59MOL   H18520021   7.426   0.847   3.531 -0.5170  1.1714 -1.6137
   59MOL   H18620022   7.197   0.800   3.414  0.0590  0.1428 -2.4599
   59MOL   H18720023   7.188   0.610   3.253 -0.6144  0.5835  0.3457
   59MOL   H18820024   7.372   0.449   3.226  0.6633 -0.9762 -0.5469
   59MOL   C18920025   7.837   0.423   3.439  0.0379  0.8998  0.8235
   59MOL   C19020026   7.968   0.486   3.494 -0.4094 -0.1056  0.1279
   59MOL   C19120027   7.946   0.605   3.581 -0.2951 -0.5098 -0.2082
   59MOL   C19220028   7.930   0.735   3.521  0.3885 -0.1804  0.0018
   59MOL   C19320029   7.919   0.851   3.597  0.0909  1.2463 -0.9081
   59MOL   C19420030   7.930   0.838   3.741 -0.8424 -0.0367  0.1642
   59MOL   C19520031   7.958   0.714   3.804 -0.0560  0.2679  0.3118
   59MOL   C19620032   7.968   0.597   3.724  0.8237 -0.4361 -0.2181
   59MOL   O19720033   8.064   0.506   3.383  0.6492  0.3783 -0.2674
   59MOL   H19820034   7.791   0.362   3.517  0.0068  1.2168  1.0573
   59MOL   H19920035   7.863   0.348   3.365  0.8935  0.1576  1.8592
   59MOL   H20020036   8.019   0.412   3.556 -2.3543 -1.0472  0.6605
   59MOL   H20120037   7.926   0.734   3.413 -1.9892 -4.2088  0.0017
   59MOL   H20220038   7.890   0.947   3.557 -1.0942  1.4060  0.2796
   59MOL   H20320039   7.925   0.920   3.810 -2.9719  0.8857 -1.0370
   59MOL   H20420040   7.960   0.707   3.911 -3.9721 -0.1965  0.4038
   59MOL   H20520041   7.990   0.500   3.766 -0.2554 -0.2945  0.6783
   59MOL   C20620042   0.122   0.520   3.411 -0.1685  0.1593  0.4570
   59MOL   C20720043   0.227   0.397   3.408 -0.2094  0.3264  0.0955
   59MOL   C20820044   0.223   0.315   3.276 -0.4587  0.1534 -0.1066
   59MOL   C20920045   0.104   0.262   3.223 -0.2809  0.4856 -0.2211
   59MOL   C21020046   0.091   0.219   3.092 -0.3835 -0.5576 -0.3130
   59MOL   C21120047   0.210   0.221   3.011  0.5209 -0.0456 -0.7164
   59MOL   C21220048   0.326   0.270   3.063  0.2150  0.0052 -0.0093
   59MOL   C21320049   0.334   0.317   3.193 -0.3802 -0.2313 -0.3873
   59MOL   O21420050   0.194   0.309   3.523 -0.1623  0.0084 -0.1984
   59MOL   H21520051   0.158   0.570   3.321  0.3786  0.7806  1.0107
   59MOL   H21620052   0.141   0.590   3.493 -1.7124  1.1205  0.0027
   59MOL   H21720053   0.327   0.437   3.416 -0.4663  0.9275  0.2948
   59MOL   H21820054   0.015   0.264   3.285 -0.8963 -2.8003 -0.9272
   59MOL   H21920055   8.073   0.192   3.057  0.2467 -1.3445 -1.5287
   59MOL   H22020056   0.208   0.186   2.909 -0.0864 -0.0526 -0.7011
   59MOL   H22120057   0.422   0.270   3.012  0.7091  2.9070  0.8653
   59MOL   H22220058   0.429   0.345   3.235 -1.0555  1.6288 -0.0270
   59MOL   C22320059   0.210   0.368   3.650 -0.1990 -0.1506 -0.0240
   59MOL   C22420060   0.351   0.433   3.685  0.1140 -0.0857  0.3765
   59MOL   C22520061   0.465   0.332   3.691  0.0284 -0.0854 -0.6034
   59MOL   C22620062   0.543   0.324   3.573 -0.1045 -0.0455 -0.0478
   59MOL   C22720063   0.658   0.243   3.573  0.1334  0.0789 -0.4213
   59MOL   C22820064   0.696   0.166   3.687 -0.3312 -0.7122 -0.2936
   59MOL   C22920065   0.605   0.163   3.795 -0.7753  0.6606 -0.7413
   59MOL   C23020066   0.493   0.248   3.804 -0.3493  0.1286  0.9639
   59MOL   O23120067   0.382   0.553   3.610 -0.3826 -0.0866 -0.0561
   59MOL   H23220068   0.123   0.433   3.663 -0.0298 -0.3601  2.4572
   59MOL   H23320069   0.200   0.284   3.718  0.0133 -0.0802  0.0964
   59MOL   H23420070   0.331   0.455   3.790 -0.0421 -0.2553  0.3817
   59MOL   H23520071   0.515   0.388   3.490  0.7653 -1.3465 -1.3848
   59MOL   H23620072   0.722   0.244   3.486  0.8347 -1.0179  0.0730
   59MOL   H23720073   0.783   0.102   3.682  1.9308  2.2557  0.0275
   59MOL   H23820074   0.625   0.092   3.874 -1.9104 -1.3067 -2.1718
   59MOL   H23920075   0.422   0.241   3.886 -0.1350  2.9052  1.4494
   59MOL   C24020076   0.470   0.646   3.675  0.3253  0.1466  0.1630
   59MOL   C24120077   0.472   0.762   3.571  0.1121  0.5009  0.3255
   59MOL   C24220078   0.520   0.713   3.431  0.0103 -0.0610  0.6540
   59MOL   C24320079   0.431   0.716   3.326 -0.0203  0.5117  0.3815
   59MOL   C24420080   0.467   0.654   3.202  1.0357 -0.6329 -0.6240
   59MOL   C24520081   0.598   0.601   3.185 -0.4998 -0.5304  0.2805
   59MOL   C24620082   0.693   0.614   3.288  0.5684 -0.0095  0.4473
   59MOL   C24720083   0.654   0.668   3.416 -0.5086 -0.6225  0.3135
   59MOL   O24820084   0.345   0.825   3.574  0.1021  0.3111  0.1029
   59MOL   H24920085   0.428   0.673   3.772  1.0522 -0.9328  0.7885
   59MOL   H25020086   0.571   0.607   3.682 -0.4493 -2.0087 -0.3905
   59MOL   H25120087   0.542   0.842   3.594  0.3889  1.3365 -3.0348
   59MOL   H25220088   0.331   0.755   3.336  0.4415  1.6270  0.6924
   59MOL   H25320089   0.383   0.649   3.134  0.5528 -1.9847  0.0536
   59MOL   H25420090   0.621   0.560   3.088 -0.7701 -2.4226  0.9912
   59MOL   H25520091   0.784   0.558   3.274 -0.2065 -0.9112 -1.0882
   59MOL   H25620092   0.718   0.662   3.503  0.3349 -0.5565 -0.2985
   59MOL   C25720093   0.340   0.938   3.658  0.2483  0.1248 -0.5135
   59MOL   C25820094   0.204   1.002   3.649  0.1177 -0.1150  0.4764
   59MOL   C25920095   0.178   1.036   3.503  0.0625 -0.4329  0.3647
   59MOL   C26020096   0.113   0.934   3.427 -0.3293 -0.2309 -0.2833
   59MOL   C26120097   0.098   0.946   3.291 -0.1583 -0.0869 -0.9685
   59MOL   C26220098   0.154   1.057   3.228 -0.0070 -0.1076 -0.0998
   59MOL   C26320099   0.217   1.162   3.301 -0.2091 -0.3847 -0.6428
   59MOL   C26420100   0.220   1.155   3.443  0.2643 -1.0967  0.1851
   59MOL   O26520101   0.202   1.132   3.721  0.2554 -0.1757 -0.3620
   59MOL   H26620102   0.408   1.015   3.620 -1.7240  1.8257 -0.7172
   59MOL   H26720103   0.358   0.917   3.763 -0.8269 -1.7232 -0.6877
   59MOL   H26820104   0.127   0.934   3.683 -0.1436 -0.6671 -1.1483
   59MOL   H26920105   0.074   0.845   3.474 -1.1414 -1.1911 -2.6987
   59MOL   H27020106   0.032   0.875   3.243  0.7626 -0.4580 -1.6833
   59MOL   H27120107   0.146   1.067   3.121 -0.3130  1.8338  0.0954
   59MOL   H27220108   0.253   1.248   3.247  0.2623 -0.3663 -0.3014
   59MOL   H27320109   0.267   1.238   3.494 -0.1245 -0.2414 -0.8293
   59MOL   C27420110   0.172   1.129   3.864 -0.6752 -0.8504 -0.4125
   59MOL   C27520111   0.197   1.270   3.925 -0.3187  0.0753 -0.1432
   59MOL   C27620112   0.232   1.234   4.072  0.5523 -0.0950 -0.5756
   59MOL   C27720113   0.351   1.162   4.103 -0.2593 -0.1880 -0.2157
   59MOL   C27820114   0.390   1.138   4.240  0.0499  0.3079 -0.2951
   59MOL   C27920115   0.306   1.184   4.345 -0.1558 -0.2651  0.4417
   59MOL   C28020116   0.190   1.253   4.314 -0.1168 -0.7614 -0.5292
   59MOL   C28120117   0.148   1.277   4.182 -0.1891 -0.1126 -0.5106
   59MOL   O28220118   0.079   1.364   3.924 -0.7130  0.3316  0.0469
   59MOL   H28320119   0.070   1.103   3.890 -0.7397 -1.0382 -0.8370
   59MOL   H28420120   0.235   1.050   3.906  0.3715 -0.8448 -1.8974
   59MOL   H28520121   0.288   1.319   3.891  0.3402 -0.5459  0.7133
   59MOL   H28620122   0.417   1.117   4.031 -0.8073  0.3033 -1.0359
   59MOL   H28720123   0.486   1.102   4.273  0.1418  0.7255 -0.1093
   59MOL   H28820124   0.344   1.184   4.446 -0.3408 -0.3363  0.5123
   59MOL   H28920125   0.132   1.292   4.396 -0.6541 -3.5259  0.4719
   59MOL   H29020126   0.064   1.334   4.146 -0.6580  0.5552  1.5424
   59MOL   C29120127   0.069   1.449   3.809  0.1038 -0.6353 -0.2185
   59MOL   C29220128   0.145   1.580   3.823 -0.3776  0.8061 -0.4878
   59MOL   C29320129   0.126   1.637   3.964 -0.9087  0.8778 -0.1790
   59MOL   C29420130   0.009   1.713   3.999  0.1130  0.2027 -0.7645
   59MOL   C29520131   8.069   1.774   4.125 -0.1176  0.5006 -0.4602
   59MOL   C29620132   0.093   1.756   4.219  0.3694  0.0046  0.1499
   59MOL   C29720133   0.210   1.687   4.191  0.0122 -0.0544 -0.2392
   59MOL   C29820134   0.221   1.621   4.069 -0.0686  0.0451  0.3355
   59MOL   O29920135   0.280   1.550   3.793 -0.2032 -0.0585 -0.8369
   59MOL   H30020136   8.047   1.487   3.808 -0.5129 -2.2098  1.0865
   59MOL   H30120137   0.082   1.399   3.712  1.9900 -0.4363 -0.0859
   59MOL   H30220138   0.104   1.646   3.747 -1.0597 -0.0423 -0.8640
   59MOL   H30320139   8.011   1.716   3.924 -0.7916 -0.4180  0.1505
   59MOL   H30420140   7.978   1.824   4.154 -0.8389  0.2852 -2.2819
   59MOL   H30520141   0.087   1.789   4.322 -0.2037 -0.9704  0.4384
   59MOL   H30620142   0.284   1.667   4.267 -0.4610 -0.4694  0.1121
   59MOL   H30720143   0.307   1.556   4.058  0.1605  0.5244 -0.8130
   59MOL   C30820144   0.361   1.668   3.767 -0.8670  0.3659 -0.3621
   59MOL   C30920145   0.481   1.631   3.675 -0.1817 -0.0360 -0.1124
   59MOL   C31020146   0.589   1.739   3.674  0.1350  0.1530  0.0691
   59MOL   C31120147   0.584   1.834   3.572  0.3153 -0.1927 -0.3267
   59MOL   C31220148   0.677   1.943   3.562  0.1691  0.1271  0.4389
   59MOL   C31320149   0.785   1.940   3.647 -0.9594 -0.5846 -0.2003
   59MOL   C31420150   0.792   1.850   3.756  0.6766  0.3191  0.4174
   59MOL   C31520151   0.698   1.746   3.763 -0.6534 -0.7751  0.4421
   59MOL   O31620152   0.546   1.507   3.730  0.4697 -0.4672 -0.3544
   59MOL   H31720153   0.392   1.702   3.865  2.6564 -1.0975 -0.9097
   59MOL   H31820154   0.292   1.741   3.724 -1.7303 -1.0214 -1.4070
   59MOL   H31920155   0.435   1.609   3.579 -2.5475  3.0173  0.2722
   59MOL   H32020156   0.498   1.839   3.507 -0.6061 -0.0379  0.8849
   59MOL   H32120157   0.677   2.013   3.480 -1.4803 -0.8549 -0.4337
   59MOL   H32220158   0.853   2.023   3.633 -0.6920 -0.9284 -0.9780
   59MOL   H32320159   0.863   1.857   3.837  1.1228 -0.1848  0.0761
   59MOL   H32420160   0.701   1.682   3.850 -1.3705 -1.9682 -0.3953
   59MOL   C32520161   0.623   1.427   3.653  0.0894  0.0684 -0.1788
   59MOL   C32620162   0.606   1.276   3.686 -0.7384  0.5292  0.1264
   59MOL   C32720163   0.701   1.177   3.615  0.0095  0.8952  0.3826
   59MOL   C32820164   0.836   1.152   3.658 -0.0805  0.3705 -0.2330
   59MOL   C32920165   0.921   1.056   3.592 -0.2270  0.3516 -0.1443
   59MOL   C33020166   0.867   0.988   3.481  0.0213  0.1677  0.2857
   59MOL   C33120167   0.728   1.009   3.441  0.1868  0.0426 -0.4644
   59MOL   C33220168   0.647   1.101   3.510 -0.9517 -1.1988  1.1455
   59MOL   O33320169   0.629   1.259   3.827  0.8879  0.6175  0.3717
   59MOL   H33420170   0.730   1.449   3.658 -0.0165  0.8217 -1.2103
   59MOL   H33520171   0.584   1.429   3.551 -3.4483  0.0359  1.1150
   59MOL   H33620172   0.504   1.252   3.659 -0.0732 -0.2874 -1.7832
   59MOL   H33720173   0.884   1.224   3.723  0.0632  0.0906 -0.0288
   59MOL   H33820174   1.025   1.052   3.619 -0.6297 -2.0275  1.1784
   59MOL   H33920175   0.932   0.924   3.423  0.7550  2.2527 -1.2553
   59MOL   H34020176   0.683   0.946   3.365  1.2082 -2.2365  0.7664
   59MOL   H34120177   0.548   1.128   3.476 -0.5020 -0.3831  0.4380
   59MOL   H34220178   0.595   1.337   3.869  3.4729  1.4938  0.9808
   60MOL     C120179   0.646   6.047   6.163  0.3440 -0.4322  0.3001
   60MOL     C220180   0.671   6.112   6.036 -0.0689 -0.3174 -0.6328
   60MOL     C320181   0.627   6.024   5.921  0.6586  0.4762  0.0194
   60MOL     C420182   0.490   6.004   5.897  0.1146  0.4200  0.2299
   60MOL     C520183   0.449   5.912   5.800 -0.0933  0.1731  0.0087
   60MOL     C620184   0.544   5.844   5.717 -0.1377 -0.2838  0.1132
   60MOL     C720185   0.682   5.864   5.738 -0.0907  0.6305 -0.5348
   60MOL     C820186   0.723   5.953   5.840 -0.2871  0.6703  0.0327
   60MOL     O920187   0.815   6.126   6.037 -0.0944  0.1018 -0.4558
   60MOL    H1020188   0.702   5.954   6.174 -0.5958 -0.9846  0.4957
   60MOL    H1120189   0.689   6.108   6.242  0.6681 -1.4310  0.9032
   60MOL    H1220190   0.627   6.209   6.012  1.6846 -0.2031 -3.6871
   60MOL    H1320191   0.417   6.057   5.956  0.3802  1.0373  0.0109
   60MOL    H1420192   0.343   5.896   5.787 -0.7591  3.7120  0.5006
   60MOL    H1520193   0.493   5.772   5.655 -0.1344  1.9404 -2.5741
   60MOL    H1620194   0.752   5.807   5.679 -1.5112  2.1965 -3.8851
   60MOL    H1720195   0.827   5.981   5.853 -0.1730  1.2377 -1.9594
   60MOL    H1820196   0.543   6.026   6.192 -0.3584 -0.2079 -1.9029
   60MOL    C1920197   0.867   6.235   5.955  0.4228 -0.1286  0.1630
   60MOL    C2020198   1.022   6.249   5.934 -0.0417  0.5883 -0.1206
   60MOL    C2120199   1.085   6.256   6.072  0.2162  0.2120 -0.0950
   60MOL    C2220200   1.079   6.375   6.157 -0.2150  0.2771  0.4367
   60MOL    C2320201   1.136   6.372   6.288 -0.1934  0.0219 -0.7746
   60MOL    C2420202   1.193   6.257   6.335  1.4176  0.0599  0.5190
   60MOL    C2520203   1.189   6.137   6.263 -0.5354 -0.3068  0.2250
   60MOL    C2620204   1.134   6.140   6.134 -0.3077 -0.3583  0.1744
   60MOL    O2720205   1.049   6.367   5.856 -0.5698 -0.2762 -0.5967
   60MOL    H2820206   0.818   6.225   5.858 -0.4485 -0.1039  0.5915
   60MOL    H2920207   0.830   6.332   5.988 -2.3717 -1.3772  0.8643
   60MOL    H3020208   1.033   6.151   5.889 -0.9445  0.2612  0.3513
   60MOL    H3120209   1.048   6.472   6.121 -1.0874 -0.3872 -0.6331
   60MOL    H3220210   1.140   6.460   6.351 -2.1758 -1.2363  1.1673
   60MOL    H3320211   1.241   6.253   6.432  1.7808 -0.3839  0.3223
   60MOL    H3420212   1.245   6.056   6.306  0.0874 -1.1331 -2.0447
   60MOL    H3520213   1.152   6.054   6.071 -2.3197 -0.4774 -0.2554
   60MOL    C3620214   1.170   6.348   5.773  0.5731  0.5457 -0.1510
   60MOL    C3720215   1.134   6.304   5.623 -0.3668 -0.0301 -0.3019
   60MOL    C3820216   1.048   6.400   5.539 -1.2695  0.3436 -0.2311
   60MOL    C3920217   1.091   6.444   5.412 -0.2229  0.1297  0.0309
   60MOL    C4020218   1.011   6.531   5.334 -1.0328  0.4077 -0.4897
   60MOL    C4120219   0.903   6.599   5.400  0.0240 -0.2567  0.1317
   60MOL    C4220220   0.855   6.548   5.522 -0.3891  0.0746 -0.0980
   60MOL    C4320221   0.922   6.447   5.592  0.1655  0.8279 -0.1915
   60MOL    O4420222   1.079   6.171   5.616  0.0968 -0.3879 -0.0716
   60MOL    H4520223   1.225   6.442   5.774  1.1046  0.2429 -0.8819
   60MOL    H4620224   1.240   6.274   5.812 -0.3656 -0.5281 -0.4870
   60MOL    H4720225   1.230   6.300   5.570 -0.3307  0.1642 -0.2500
   60MOL    H4820226   1.183   6.404   5.374 -1.3316 -2.1478 -0.3582
   60MOL    H4920227   1.047   6.556   5.235 -1.4709 -3.0646 -1.6040
   60MOL    H5020228   0.849   6.667   5.336 -0.8000  0.0664  1.1731
   60MOL    H5120229   0.762   6.592   5.556 -0.8489 -0.8826 -0.0966
   60MOL    H5220230   0.887   6.409   5.686 -0.0247  2.5878  0.4759
   60MOL    C5320231   1.071   6.113   5.481 -0.1122  0.4653  0.3111
   60MOL    C5420232   0.980   5.977   5.491  0.6258  0.6990 -0.4002
   60MOL    C5520233   0.832   5.997   5.476 -0.5800 -0.4291 -0.0722
   60MOL    C5620234   0.750   5.913   5.405 -0.1670  0.4628  0.7831
   60MOL    C5720235   0.610   5.940   5.395 -0.3527 -0.4852  0.4432
   60MOL    C5820236   0.553   6.062   5.455 -0.4223  0.3933  0.6986
   60MOL    C5920237   0.641   6.149   5.518  0.0521  0.0131  0.1786
   60MOL    C6020238   0.776   6.112   5.525 -0.3308 -0.2188 -0.1944
   60MOL    O6120239   1.031   5.862   5.420  0.2929 -0.0213  0.6851
   60MOL    H6220240   1.031   6.181   5.405 -0.2042  0.1872  0.1113
   60MOL    H6320241   1.177   6.103   5.460 -0.2959  3.1948 -2.2817
   60MOL    H6420242   0.978   5.955   5.598  2.0002 -0.4909 -0.5991
   60MOL    H6520243   0.797   5.824   5.365 -2.2525 -0.8885  1.2118
   60MOL    H6620244   0.546   5.880   5.333 -0.6369 -1.6150  1.8214
   60MOL    H6720245   0.447   6.077   5.440 -0.8413 -1.0743  2.0236
   60MOL    H6820246   0.608   6.245   5.553  0.7483  0.2732  0.1123
   60MOL    H6920247   0.848   6.172   5.579  0.6145  0.8947 -2.5916
   60MOL    C7020248   1.145   5.795   5.485  0.2720  0.4524  0.3223
   60MOL    C7120249   1.110   5.684   5.582 -0.4360  0.1764 -0.6567
   60MOL    C7220250   1.041   5.569   5.509 -0.4089  0.6379 -0.6709
   60MOL    C7320251   1.120   5.479   5.430  0.2095  0.0986 -0.2829
   60MOL    C7420252   1.060   5.378   5.354  0.0429  0.4232 -0.4235
   60MOL    C7520253   0.917   5.368   5.354  0.4563  0.4582 -0.1013
   60MOL    C7620254   0.844   5.451   5.431  0.4062 -1.1361 -0.3837
   60MOL    C7720255   0.899   5.557   5.510  0.2274  0.8514 -0.0909
   60MOL    O7820256   1.030   5.738   5.681  0.0796  0.8076 -0.1451
   60MOL    H7920257   1.203   5.761   5.400 -0.8206 -2.4900  0.7062
   60MOL    H8020258   1.205   5.864   5.543  0.2472 -0.1205  1.0360
   60MOL    H8120259   1.200   5.658   5.637 -1.2673 -2.7255 -0.5946
   60MOL    H8220260   1.228   5.485   5.435  0.1172  0.9201  0.9755
   60MOL    H8320261   1.122   5.302   5.308  1.8276  1.6645 -0.1233
   60MOL    H8420262   0.867   5.290   5.298  1.9685  0.0119 -0.8362
   60MOL    H8520263   0.736   5.447   5.427  0.2799 -0.9904  1.9355
   60MOL    H8620264   0.834   5.619   5.571 -0.6566  2.7373 -2.8445
   60MOL    C8720265   1.047   5.693   5.816  0.2598 -0.1234 -0.0746
   60MOL    C8820266   1.098   5.803   5.915  0.6491 -0.6512 -0.2764
   60MOL    C8920267   1.233   5.844   5.873  0.0088  0.0369 -0.3016
   60MOL    C9020268   1.244   5.948   5.775 -0.1686 -0.8480 -0.1557
   60MOL    C9120269   1.375   5.979   5.735 -0.0939 -0.0507 -0.3637
   60MOL    C9220270   1.483   5.903   5.777  0.2639  0.1012 -0.7396
   60MOL    C9320271   1.462   5.796   5.870  0.0188  0.3107 -0.5999
   60MOL    C9420272   1.337   5.768   5.922 -0.0638 -0.1706 -0.4035
   60MOL    O9520273   1.097   5.768   6.052  0.2120  0.3902  0.2041
   60MOL    H9620274   1.102   5.600   5.824 -1.2848 -0.9269  1.3199
   60MOL    H9720275   0.947   5.663   5.847 -0.1396  0.9882 -0.2352
   60MOL    H9820276   1.033   5.889   5.919 -1.3191 -2.1783  1.6121
   60MOL    H9920277   1.159   6.003   5.736 -0.7735 -1.3781  0.4038
   60MOL   H10020278   1.394   6.044   5.651 -2.0507  1.1609  0.0990
   60MOL   H10120279   1.586   5.926   5.757  1.2161 -2.2066  1.2649
   60MOL   H10220280   1.544   5.741   5.914 -0.4260 -0.7464 -1.0786
   60MOL   H10320281   1.314   5.691   5.994  3.2560  0.6642  1.6335
   60MOL   C10420282   0.970   5.793   6.121 -0.2037  0.7026 -0.5738
   60MOL   C10520283   0.972   5.698   6.247 -0.7916  0.5275  0.1711
   60MOL   C10620284   1.082   5.749   6.343 -0.1590 -0.5625 -0.1470
   60MOL   C10720285   1.051   5.821   6.462  0.8623  0.2787  0.4211
   60MOL   C10820286   1.157   5.874   6.535  0.1040 -0.5618  0.6091
   60MOL   C10920287   1.290   5.850   6.511  0.0954  1.1976 -0.3581
   60MOL   C11020288   1.319   5.770   6.404 -0.5134  0.8882 -0.5124
   60MOL   C11120289   1.217   5.729   6.316 -0.2610  0.2605 -0.4818
   60MOL   O11220290   0.844   5.686   6.299 -0.8519 -0.8772  0.3103
   60MOL   H11320291   0.966   5.898   6.151 -2.7032 -0.2190  2.5560
   60MOL   H11420292   0.883   5.776   6.058  0.6522  0.5738 -1.7343
   60MOL   H11520293   0.998   5.597   6.215 -0.2238  1.2414 -1.6838
   60MOL   H11620294   0.950   5.844   6.493  1.0216  0.0585  1.1057
   60MOL   H11720295   1.128   5.949   6.608  1.1852  0.7062 -0.2205
   60MOL   H11820296   1.363   5.898   6.575  1.2854  2.7161 -2.8084
   60MOL   H11920297   1.424   5.750   6.391 -0.4045  0.3834  1.0840
   60MOL   H12020298   1.246   5.670   6.231  1.1530  1.1304 -0.6136
   60MOL   C12120299   0.826   5.593   6.405 -0.1575 -0.1410  0.7430
   60MOL   C12220300   0.698   5.607   6.491 -0.1109 -0.2058  0.4631
   60MOL   C12320301   0.687   5.738   6.558  0.0441  0.2318  0.6429
   60MOL   C12420302   0.718   5.751   6.694  0.4493 -0.4230 -0.3171
   60MOL   C12520303   0.703   5.878   6.759  0.7302 -0.3497  0.3123
   60MOL   C12620304   0.663   5.989   6.688  0.4344 -0.0622 -0.0915
   60MOL   C12720305   0.622   5.977   6.551  0.3891  0.3367  0.1999
   60MOL   C12820306   0.639   5.850   6.488  0.4617 -0.6357 -0.1452
   60MOL   O12920307   0.593   5.578   6.401 -0.0918  0.0359  0.0166
   60MOL   H13020308   0.906   5.607   6.477  0.7043  2.4311 -0.6336
   60MOL   H13120309   0.845   5.501   6.350 -1.1925  1.0439 -1.6899
   60MOL   H13220310   0.710   5.534   6.571  0.3864  1.1612  1.6585
   60MOL   H13320311   0.746   5.660   6.746 -2.1109 -1.6034 -0.9085
   60MOL   H13420312   0.708   5.896   6.866 -0.2277  0.0997  0.2872
   60MOL   H13520313   0.653   6.083   6.742 -1.9387 -0.3469  0.0412
   60MOL   H13620314   0.602   6.067   6.495  1.8962  1.5638  1.6103
   60MOL   H13720315   0.621   5.844   6.381 -0.8846  2.8696 -0.1994
   60MOL   C13820316   0.460   5.550   6.456  0.1528  0.3281  0.0127
   60MOL   C13920317   0.443   5.406   6.510  0.0107 -0.7620 -0.6511
   60MOL   C14020318   0.478   5.290   6.409 -0.4267 -0.2245 -0.5642
   60MOL   C14120319   0.583   5.206   6.434  0.8499  0.5113 -0.0837
   60MOL   C14220320   0.618   5.112   6.337 -0.1215 -0.4543 -0.2251
   60MOL   C14320321   0.550   5.093   6.218 -0.5043  0.1028  0.5040
   60MOL   C14420322   0.448   5.180   6.188  0.6524 -0.3432 -0.1287
   60MOL   C14520323   0.414   5.278   6.282 -0.4103  0.9726  0.8387
   60MOL   O14620324   0.529   5.381   6.627  0.5902 -0.7093  0.1389
   60MOL   H14720325   0.401   5.549   6.364 -0.5682 -2.8614  0.4411
   60MOL   H14820326   0.408   5.629   6.510 -0.6639  0.9865 -1.7060
   60MOL   H14920327   0.341   5.395   6.547  0.3656  1.7238  1.2249
   60MOL   H15020328   0.644   5.221   6.522  0.1791  0.7787  0.3386
   60MOL   H15120329   0.697   5.042   6.361  1.8071  1.9957  0.7594
   60MOL   H15220330   0.578   5.015   6.149 -0.8092  0.3809  0.0589
   60MOL   H15320331   0.397   5.187   6.093  1.0293  3.7343 -0.1151
   60MOL   H15420332   0.332   5.344   6.260 -0.1298  1.6688  1.8311
   60MOL   C15520333   0.498   5.464   6.747 -0.1278  0.6017  0.2405
   60MOL   C15620334   0.587   5.410   6.854  0.1112  0.1218 -0.8263
   60MOL   C15720335   0.603   5.510   6.967  0.4733 -0.2145  0.1555
   60MOL   C15820336   0.727   5.563   6.996 -0.1306  0.3959  0.3494
   60MOL   C15920337   0.752   5.663   7.092  0.0791 -0.0811 -0.4309
   60MOL   C16020338   0.640   5.714   7.162 -0.5460  0.2343 -0.9194
   60MOL   C16120339   0.510   5.656   7.134 -0.3190  0.3784  0.0971
   60MOL   C16220340   0.491   5.559   7.036  0.4969 -0.6358 -0.4351
   60MOL   O16320341   0.541   5.291   6.913 -0.1301 -0.2096  0.2921
   60MOL   H16420342   0.394   5.447   6.777 -0.8733 -0.4420 -2.7537
   60MOL   H16520343   0.520   5.570   6.736  4.1883 -0.3598 -0.9494
   60MOL   H16620344   0.684   5.396   6.806  0.2368 -0.9641 -0.2736
   60MOL   H16720345   0.815   5.519   6.951 -0.6807 -0.2002 -0.1648
   60MOL   H16820346   0.851   5.694   7.123 -0.4821 -0.1518  1.5156
   60MOL   H16920347   0.653   5.780   7.247 -0.3973  1.7170 -2.0748
   60MOL   H17020348   0.422   5.702   7.177 -0.2048 -0.5511  1.3791
   60MOL   H17120349   0.394   5.514   7.029  1.0239 -1.6497 -1.2328
   60MOL   C17220350   0.524   5.187   6.818 -0.4206 -0.1590 -0.1516
   60MOL   C17320351   0.529   5.050   6.882  0.3757 -0.0894 -0.2007
   60MOL   C17420352   0.557   4.945   6.778 -0.1003 -0.1581  0.1682
   60MOL   C17520353   0.448   4.881   6.708  0.7467 -0.0945  0.2965
   60MOL   C17620354   0.478   4.796   6.601  0.6450 -0.9158 -0.0130
   60MOL   C17720355   0.615   4.771   6.567  0.2441  0.3608  0.4074
   60MOL   C17820356   0.720   4.822   6.646  0.6981 -0.1229  0.1772
   60MOL   C17920357   0.688   4.908   6.752  0.2043  0.1809 -0.1823
   60MOL   O18020358   0.418   5.026   6.969 -0.1047  0.2693  0.3099
   60MOL   H18120359   0.428   5.190   6.768 -1.8556 -2.8251  2.2854
   60MOL   H18220360   0.604   5.175   6.745  0.0402 -3.1517  0.7892
   60MOL   H18320361   0.617   5.061   6.946 -0.8913  0.7918  1.4363
   60MOL   H18420362   0.346   4.913   6.725  0.6468  1.5760 -3.0969
   60MOL   H18520363   0.403   4.738   6.549  1.5119 -1.1959 -0.9641
   60MOL   H18620364   0.626   4.708   6.480 -0.5871  0.2599  0.3674
   60MOL   H18720365   0.824   4.799   6.624  0.9265 -0.1325  1.2725
   60MOL   H18820366   0.769   4.945   6.814 -0.9900  0.7282  1.0671
   60MOL   C18920367   0.441   4.914   7.052 -0.3336 -0.1339 -0.0029
   60MOL   C19020368   0.352   4.916   7.173 -0.3757 -0.1787  0.2071
   60MOL   C19120369   0.404   4.824   7.278  0.4279 -0.3085 -0.9777
   60MOL   C19220370   0.379   4.686   7.267  0.2945  0.3468 -0.2037
   60MOL   C19320371   0.427   4.601   7.363 -0.1192 -0.1351 -0.5216
   60MOL   C19420372   0.498   4.646   7.476  0.4191 -0.7204  0.4908
   60MOL   C19520373   0.520   4.786   7.488 -0.5075  0.1821  0.7799
   60MOL   C19620374   0.480   4.876   7.385 -0.2442 -0.3567 -0.3456
   60MOL   O19720375   0.221   4.871   7.131 -0.4529 -0.1898  0.2064
   60MOL   H19820376   0.404   4.826   6.999  0.4000  0.7515 -2.0015
   60MOL   H19920377   0.547   4.905   7.076 -0.4405  0.6118  0.7719
   60MOL   H20020378   0.341   5.016   7.214  1.3914  0.2565 -0.3183
   60MOL   H20120379   0.325   4.643   7.184 -1.1110 -0.6369  1.1922
   60MOL   H20220380   0.419   4.493   7.355  2.0735 -0.3583  0.0934
   60MOL   H20320381   0.524   4.576   7.554  3.3169 -1.4538 -1.0699
   60MOL   H20420382   0.572   4.826   7.573  3.1739 -0.1893 -1.1785
   60MOL   H20520383   0.504   4.980   7.396 -0.2966 -0.4685  0.8837
   60MOL   C20620384   0.126   4.916   7.228 -0.0456  0.2190 -0.4122
   60MOL   C20720385   0.001   4.828   7.220  0.6492 -0.2582 -0.0262
   60MOL   C20820386   0.028   4.685   7.258 -0.6844  0.1814  0.7816
   60MOL   C20920387   0.052   4.589   7.154  0.3420  0.2523  0.1526
   60MOL   C21020388   0.089   4.454   7.188  0.6345 -0.5776 -0.0179
   60MOL   C21120389   0.089   4.419   7.322  0.1347  0.2454 -0.7943
   60MOL   C21220390   0.077   4.511   7.428  0.2707  0.9808 -0.0032
   60MOL   C21320391   0.052   4.645   7.395  0.6280  0.0077  1.1576
   60MOL   O21420392   8.035   4.831   7.076  0.3423 -0.5414  0.3656
   60MOL   H21520393   0.150   4.917   7.334 -1.4382  1.9440 -0.0864
   60MOL   H21620394   0.088   5.014   7.198  1.6505  0.1399 -2.9785
   60MOL   H21720395   7.998   4.878   7.270  0.5941  1.3926 -1.7088
   60MOL   H21820396   0.043   4.616   7.049 -0.3774  0.8193  0.3547
   60MOL   H21920397   0.105   4.384   7.107  1.9545 -0.3711  0.0593
   60MOL   H22020398   0.099   4.314   7.344  0.8629  0.5210  0.2316
   60MOL   H22120399   0.094   4.486   7.532  2.1109  1.2901 -0.2119
   60MOL   H22220400   0.045   4.713   7.479 -3.4190  1.2591 -0.0856
   60MOL   C22320401   7.900   4.790   7.062  0.7512  0.0347 -0.3437
   60MOL   C22420402   7.866   4.784   6.922 -0.0819 -0.7949 -0.0265
   60MOL   C22520403   7.741   4.704   6.897  0.6423  0.1560 -0.3665
   60MOL   C22620404   7.620   4.735   6.964  0.0081 -0.3885 -0.1079
   60MOL   C22720405   7.510   4.648   6.956 -0.0163 -0.0922  0.6542
   60MOL   C22820406   7.507   4.542   6.863  0.2070 -0.8748 -0.3842
   60MOL   C22920407   7.623   4.509   6.800 -0.5993 -0.2364  0.0383
   60MOL   C23020408   7.737   4.589   6.815 -0.3406 -0.2964  0.2547
   60MOL   O23120409   7.844   4.930   6.898  0.1001  0.2970  0.1117
   60MOL   H23220410   7.893   4.691   7.107 -0.4481  0.1041 -0.3558
   60MOL   H23320411   7.839   4.861   7.119 -3.8115 -1.9771 -2.4639
   60MOL   H23420412   7.944   4.735   6.864 -0.4576 -0.1192 -1.1191
   60MOL   H23520413   7.607   4.820   7.030  0.8217 -1.4535  1.4365
   60MOL   H23620414   7.422   4.674   7.012 -0.0237 -2.6417  1.8846
   60MOL   H23720415   7.416   4.484   6.859 -0.0787 -0.3848 -1.2809
   60MOL   H23820416   7.614   4.418   6.742  1.5015 -1.3283  1.3366
   60MOL   H23920417   7.829   4.574   6.759 -0.7748 -0.4112 -0.4325
   60MOL   C24020418   7.804   4.959   6.763  0.0583  0.1876  0.1915
   60MOL   C24120419   7.853   5.105   6.741  0.5929  0.3955  0.3729
   60MOL   C24220420   8.003   5.102   6.698 -0.1352 -0.5393 -0.2378
   60MOL   C24320421   8.035   5.103   6.557 -0.7365  0.2013 -0.4021
   60MOL   C24420422   0.090   5.107   6.510 -0.3138  0.0169 -0.5360
   60MOL   C24520423   0.191   5.099   6.612 -0.2245 -0.0974  0.1785
   60MOL   C24620424   0.161   5.107   6.750  0.2889  0.2007 -0.2700
   60MOL   C24720425   0.026   5.099   6.795  0.5537  0.0199  0.1894
   60MOL   O24820426   7.775   5.158   6.638 -0.0524  0.3104  0.0363
   60MOL   H24920427   7.859   4.897   6.692  1.9852 -0.8428  2.5342
   60MOL   H25020428   7.698   4.937   6.749  0.0996 -0.3090  0.6231
   60MOL   H25120429   7.850   5.175   6.824 -1.0758  1.8389 -0.8710
   60MOL   H25220430   7.952   5.103   6.487 -0.5591 -0.6395 -0.6118
   60MOL   H25320431   0.106   5.106   6.404 -3.8703 -1.2399 -1.1551
   60MOL   H25420432   0.292   5.089   6.575 -0.5366 -0.8980 -0.4734
   60MOL   H25520433   0.244   5.105   6.820  1.7716  0.2428 -1.9993
   60MOL   H25620434   8.078   5.100   6.900 -0.8948 -3.9108 -0.0678
   60MOL   C25720435   7.778   5.293   6.631 -0.0007 -0.1756  0.4190
   60MOL   C25820436   7.690   5.370   6.729 -0.1928  0.9537  0.1683
   60MOL   C25920437   7.574   5.274   6.764 -1.1106 -0.6704 -0.4579
   60MOL   C26020438   7.568   5.215   6.897  0.9235  0.8974  0.5907
   60MOL   C26120439   7.469   5.121   6.928 -0.3550 -0.0817  0.2712
   60MOL   C26220440   7.373   5.098   6.829 -0.3446  0.4577  0.7108
   60MOL   C26320441   7.372   5.155   6.704  0.3957 -0.0349 -0.1697
   60MOL   C26420442   7.480   5.240   6.673 -0.8622  0.7667  0.6266
   60MOL   O26520443   7.654   5.490   6.665 -0.4819 -0.5380 -0.3533
   60MOL   H26620444   7.743   5.317   6.530 -2.8829 -2.0678  0.8939
   60MOL   H26720445   7.880   5.332   6.635  0.0669 -0.1115 -1.4824
   60MOL   H26820446   7.743   5.403   6.819  1.6392 -0.5220 -0.3417
   60MOL   H26920447   7.638   5.244   6.974 -0.5233  0.3325  2.1416
   60MOL   H27020448   7.461   5.075   7.026  0.1367  0.7012  0.6933
   60MOL   H27120449   7.287   5.034   6.839  1.0225 -1.6112 -0.3050
   60MOL   H27220450   7.300   5.124   6.630 -0.8563 -0.7791  1.3250
   60MOL   H27320451   7.485   5.273   6.571  1.9234  0.2402  0.5443
   60MOL   C27420452   7.582   5.577   6.755  0.2141  0.5563  0.1129
   60MOL   C27520453   7.649   5.634   6.881 -0.0534  0.2762 -0.1524
   60MOL   C27620454   7.561   5.748   6.945  0.1122 -0.1374  0.4693
   60MOL   C27720455   7.529   5.864   6.870 -0.1685 -0.4007  0.3913
   60MOL   C27820456   7.439   5.961   6.924 -0.2969 -0.7514  0.8639
   60MOL   C27920457   7.403   5.951   7.060 -0.2728 -0.2420  0.7354
   60MOL   C28020458   7.446   5.844   7.138 -0.7380 -0.5464 -1.0159
   60MOL   C28120459   7.515   5.740   7.081 -0.0007 -0.0883 -1.0840
   60MOL   O28220460   7.777   5.677   6.843 -0.2989  0.0872  0.7229
   60MOL   H28320461   7.564   5.664   6.693  1.9546 -1.2145 -3.0085
   60MOL   H28420462   7.484   5.534   6.774 -0.2452  1.5195 -0.1038
   60MOL   H28520463   7.657   5.557   6.958 -0.1376  1.0359  0.6200
   60MOL   H28620464   7.572   5.879   6.772  2.9383  1.3170  1.9492
   60MOL   H28720465   7.429   6.047   6.861  3.9611 -0.7809 -0.0125
   60MOL   H28820466   7.350   6.029   7.111 -0.0523 -0.0286  0.6369
   60MOL   H28920467   7.431   5.851   7.245 -2.9957  0.7593 -1.3824
   60MOL   H29020468   7.536   5.653   7.141  0.4965  0.4597 -0.4521
   60MOL   C29120469   7.846   5.771   6.924 -0.0145 -0.3268 -0.1133
   60MOL   C29220470   7.994   5.791   6.891 -0.0478  0.1130 -0.3801
   60MOL   C29320471   8.071   5.662   6.898 -0.2773 -0.0742 -0.1441
   60MOL   C29420472   0.052   5.625   7.019  0.4739  0.8041  0.1448
   60MOL   C29520473   0.127   5.507   7.029 -1.1003 -0.5222  0.4706
   60MOL   C29620474   0.124   5.415   6.921 -0.0860 -0.0536  0.0920
   60MOL   C29720475   0.057   5.446   6.801  0.8958 -0.8060  0.7390
   60MOL   C29820476   8.068   5.574   6.792 -0.1081  0.3465 -0.3020
   60MOL   O29920477   7.999   5.852   6.764 -0.3459  0.1213  1.1036
   60MOL   H30020478   7.830   5.735   7.026 -0.4972 -1.5572 -0.6160
   60MOL   H30120479   7.801   5.870   6.926 -0.7116 -0.5515 -3.1868
   60MOL   H30220480   8.037   5.858   6.966 -0.2178 -1.1689  0.8879
   60MOL   H30320481   0.050   5.695   7.101 -0.1845  1.1342 -0.1496
   60MOL   H30420482   0.166   5.476   7.124  1.0281 -1.9782 -0.8315
   60MOL   H30520483   0.174   5.322   6.940  0.6662 -0.5139 -3.7916
   60MOL   H30620484   0.047   5.382   6.715 -2.6113  0.4492  0.1338
   60MOL   H30720485   8.015   5.612   6.705  0.3602 -0.1071 -0.7849
   60MOL   C30820486   8.008   5.996   6.770 -0.1710 -0.0115  0.0803
   60MOL   C30920487   7.983   6.047   6.628  0.2035  0.1469  0.2882
   60MOL   C31020488   7.839   6.047   6.568  0.2516  0.0742  0.4863
   60MOL   C31120489   7.790   5.925   6.510  1.0368  0.3418 -0.4070
   60MOL   C31220490   7.654   5.916   6.473 -0.8420  0.4250  0.6178
   60MOL   C31320491   7.577   6.034   6.473 -0.0561 -0.0806 -0.2471
   60MOL   C31420492   7.631   6.156   6.516  0.4774 -0.7673  0.2515
   60MOL   C31520493   7.762   6.162   6.558 -0.5538 -0.4111 -0.5720
   60MOL   O31620494   8.033   6.183   6.611 -0.4630  0.8138 -0.5449
   60MOL   H31720495   0.026   6.027   6.806  1.5324 -0.8906 -3.5171
   60MOL   H31820496   7.931   6.035   6.837  0.5708  0.9354  0.3861
   60MOL   H31920497   8.035   5.986   6.554  1.6542  1.8491 -0.1426
   60MOL   H32020498   7.846   5.833   6.503  3.1247  1.5347  0.1445
   60MOL   H32120499   7.611   5.830   6.426  0.2003  0.5849 -0.6500
   60MOL   H32220500   7.481   6.030   6.425  0.0777 -0.4422 -0.4886
   60MOL   H32320501   7.570   6.245   6.508 -0.7599 -1.6590 -0.4518
   60MOL   H32420502   7.803   6.253   6.599 -1.6923 -0.1593  0.0434
   60MOL   C32520503   0.028   6.207   6.493 -0.5111  0.3397  0.3584
   60MOL   C32620504   0.088   6.350   6.480 -0.1050  0.3540 -0.2254
   60MOL   C32720505   0.208   6.349   6.377 -0.3127  0.1922 -0.2223
   60MOL   C32820506   0.185   6.312   6.242 -0.5223 -0.3177 -0.0319
   60MOL   C32920507   0.296   6.303   6.157 -0.5571  0.2491 -0.5418
   60MOL   C33020508   0.422   6.347   6.206 -0.7265  0.1257  0.3336
   60MOL   C33120509   0.431   6.391   6.337 -0.5514 -0.2372 -1.1659
   60MOL   C33220510   0.328   6.394   6.430  0.2668 -0.0879 -0.4642
   60MOL   O33320511   8.066   6.433   6.434 -0.3326  0.0188 -0.0897
   60MOL   H33420512   8.049   6.197   6.402 -1.8091 -0.6161  1.2894
   60MOL   H33520513   0.114   6.140   6.489 -0.8943 -0.0805 -1.3529
   60MOL   H33620514   0.127   6.385   6.575 -1.8805 -1.6772  1.2836
   60MOL   H33720515   0.087   6.300   6.200 -0.0774 -1.7356 -0.7052
   60MOL   H33820516   0.284   6.273   6.055  2.9944 -0.6174 -0.7769
   60MOL   H33920517   0.503   6.364   6.138  0.8716 -1.2496  1.8392
   60MOL   H34020518   0.530   6.415   6.371 -0.5602 -0.8152 -0.7158
   60MOL   H34120519   0.346   6.419   6.534  0.2262 -0.6455 -0.3264
   60MOL   H34220520   7.997   6.417   6.497 -0.2133 -2.1839 -0.4844
   61MOL     C120521   0.157   7.157   4.804  0.0450  0.3953  0.3210
   61MOL     C220522   0.093   7.098   4.684  0.1453  0.3344  0.3973
   61MOL     C320523   0.053   6.956   4.700  0.4819 -0.9551 -0.2177
   61MOL     C420524   0.153   6.864   4.718  0.3011 -0.4852  0.7535
   61MOL     C520525   0.120   6.731   4.739 -0.1661 -0.1315 -0.1939
   61MOL     C620526   8.064   6.687   4.743  0.7518 -0.3683 -0.4235
   61MOL     C720527   7.965   6.781   4.719 -0.4057 -0.0528 -0.8192
   61MOL     C820528   7.998   6.917   4.704  0.0424  0.2071  0.1785
   61MOL     O920529   0.182   7.118   4.575  0.1013 -0.7004 -0.3276
   61MOL    H1020530   0.190   7.256   4.774 -1.3873  0.6568 -0.4449
   61MOL    H1120531   0.095   7.150   4.894  0.6528 -0.7771  0.6632
   61MOL    H1220532   0.004   7.155   4.658  1.2125  0.6442 -2.7600
   61MOL    H1320533   0.258   6.888   4.709  0.3455 -0.9116  0.1366
   61MOL    H1420534   0.202   6.660   4.749  1.0614  1.0312 -1.6776
   61MOL    H1520535   8.042   6.586   4.775 -1.1346 -0.4146 -1.8210
   61MOL    H1620536   7.861   6.752   4.720 -0.8835  1.5872 -0.4319
   61MOL    H1720537   7.920   6.990   4.691 -0.9443 -0.9766 -0.7445
   61MOL    H1820538   0.251   7.106   4.826  0.6283  1.2268 -0.2347
   61MOL    C1920539   0.115   7.097   4.448 -0.0552 -0.0672  0.1889
   61MOL    C2020540   0.163   7.201   4.342 -0.7510  0.0323  0.3421
   61MOL    C2120541   0.114   7.345   4.365 -0.4147 -0.3767  0.2794
   61MOL    C2220542   0.169   7.433   4.460  0.0970  0.6717 -0.2997
   61MOL    C2320543   0.131   7.565   4.465  0.1737 -0.4345 -0.5500
   61MOL    C2420544   0.021   7.608   4.389  0.4375  1.0108 -0.5511
   61MOL    C2520545   8.035   7.513   4.299  0.0168  0.0392  0.2016
   61MOL    C2620546   0.015   7.392   4.275 -0.0445  0.1779  0.1102
   61MOL    O2720547   0.129   7.149   4.216  0.3158 -0.3150 -0.2119
   61MOL    H2820548   0.125   6.996   4.409 -3.5175 -0.2477 -0.3110
   61MOL    H2920549   0.008   7.106   4.463 -0.3081 -1.6907 -0.5913
   61MOL    H3020550   0.271   7.211   4.349 -0.7615 -0.7134  1.6835
   61MOL    H3120551   0.243   7.399   4.530 -1.8419  0.7762  1.8831
   61MOL    H3220552   0.171   7.644   4.527 -1.8750 -1.2962  1.9691
   61MOL    H3320553   8.050   7.702   4.397  0.8130  1.0783  1.3414
   61MOL    H3420554   7.956   7.547   4.235 -1.7608 -1.5501  1.5074
   61MOL    H3520555   8.059   7.327   4.197  1.9692 -2.0843  1.0089
   61MOL    C3620556   0.211   7.183   4.107  0.2341 -0.3638 -0.9504
   61MOL    C3720557   0.124   7.153   3.978  0.5843  0.2250  0.0544
   61MOL    C3820558   0.087   7.006   3.960  0.3983  0.0849 -0.2497
   61MOL    C3920559   0.177   6.917   3.894  0.0736 -0.0297 -0.4365
   61MOL    C4020560   0.125   6.789   3.863 -0.3109 -0.1873  0.1055
   61MOL    C4120561   8.072   6.756   3.892  0.1508  0.8143 -0.1695
   61MOL    C4220562   7.987   6.840   3.967  0.7974 -0.1206  0.6253
   61MOL    C4320563   8.037   6.964   4.003 -0.1478 -0.0704 -0.5517
   61MOL    O4420564   0.193   7.198   3.860 -0.2439  0.4306  0.0795
   61MOL    H4520565   0.241   7.288   4.107  1.1294 -0.6099  0.4898
   61MOL    H4620566   0.303   7.125   4.119  0.1964 -0.0017  1.2654
   61MOL    H4720567   0.032   7.209   3.996  0.1891 -0.8009  1.2960
   61MOL    H4820568   0.272   6.950   3.856  1.4112 -0.5134  2.3182
   61MOL    H4920569   0.178   6.732   3.787 -0.4039 -0.2222  0.0681
   61MOL    H5020570   8.030   6.670   3.842 -0.6076  1.9364 -1.5349
   61MOL    H5120571   7.883   6.814   3.983  0.8541 -0.9397 -0.3230
   61MOL    H5220572   7.965   7.026   4.056 -0.2354 -0.9233  0.3346
   61MOL    C5320573   0.153   7.326   3.796  0.2521  0.3911  0.2312
   61MOL    C5420574   0.029   7.299   3.711  0.1157 -0.2403  0.1374
   61MOL    C5520575   7.986   7.277   3.802  0.0946  0.1474  0.3536
   61MOL    C5620576   7.917   7.160   3.801 -0.3809 -0.2326 -0.1069
   61MOL    C5720577   7.802   7.143   3.876 -0.7427  0.6743 -0.4514
   61MOL    C5820578   7.752   7.241   3.963  0.0237  0.0107 -0.5394
   61MOL    C5920579   7.826   7.363   3.964  0.6077  0.2611 -0.4806
   61MOL    C6020580   7.939   7.384   3.891  0.0336 -0.1155  0.2696
   61MOL    O6120581   0.009   7.398   3.613  0.2494 -0.5077 -0.0233
   61MOL    H6220582   0.159   7.403   3.874 -0.3906  0.2714  0.4037
   61MOL    H6320583   0.227   7.355   3.722  1.4944 -2.8771  0.1103
   61MOL    H6420584   0.054   7.205   3.662  0.4153  0.2564 -0.6645
   61MOL    H6520585   7.953   7.087   3.730  2.9486  1.0560  0.1773
   61MOL    H6620586   7.747   7.050   3.878 -2.1630  1.5331  0.8493
   61MOL    H6720587   7.665   7.227   4.025 -0.4923 -2.4808 -1.7541
   61MOL    H6820588   7.792   7.446   4.024 -1.5557 -0.4693 -0.6692
   61MOL    H6920589   7.989   7.480   3.886 -0.2583  0.0068 -0.3508
   61MOL    C7020590   8.009   7.361   3.506  1.0653 -0.5263 -0.0751
   61MOL    C7120591   8.008   7.454   3.383  0.1329 -0.5605 -0.8458
   61MOL    C7220592   7.923   7.386   3.279  0.3761 -0.4382  0.0552
   61MOL    C7320593   7.984   7.290   3.200  0.1444  0.2473 -0.4806
   61MOL    C7420594   7.904   7.209   3.118 -0.3460  0.8946 -0.6784
   61MOL    C7520595   7.770   7.233   3.099  0.2747  0.3450  0.3848
   61MOL    C7620596   7.711   7.343   3.171  0.0836 -0.0598  0.2291
   61MOL    C7720597   7.788   7.412   3.267  0.3455 -0.4218  0.0436
   61MOL    O7820598   0.065   7.461   3.347 -0.9061  0.4986 -0.2420
   61MOL    H7920599   8.046   7.266   3.469 -1.8129 -0.5788 -3.0084
   61MOL    H8020600   7.907   7.351   3.543  0.6049 -1.4088 -1.5555
   61MOL    H8120601   7.965   7.552   3.402  1.8230  0.3002 -1.3643
   61MOL    H8220602   0.011   7.275   3.196 -0.1629 -1.9326 -1.9830
   61MOL    H8320603   7.932   7.132   3.048  3.0990  1.6493 -0.2219
   61MOL    H8420604   7.698   7.178   3.040 -0.8415  0.7261  1.3587
   61MOL    H8520605   7.605   7.362   3.169  0.3045  1.1658  0.2994
   61MOL    H8620606   7.738   7.481   3.334  0.6849 -1.4618  1.3789
   61MOL    C8720607   0.087   7.553   3.237 -0.3750 -0.4492 -0.8012
   61MOL    C8820608   0.236   7.591   3.256 -0.6242 -0.1623  0.1260
   61MOL    C8920609   0.259   7.711   3.168  0.7836 -0.0859  0.2490
   61MOL    C9020610   0.242   7.838   3.228 -0.0215  0.1539  0.0819
   61MOL    C9120611   0.252   7.952   3.150  0.0213 -0.2259  0.7092
   61MOL    C9220612   0.275   7.949   3.012 -0.3728  0.1491 -0.0901
   61MOL    C9320613   0.291   7.821   2.951 -0.5572 -0.0555  0.3242
   61MOL    C9420614   0.284   7.705   3.030 -0.0093  1.3454  0.6857
   61MOL    O9520615   0.329   7.489   3.223 -0.3257  0.0922  0.6019
   61MOL    H9620616   0.020   7.639   3.240 -0.9707 -0.9225 -0.3592
   61MOL    H9720617   0.063   7.504   3.143 -0.4186 -1.2479 -0.3825
   61MOL    H9820618   0.262   7.623   3.357  0.7941  0.1043 -0.3159
   61MOL    H9920619   0.216   7.857   3.331  0.4734  2.9388 -0.2581
   61MOL   H10020620   0.259   8.045   3.203 -0.7334 -0.8479  1.9257
   61MOL   H10120621   0.274   8.034   2.945  0.7060  0.5511  0.3962
   61MOL   H10220622   0.304   7.813   2.844 -3.1736 -0.2214 -0.0020
   61MOL   H10320623   0.289   7.610   2.979 -0.2733 -0.4931  3.9206
   61MOL   C10420624   0.361   7.385   3.315  0.3718  0.3566 -0.2250
   61MOL   C10520625   0.448   7.274   3.266  0.0145  0.2808 -0.1741
   61MOL   C10620626   0.585   7.330   3.253 -0.0597  0.0558  0.7341
   61MOL   C10720627   0.663   7.364   3.368  0.2003  0.0435 -0.1121
   61MOL   C10820628   0.792   7.416   3.366 -0.1061 -0.6318  0.1637
   61MOL   C10920629   0.847   7.430   3.238 -0.4888 -0.6343  0.2216
   61MOL   C11020630   0.784   7.392   3.120 -0.1302 -0.0933 -0.0437
   61MOL   C11120631   0.649   7.339   3.131 -0.0698 -0.5871  0.4861
   61MOL   O11220632   0.446   7.178   3.366 -0.3627  0.2769 -0.3999
   61MOL   H11320633   0.404   7.422   3.407 -3.7786 -1.8766  2.7811
   61MOL   H11420634   0.263   7.341   3.336 -1.3883  4.3078  0.2886
   61MOL   H11520635   0.407   7.244   3.169 -0.5643  0.7143 -0.0657
   61MOL   H11620636   0.619   7.352   3.466  0.6334  4.1440  0.6426
   61MOL   H11720637   0.841   7.444   3.458 -2.1044 -2.7091  1.9296
   61MOL   H11820638   0.940   7.485   3.229 -1.2045  0.7167  0.9242
   61MOL   H11920639   0.830   7.402   3.023  2.8169 -1.0134  1.2057
   61MOL   H12020640   0.602   7.306   3.040  0.2781 -0.1019  0.1304
   61MOL   C12120641   0.506   7.057   3.325  0.0540  0.6605  0.3910
   61MOL   C12220642   0.497   6.956   3.442  0.5460  0.5988 -0.1150
   61MOL   C12320643   0.355   6.908   3.454  0.0060 -0.1417  0.2745
   61MOL   C12420644   0.265   6.975   3.543  0.2474  0.0757 -0.5417
   61MOL   C12520645   0.132   6.934   3.542  0.2981  0.6713  0.1000
   61MOL   C12620646   0.084   6.827   3.467  1.1856  0.8414  0.3838
   61MOL   C12720647   0.174   6.762   3.384 -0.3948 -0.5920 -0.3844
   61MOL   C12820648   0.307   6.803   3.372 -0.2839 -0.6488 -0.6261
   61MOL   O12920649   0.581   6.846   3.408 -0.1594 -0.1056  0.1924
   61MOL   H13020650   0.610   7.069   3.294 -0.4365  1.7308 -0.8507
   61MOL   H13120651   0.460   7.006   3.241 -1.2461  0.7989  1.0125
   61MOL   H13220652   0.534   7.000   3.534  0.3721  1.0914 -0.2771
   61MOL   H13320653   0.291   7.057   3.608 -0.1045 -0.6057  0.4836
   61MOL   H13420654   0.066   6.997   3.600  3.1820  2.2352  1.7789
   61MOL   H13520655   8.062   6.804   3.494  0.9861  1.5937  0.2782
   61MOL   H13620656   0.135   6.674   3.336 -2.9829  0.3482 -0.0892
   61MOL   H13720657   0.375   6.750   3.307 -0.5432 -1.6729 -0.0911
   61MOL   C13820658   0.625   6.757   3.514  0.4458 -0.4511 -0.2918
   61MOL   C13920659   0.699   6.635   3.447 -0.0157  0.0909  0.6208
   61MOL   C14020660   0.772   6.545   3.545 -0.0195 -0.8743  0.3966
   61MOL   C14120661   0.909   6.537   3.548 -0.0720 -0.1523  0.4299
   61MOL   C14220662   0.974   6.461   3.651  0.1453 -0.2028 -0.7005
   61MOL   C14320663   0.901   6.382   3.738 -0.9008 -0.6225 -0.5130
   61MOL   C14420664   0.758   6.374   3.717 -0.0408 -0.6532  0.3957
   61MOL   C14520665   0.692   6.461   3.629 -0.1271  0.2975 -0.5503
   61MOL   O14620666   0.614   6.566   3.365  0.1196  0.5083  0.5733
   61MOL   H14720667   0.542   6.716   3.572  1.1109 -0.5277  0.6052
   61MOL   H14820668   0.693   6.808   3.582 -3.2373  3.9465  0.3867
   61MOL   H14920669   0.776   6.678   3.384 -0.8850 -3.0772 -2.7528
   61MOL   H15020670   0.968   6.600   3.483 -2.2769  1.7603  0.2198
   61MOL   H15120671   1.082   6.466   3.656  0.0960 -0.0182  0.1720
   61MOL   H15220672   0.960   6.317   3.800 -0.8585 -1.9933 -1.9530
   61MOL   H15320673   0.706   6.299   3.775 -1.9794 -0.4882 -1.0649
   61MOL   H15420674   0.584   6.471   3.621 -0.2344  0.5828  1.0646
   61MOL   C15520675   0.670   6.477   3.266  0.5692  0.5460 -0.5137
   61MOL   C15620676   0.710   6.542   3.132  0.0634 -0.4171  0.3218
   61MOL   C15720677   0.597   6.613   3.067 -0.6873 -0.0999 -0.5326
   61MOL   C15820678   0.565   6.746   3.100  0.3307  0.0819  0.5385
   61MOL   C15920679   0.450   6.807   3.039 -0.1714  0.0511  0.9110
   61MOL   C16020680   0.361   6.729   2.961 -0.2818 -0.1954 -0.9241
   61MOL   C16120681   0.386   6.591   2.940  0.6116  0.1852  0.3708
   61MOL   C16220682   0.507   6.537   2.992 -0.5138 -0.5780 -0.8143
   61MOL   O16320683   0.824   6.630   3.156 -0.6334  0.5064  0.9191
   61MOL   H16420684   0.581   6.416   3.252  0.2578  1.1173 -1.0539
   61MOL   H16520685   0.750   6.415   3.307 -1.3548 -1.4716  0.3238
   61MOL   H16620686   0.738   6.461   3.066  0.0886 -0.4353  0.3549
   61MOL   H16720687   0.630   6.799   3.168 -1.6595  1.0603  1.6904
   61MOL   H16820688   0.420   6.907   3.066  0.0400 -0.2530  2.2942
   61MOL   H16920689   0.277   6.778   2.914 -1.8074  1.6899  3.4577
   61MOL   H17020690   0.317   6.526   2.887  0.0965  1.1575 -0.1657
   61MOL   H17120691   0.522   6.430   2.986 -1.8633 -0.8099 -0.1877
   61MOL   C17220692   0.956   6.573   3.140 -0.8877 -0.3376 -0.1577
   61MOL   C17320693   1.040   6.632   3.021  0.0537  0.3012  0.3944
   61MOL   C17420694   1.050   6.783   3.036 -0.1964 -0.0548  0.5153
   61MOL   C17520695   0.941   6.863   2.996  0.3592  0.6916  0.0815
   61MOL   C17620696   0.938   7.002   3.027  1.0812  0.4335  0.8967
   61MOL   C17720697   1.057   7.051   3.086 -1.1768  0.2433 -0.7843
   61MOL   C17820698   1.180   6.982   3.090  0.6419 -0.2203 -0.4244
   61MOL   C17920699   1.172   6.845   3.067  0.3637 -0.6331  0.0002
   61MOL   O18020700   0.971   6.585   2.904 -0.0124 -0.3229 -0.4164
   61MOL   H18120701   1.006   6.600   3.233 -0.8319  0.5264 -0.4375
   61MOL   H18220702   0.952   6.464   3.132  0.7439 -0.3604 -1.0475
   61MOL   H18320703   1.139   6.586   3.019  0.9424  2.1691  0.8362
   61MOL   H18420704   0.855   6.810   2.957  2.3008 -2.9448  0.6122
   61MOL   H18520705   0.851   7.060   3.003  0.3111 -1.3502 -0.7926
   61MOL   H18620706   1.063   7.151   3.127  1.0878  0.1423 -0.7865
   61MOL   H18720707   1.276   7.025   3.115  1.6936 -2.3243 -0.7690
   61MOL   H18820708   1.257   6.782   3.085 -0.8359 -2.5713 -0.9405
   61MOL   C18920709   1.053   6.610   2.786 -0.4769  0.0600  0.1370
   61MOL   C19020710   0.963   6.620   2.668 -0.1441 -0.4973  0.4529
   61MOL   C19120711   0.905   6.478   2.638 -0.7213  0.2023 -0.4344
   61MOL   C19220712   0.785   6.443   2.704  0.1428  0.6755 -0.3406
   61MOL   C19320713   0.739   6.309   2.708 -0.1766  0.0146 -0.3151
   61MOL   C19420714   0.811   6.213   2.640  0.0281 -0.1724 -0.6426
   61MOL   C19520715   0.919   6.249   2.555  0.0896 -0.1668  0.1010
   61MOL   C19620716   0.967   6.381   2.553 -0.1844  0.4435 -1.3726
   61MOL   O19720717   1.038   6.671   2.557 -0.1181 -0.3130  0.3087
   61MOL   H19820718   1.085   6.713   2.800 -0.5271 -0.3354  3.5512
   61MOL   H19920719   1.135   6.540   2.771 -0.4959 -0.6866  3.1764
   61MOL   H20020720   0.894   6.698   2.698 -1.1029 -0.7213 -1.0933
   61MOL   H20120721   0.718   6.511   2.755 -0.2268 -0.0427  0.1459
   61MOL   H20220722   0.651   6.289   2.768  0.2206 -1.0301 -0.0587
   61MOL   H20320723   0.775   6.112   2.635  1.5215 -0.7380 -0.0496
   61MOL   H20420724   0.964   6.168   2.500  0.2869 -0.2794  0.4245
   61MOL   H20520725   1.050   6.420   2.495  0.5500  2.6199  1.0661
   61MOL   C20620726   0.956   6.702   2.441 -0.5764  0.0044  0.1111
   61MOL   C20720727   1.059   6.715   2.324  0.4207  0.0768  0.2824
   61MOL   C20820728   0.981   6.748   2.202  0.0133  0.2156  0.3231
   61MOL   C20920729   0.874   6.665   2.149 -0.1359 -0.3673 -0.2865
   61MOL   C21020730   0.814   6.693   2.023 -0.3032 -0.7723 -0.5829
   61MOL   C21120731   0.836   6.819   1.965 -0.1544 -0.3398  0.2811
   61MOL   C21220732   0.935   6.902   2.017 -0.9644  0.4477 -0.2694
   61MOL   C21320733   1.015   6.871   2.130  0.4908 -0.0231  0.0747
   61MOL   O21420734   1.124   6.592   2.299  0.4859 -0.0898 -0.0549
   61MOL   H21520735   0.883   6.622   2.432 -1.3035  0.6369  0.2879
   61MOL   H21620736   0.910   6.800   2.458 -1.5500 -0.4681  0.2706
   61MOL   H21720737   1.126   6.797   2.349 -0.6721  1.4259 -1.1210
   61MOL   H21820738   0.851   6.577   2.206  1.6228 -1.1398 -0.7462
   61MOL   H21920739   0.736   6.625   1.991  0.2289 -2.3231  1.2639
   61MOL   H22020740   0.782   6.848   1.877 -1.6172  2.2897  1.9775
   61MOL   H22120741   0.943   6.996   1.964  1.0179  0.9632  0.8710
   61MOL   H22220742   1.083   6.939   2.178  2.2575  0.9706 -3.6751
   61MOL   C22320743   1.241   6.598   2.220 -0.1830  0.6189 -0.6078
   61MOL   C22420744   1.377   6.595   2.305  0.2837 -0.0650 -0.3845
   61MOL   C22520745   1.496   6.607   2.213 -0.6179 -0.8298  0.4046
   61MOL   C22620746   1.535   6.491   2.134  0.2255 -0.0021  0.2063
   61MOL   C22720747   1.647   6.507   2.051  0.0057  0.3808 -0.0989
   61MOL   C22820748   1.725   6.624   2.044  0.2634  0.1319  0.4857
   61MOL   C22920749   1.702   6.727   2.136 -0.2595  0.0917 -0.0499
   61MOL   C23020750   1.588   6.723   2.220  0.4399  0.1108  0.1053
   61MOL   O23120751   1.377   6.699   2.401 -0.5674  0.5423 -0.4073
   61MOL   H23220752   1.244   6.516   2.149  2.8917  0.9261 -0.9182
   61MOL   H23320753   1.255   6.687   2.158  0.9507  0.0991 -1.0954
   61MOL   H23420754   1.384   6.498   2.353 -0.4009 -1.1117 -2.3585
   61MOL   H23520755   1.486   6.395   2.143 -0.6346  0.3317 -0.8105
   61MOL   H23620756   1.677   6.422   1.990  0.1847 -0.5576  1.2729
   61MOL   H23720757   1.817   6.622   1.987 -0.1516  1.1516 -0.2328
   61MOL   H23820758   1.773   6.809   2.136  0.6297 -0.6236 -3.3703
   61MOL   H23920759   1.573   6.810   2.282 -1.0781  0.8034 -1.1996
   61MOL   C24020760   1.349   6.655   2.532  0.2380  0.4258  0.0581
   61MOL   C24120761   1.491   6.632   2.593  0.2480  0.3221 -0.2754
   61MOL   C24220762   1.475   6.639   2.747 -0.1369 -0.4498  0.5593
   61MOL   C24320763   1.460   6.519   2.815  0.3516 -0.0649 -0.5035
   61MOL   C24420764   1.460   6.526   2.958  0.0865  1.1218  0.1069
   61MOL   C24520765   1.474   6.651   3.021 -0.1962 -0.7129  0.0555
   61MOL   C24620766   1.485   6.770   2.949 -0.5602  0.4709 -0.1413
   61MOL   C24720767   1.473   6.764   2.810 -0.0763 -0.5017  0.2536
   61MOL   O24820768   1.542   6.501   2.563 -0.0187  0.0837 -0.2535
   61MOL   H24920769   1.302   6.742   2.578  0.1388  0.5288 -0.2367
   61MOL   H25020770   1.282   6.570   2.539  1.2271 -0.6276 -2.5250
   61MOL   H25120771   1.560   6.711   2.563  0.0260  0.0230 -1.6186
   61MOL   H25220772   1.473   6.419   2.776  0.1955 -1.8123  3.6901
   61MOL   H25320773   1.470   6.435   3.016 -1.0811 -0.1997 -1.6828
   61MOL   H25420774   1.470   6.658   3.129  0.0662  1.8864 -0.0817
   61MOL   H25520775   1.490   6.861   3.007  0.6604 -0.8930  1.9708
   61MOL   H25620776   1.478   6.854   2.750 -1.2752 -0.4073  0.2790
   61MOL   C25720777   1.680   6.503   2.534  0.6231  0.3552  0.1701
   61MOL   C25820778   1.729   6.362   2.495 -0.7524  0.1283  0.1551
   61MOL   C25920779   1.881   6.368   2.481  0.2493 -0.3283 -0.2881
   61MOL   C26020780   1.968   6.295   2.562  0.4364 -0.6853  0.4889
   61MOL   C26120781   2.108   6.310   2.548 -0.0952  0.2158  0.5695
   61MOL   C26220782   2.156   6.389   2.449  0.1215  0.5688  0.3431
   61MOL   C26320783   2.078   6.459   2.361 -0.7334 -0.3067  0.0800
   61MOL   C26420784   1.941   6.455   2.385  0.2953 -0.4732  0.1425
   61MOL   O26520785   1.669   6.316   2.371  0.2619  0.1395 -0.3163
   61MOL   H26620786   1.740   6.518   2.623  0.3700 -2.4663  0.8869
   61MOL   H26720787   1.704   6.591   2.475 -1.7919  0.5479 -0.5879
   61MOL   H26820788   1.705   6.283   2.566  1.5680  1.4660  2.5414
   61MOL   H26920789   1.918   6.247   2.645  0.0607  0.5541  0.9907
   61MOL   H27020790   2.180   6.269   2.618  0.6703  3.7952  1.9586
   61MOL   H27120791   2.264   6.395   2.442  0.1137  0.6975  0.3339
   61MOL   H27220792   2.127   6.518   2.285 -3.1645 -2.2551 -3.0960
   61MOL   H27320793   1.878   6.514   2.320 -0.2035 -0.6369  0.4724
   61MOL   C27420794   1.704   6.177   2.331 -0.2658  0.1404  0.2584
   61MOL   C27520795   1.613   6.068   2.391  0.3837 -0.3290 -0.6427
   61MOL   C27620796   1.470   6.119   2.372 -0.0912  0.1426  0.4247
   61MOL   C27720797   1.414   6.207   2.471 -0.4324 -0.4098  0.0551
   61MOL   C27820798   1.280   6.261   2.455  0.1030  0.6085  0.1187
   61MOL   C27920799   1.206   6.218   2.337 -0.1669 -0.4179  0.1506
   61MOL   C28020800   1.269   6.143   2.232 -0.4057  0.1980 -0.0825
   61MOL   C28120801   1.403   6.094   2.251  0.0303  0.1194  0.3591
   61MOL   O28220802   1.653   6.029   2.522 -0.4335  0.6269 -0.4457
   61MOL   H28320803   1.691   6.163   2.223  0.0756  1.3616  0.0589
   61MOL   H28420804   1.812   6.161   2.340 -0.1354 -0.3662 -1.9140
   61MOL   H28520805   1.625   5.982   2.325  1.3489  0.5917 -1.6861
   61MOL   H28620806   1.477   6.238   2.552 -1.0999  0.5227  0.2306
   61MOL   H28720807   1.233   6.317   2.534  1.8606  0.7905  1.0690
   61MOL   H28820808   1.103   6.242   2.315 -0.6445 -3.1227 -0.7586
   61MOL   H28920809   1.226   6.113   2.138 -1.9079  2.2187 -0.0808
   61MOL   H29020810   1.446   6.031   2.174 -0.8360 -1.5053  1.1720
   61MOL   C29120811   1.563   5.938   2.578  0.4460 -0.1511 -0.2270
   61MOL   C29220812   1.594   5.890   2.719 -0.7287 -0.7480  0.1900
   61MOL   C29320813   1.718   5.807   2.735  0.1106  0.6945  0.2555
   61MOL   C29420814   1.842   5.866   2.773 -0.1272 -0.8048  0.1943
   61MOL   C29520815   1.953   5.781   2.804  0.5122  0.1921 -0.5544
   61MOL   C29620816   1.941   5.643   2.795  0.9733  0.8541 -0.3053
   61MOL   C29720817   1.813   5.589   2.762  0.3448 -0.2581 -0.0376
   61MOL   C29820818   1.702   5.668   2.730  0.0446  0.4102  0.0280
   61MOL   O29920819   1.573   6.005   2.804 -0.1899 -0.2448  0.4304
   61MOL   H30020820   1.548   5.849   2.518 -2.9485  0.1509  0.0443
   61MOL   H30120821   1.461   5.978   2.579  0.5410  0.1001 -0.5213
   61MOL   H30220822   1.510   5.822   2.729 -1.7324 -0.1029 -3.1120
   61MOL   H30320823   1.849   5.973   2.781 -0.0897 -0.7907 -0.0219
   61MOL   H30420824   2.051   5.821   2.828  0.4932 -0.4904  0.7173
   61MOL   H30520825   2.032   5.586   2.813  0.3197  0.0701  0.5768
   61MOL   H30620826   1.801   5.482   2.756  1.0069 -0.3841  0.7110
   61MOL   H30720827   1.608   5.620   2.707  0.5126 -0.1383 -0.7861
   61MOL   C30820828   1.544   5.974   2.943  0.1044 -0.2301 -0.2631
   61MOL   C30920829   1.517   6.106   3.019 -0.1232  0.5681  0.2847
   61MOL   C31020830   1.374   6.152   2.998  0.6853  0.1845  0.2053
   61MOL   C31120831   1.326   6.212   2.883  0.0229  0.1409 -0.3156
   61MOL   C31220832   1.196   6.256   2.863  0.1832  0.8747  0.2326
   61MOL   C31320833   1.102   6.238   2.964 -0.2375 -0.4986  0.8672
   61MOL   C31420834   1.146   6.167   3.078  0.3869 -0.7744  0.7262
   61MOL   C31520835   1.276   6.127   3.092 -0.0328  0.2826  0.0760
   61MOL   O31620836   1.541   6.082   3.161  0.6181 -0.7398  0.4447
   61MOL   H31720837   1.622   5.907   2.978 -0.4455 -2.1362 -2.5287
   61MOL   H31820838   1.455   5.911   2.941  0.6767 -1.0836  0.9312
   61MOL   H31920839   1.582   6.182   2.977  0.4528  0.3361  0.7464
   61MOL   H32020840   1.396   6.239   2.805  0.0870 -0.4921 -0.4765
   61MOL   H32120841   1.171   6.302   2.768  0.9596  1.0216  0.1010
   61MOL   H32220842   1.002   6.270   2.944 -0.1183 -1.0469 -0.6803
   61MOL   H32320843   1.075   6.158   3.159  0.9479  0.2362  1.3398
   61MOL   H32420844   1.300   6.082   3.187 -0.6081  1.7933  0.9562
   61MOL   C32520845   1.576   6.207   3.227 -0.0371  0.5779 -0.2744
   61MOL   C32620846   1.595   6.154   3.370 -0.5743  0.1391 -0.1798
   61MOL   C32720847   1.476   6.084   3.438  0.7178  0.6859  0.0418
   61MOL   C32820848   1.368   6.169   3.468 -0.3093  0.0208  0.2882
   61MOL   C32920849   1.251   6.120   3.525  0.0055  0.6407  0.0704
   61MOL   C33020850   1.244   5.982   3.562  0.1758 -0.3016 -0.3964
   61MOL   C33120851   1.348   5.896   3.530  0.3844 -0.5855 -0.2128
   61MOL   C33220852   1.469   5.951   3.476  0.2539  0.5418 -0.0775
   61MOL   O33320853   1.703   6.066   3.364 -0.4213  0.0930  0.2372
   61MOL   H33420854   1.508   6.291   3.213 -1.5709 -0.9182 -2.0699
   61MOL   H33520855   1.668   6.247   3.183  0.8592 -1.7762 -0.6072
   61MOL   H33620856   1.619   6.239   3.435  1.2416  0.9453 -1.8258
   61MOL   H33720857   1.351   6.267   3.425 -2.2533 -0.1158  0.6720
   61MOL   H33820858   1.165   6.183   3.540 -1.2822 -0.8648 -0.8155
   61MOL   H33920859   1.152   5.940   3.600 -0.2148 -1.2804 -2.3334
   61MOL   H34020860   1.344   5.789   3.546  0.5773 -0.6025 -0.2684
   61MOL   H34120861   1.550   5.881   3.458  0.7681  0.8061  1.0993
   61MOL   H34220862   1.680   6.003   3.297  1.7062 -1.2112  0.6699
   62MOL     C120863   7.581   0.293   1.799 -0.3896  0.5145  0.4096
   62MOL     C220864   7.612   0.450   1.779 -0.4208  0.3395  0.8512
   62MOL     C320865   7.741   0.450   1.701 -0.8512 -0.3835 -0.3723
   62MOL     C420866   7.736   0.469   1.562  0.9715  0.2151  0.5495
   62MOL     C520867   7.858   0.486   1.493  0.5695 -0.3721  0.4664
   62MOL     C620868   7.979   0.462   1.558 -1.0604  0.1304 -0.8973
   62MOL     C720869   7.987   0.454   1.696  1.0855  0.2735 -0.3521
   62MOL     C820870   7.864   0.447   1.772  0.4090  0.1816 -0.4406
   62MOL     O920871   7.615   0.498   1.912  0.4266 -0.3600 -0.2684
   62MOL    H1020872   7.486   0.265   1.844  0.8490 -1.9494  1.6020
   62MOL    H1120873   7.580   0.240   1.704  0.3595 -0.7280  1.0837
   62MOL    H1220874   7.540   0.497   1.712  1.5727  2.1700 -0.0627
   62MOL    H1320875   7.648   0.478   1.499  0.5415 -2.1562  0.7681
   62MOL    H1420876   7.854   0.494   1.386  1.2617 -3.8532  0.1496
   62MOL    H1520877   8.068   0.472   1.499  0.9522 -0.1467  2.0089
   62MOL    H1620878   8.074   0.435   1.756 -0.0054 -1.5345  0.7300
   62MOL    H1720879   7.866   0.418   1.876 -0.2476  1.6996  0.0132
   62MOL    H1820880   7.657   0.245   1.861  0.4346 -0.3704 -1.2742
   62MOL    C1920881   7.561   0.629   1.916  0.3560  0.2376  0.5629
   62MOL    C2020882   7.541   0.706   2.048 -0.8204 -0.6191 -0.3658
   62MOL    C2120883   7.455   0.629   2.146 -0.1959 -0.5866  0.0551
   62MOL    C2220884   7.320   0.619   2.115 -0.0026  1.1220  0.5927
   62MOL    C2320885   7.236   0.531   2.192 -0.0458 -0.0327 -0.4506
   62MOL    C2420886   7.284   0.460   2.306 -0.2501  0.1372 -0.2220
   62MOL    C2520887   7.423   0.473   2.335  1.2293 -0.5221  0.0197
   62MOL    C2620888   7.509   0.563   2.259  0.9171  0.5047 -0.7016
   62MOL    O2720889   7.491   0.833   2.023  0.0606  0.1357  0.7811
   62MOL    H2820890   7.622   0.696   1.855 -0.8756  1.0731  0.2260
   62MOL    H2920891   7.463   0.634   1.869  0.8452 -1.1983 -0.6063
   62MOL    H3020892   7.637   0.722   2.097 -0.0730 -0.5553 -1.8316
   62MOL    H3120893   7.282   0.676   2.031  0.1212 -0.6671 -0.6898
   62MOL    H3220894   7.131   0.535   2.167 -0.5382  0.1007  1.5157
   62MOL    H3320895   7.219   0.388   2.353  0.1886 -0.5398 -0.6496
   62MOL    H3420896   7.464   0.428   2.424 -1.0837 -0.3260  1.2047
   62MOL    H3520897   7.613   0.573   2.287  0.7742 -1.5238  0.7030
   62MOL    C3620898   7.488   0.933   2.124 -0.4514 -0.0629  0.6907
   62MOL    C3720899   7.630   0.981   2.166 -0.6423  0.7998 -0.5700
   62MOL    C3820900   7.632   1.090   2.269  0.3218 -0.7282  0.6454
   62MOL    C3920901   7.576   1.076   2.402  0.4743 -0.2020  0.5632
   62MOL    C4020902   7.579   1.177   2.501 -0.4195 -0.2512 -1.0340
   62MOL    C4120903   7.659   1.289   2.468 -0.0952  0.2086  0.0796
   62MOL    C4220904   7.703   1.315   2.337 -0.5332 -0.5778  0.1786
   62MOL    C4320905   7.677   1.219   2.237 -0.5440  0.7303 -0.0731
   62MOL    O4420906   7.689   1.027   2.042 -0.0839 -0.2896 -0.2466
   62MOL    H4520907   7.432   1.023   2.100  0.1889 -0.3250 -2.0520
   62MOL    H4620908   7.440   0.892   2.212 -0.6483 -0.2546  0.4965
   62MOL    H4720909   7.683   0.904   2.222  1.0644  0.6613 -2.3151
   62MOL    H4820910   7.535   0.979   2.427 -1.4649  0.9038  1.7699
   62MOL    H4920911   7.558   1.149   2.603 -1.4509  0.6303 -1.0023
   62MOL    H5020912   7.691   1.362   2.541  1.2221  0.1380 -0.4020
   62MOL    H5120913   7.756   1.406   2.314 -2.5906  0.8076  0.7408
   62MOL    H5220914   7.728   1.241   2.144  1.7371  0.8893  1.1849
   62MOL    C5320915   7.809   0.951   2.018  0.0031 -0.7380  0.3039
   62MOL    C5420916   7.888   1.007   1.898 -0.2335 -0.6296 -0.7777
   62MOL    C5520917   8.034   0.983   1.902 -0.7422 -0.6324 -0.3227
   62MOL    C5620918   0.048   1.087   1.885  0.1522 -0.1129 -0.8868
   62MOL    C5720919   0.186   1.067   1.888 -0.3512 -0.5043  0.0495
   62MOL    C5820920   0.239   0.939   1.903  0.4080 -0.0127 -0.4571
   62MOL    C5920921   0.146   0.833   1.919 -0.7515  0.3614 -0.1114
   62MOL    C6020922   0.008   0.852   1.926 -0.1568  0.2143  0.0601
   62MOL    O6120923   7.834   0.963   1.778  0.1385  0.8234 -0.0218
   62MOL    H6220924   7.868   0.960   2.110 -0.4170 -3.0873  0.8255
   62MOL    H6320925   7.807   0.842   2.011 -0.3737 -0.9244  2.7402
   62MOL    H6420926   7.860   1.112   1.894 -0.5293 -0.6343  0.6600
   62MOL    H6520927   0.008   1.187   1.878  0.0161  0.0889  1.9685
   62MOL    H6620928   0.246   1.156   1.878 -1.3659  0.0125 -1.5838
   62MOL    H6720929   0.344   0.928   1.880  0.3924 -0.0228 -0.5232
   62MOL    H6820930   0.190   0.735   1.905 -0.2696  0.5101  0.3558
   62MOL    H6920931   8.035   0.757   1.929  0.4595 -0.1453 -0.2435
   62MOL    C7020932   7.862   1.045   1.670 -0.0937  0.1091  0.3660
   62MOL    C7120933   7.848   0.977   1.531  0.0612 -0.2625 -0.0162
   62MOL    C7220934   7.733   0.896   1.499 -0.0592  0.0954 -0.5482
   62MOL    C7320935   7.745   0.808   1.387  0.6232 -0.1765 -0.8392
   62MOL    C7420936   7.637   0.735   1.348  0.3362 -0.4028  0.7281
   62MOL    C7520937   7.514   0.751   1.408 -0.3060  0.1974  0.3193
   62MOL    C7620938   7.500   0.827   1.528 -0.2981 -0.9182  0.0165
   62MOL    C7720939   7.607   0.903   1.569  0.8367  0.4313  0.5720
   62MOL    O7820940   7.963   0.923   1.478 -0.3015  0.1353  0.1361
   62MOL    H7920941   7.796   1.131   1.682 -0.0608  0.8002 -3.7677
   62MOL    H8020942   7.962   1.087   1.668  0.5702 -1.4852 -0.5430
   62MOL    H8120943   7.832   1.059   1.461 -1.8115 -0.8483 -0.3080
   62MOL    H8220944   7.837   0.788   1.334  0.1899 -2.5236 -0.7523
   62MOL    H8320945   7.656   0.661   1.272 -2.9105 -0.6360  0.1082
   62MOL    H8420946   7.424   0.696   1.384 -0.0742  0.4200 -1.0870
   62MOL    H8520947   7.402   0.837   1.574 -0.0087  0.6115  0.3156
   62MOL    H8620948   7.589   0.977   1.646 -0.1699 -0.5330  1.2889
   62MOL    C8720949   8.029   0.822   1.557  0.0178  0.1199  0.1792
   62MOL    C8820950   0.082   0.780   1.480 -0.1185 -0.0290 -0.2036
   62MOL    C8920951   0.064   0.727   1.337 -0.1666  0.3921  0.2570
   62MOL    C9020952   0.093   0.595   1.301 -0.3379  0.2657  0.6881
   62MOL    C9120953   0.079   0.549   1.167  0.0428 -0.4957 -0.2781
   62MOL    C9220954   0.028   0.636   1.074  0.0538 -0.0985  0.6907
   62MOL    C9320955   0.002   0.773   1.100  0.6837  0.0931  0.3546
   62MOL    C9420956   0.014   0.809   1.233 -0.1138 -0.0674 -0.0820
   62MOL    O9520957   0.164   0.689   1.554 -0.1560  0.0774 -0.5489
   62MOL    H9620958   7.967   0.736   1.582 -0.0618  0.1243 -0.0012
   62MOL    H9720959   8.063   0.859   1.654  3.0168 -1.4130 -0.2409
   62MOL    H9820960   0.144   0.868   1.468 -1.6861  0.9739 -1.1069
   62MOL    H9920961   0.130   0.535   1.383 -0.5450  1.2681  1.5291
   62MOL   H10020962   0.091   0.447   1.135  0.8158 -0.3366 -0.5093
   62MOL   H10120963   0.015   0.598   0.973  0.8119  0.0332  0.5424
   62MOL   H10220964   8.046   0.838   1.021 -0.7140 -0.2867  0.6797
   62MOL   H10320965   8.067   0.912   1.252 -0.6192 -0.1882 -0.1308
   62MOL   C10420966   0.300   0.732   1.575  0.6606 -0.4664 -0.4673
   62MOL   C10520967   0.384   0.609   1.616  0.2586 -0.1600  0.1074
   62MOL   C10620968   0.352   0.547   1.753  0.8360 -0.4832  0.2544
   62MOL   C10720969   0.430   0.579   1.862  0.2127  0.5990  0.1156
   62MOL   C10820970   0.389   0.534   1.988 -0.2777 -0.3278  0.2456
   62MOL   C10920971   0.278   0.451   2.006  0.3235  0.3783  0.0386
   62MOL   C11020972   0.205   0.416   1.894 -0.0736 -0.4259 -0.3972
   62MOL   C11120973   0.238   0.461   1.766 -0.7457 -0.8614  0.5374
   62MOL   O11220974   0.359   0.521   1.510  0.4181 -0.2234 -1.0672
   62MOL   H11320975   0.328   0.768   1.476 -0.0403 -0.2800 -0.6031
   62MOL   H11420976   0.308   0.820   1.638  0.0631 -1.0024  0.3628
   62MOL   H11520977   0.490   0.634   1.607  0.3426 -0.3400  0.5450
   62MOL   H11620978   0.522   0.636   1.854 -0.8149  2.3016  0.1482
   62MOL   H11720979   0.460   0.549   2.069  0.7479  0.1051 -0.7293
   62MOL   H11820980   0.250   0.410   2.103 -2.9666  0.6819 -0.7246
   62MOL   H11920981   0.120   0.350   1.904  0.0202 -0.2500  1.7721
   62MOL   H12020982   0.183   0.423   1.682  0.2006 -0.6519 -0.1777
   62MOL   C12120983   0.454   0.420   1.492 -0.1939  0.0038 -0.3220
   62MOL   C12220984   0.481   0.380   1.349 -0.0212  0.0220  0.6885
   62MOL   C12320985   0.564   0.495   1.285 -0.3892 -0.4365  1.4404
   62MOL   C12420986   0.699   0.507   1.319 -0.8766  0.1343 -0.2290
   62MOL   C12520987   0.770   0.624   1.275 -0.5194  0.0733 -0.0827
   62MOL   C12620988   0.707   0.716   1.185 -0.9985 -0.3675 -0.1559
   62MOL   C12720989   0.576   0.701   1.143 -0.0627 -0.1228 -0.4170
   62MOL   C12820990   0.504   0.594   1.205 -0.5415  0.5676 -0.3513
   62MOL   O12920991   0.547   0.255   1.338 -0.2686 -0.2490 -0.0053
   62MOL   H13020992   0.421   0.323   1.530 -1.9088  0.7021  0.0336
   62MOL   H13120993   0.542   0.432   1.556 -0.4327 -0.2936  0.0654
   62MOL   H13220994   0.380   0.371   1.310  0.2621 -1.5353  0.2941
   62MOL   H13320995   0.750   0.436   1.383  0.2600  1.2782  0.1538
   62MOL   H13420996   0.872   0.648   1.298 -0.3548  0.6615 -1.4443
   62MOL   H13520997   0.762   0.801   1.147 -3.0526  1.3720  0.6948
   62MOL   H13620998   0.530   0.773   1.078 -2.3132 -0.2116  1.0056
   62MOL   H13720999   0.397   0.591   1.197 -0.6132 -0.6422  0.8680
   62MOL   C13821000   0.549   0.206   1.205  0.2420 -0.0743 -0.8037
   62MOL   C13921001   0.534   0.051   1.188  0.1226  0.0867  0.1542
   62MOL   C14021002   0.632   8.038   1.260 -0.3433 -0.0055 -0.2343
   62MOL   C14121003   0.575   7.918   1.319 -1.0564  0.3417 -0.4484
   62MOL   C14221004   0.666   7.822   1.378  0.2709 -0.7616  0.1911
   62MOL   C14321005   0.807   7.845   1.377 -0.0704 -0.2059 -0.2621
   62MOL   C14421006   0.860   7.958   1.326 -0.3511 -0.1401  0.1797
   62MOL   C14521007   0.776   8.053   1.261 -0.0683  0.2615  0.5523
   62MOL   O14621008   0.397   0.013   1.200 -0.4891  0.6302 -0.3530
   62MOL   H14721009   0.635   0.240   1.148 -0.7383 -1.7792 -3.3975
   62MOL   H14821010   0.481   0.267   1.145  1.9619  3.1681  0.4214
   62MOL   H14921011   0.555   0.024   1.085 -0.5336 -0.6870  0.2241
   62MOL   H15021012   0.472   7.888   1.311 -0.3437 -2.2763 -0.6210
   62MOL   H15121013   0.621   7.734   1.421 -0.8701  0.0462  0.6487
   62MOL   H15221014   0.870   7.770   1.422  1.6407  2.2007  1.5266
   62MOL   H15321015   0.967   7.971   1.322 -0.2466 -1.3227 -2.1772
   62MOL   H15421016   0.820   0.063   1.221  1.0311 -0.2793  0.5479
   62MOL   C15521017   0.321   0.040   1.324 -0.2303  1.3404  0.3336
   62MOL   C15621018   0.180   8.063   1.316 -0.1629 -0.1874  0.2020
   62MOL   C15721019   0.093   0.074   1.229  0.1463  0.0741 -0.0352
   62MOL   C15821020   0.006   0.167   1.287 -0.3670  0.4852 -0.0765
   62MOL   C15921021   7.998   0.238   1.202 -0.1474 -0.3673  0.1842
   62MOL   C16021022   8.000   0.226   1.062  0.2066  0.3915  0.1626
   62MOL   C16121023   0.008   0.136   1.008  0.3021  0.4583  0.2593
   62MOL   C16221024   0.102   0.065   1.087 -0.9876 -0.5545 -0.0886
   62MOL   O16321025   0.186   7.933   1.262  0.0440  0.0747 -0.2103
   62MOL   H16421026   0.314   0.146   1.348  0.8832  1.3701  0.5444
   62MOL   H16521027   0.360   8.073   1.415  3.1067  1.4888 -0.9615
   62MOL   H16621028   0.149   8.072   1.420 -0.7249  0.9108 -0.0439
   62MOL   H16721029   8.079   0.171   1.395  0.6913  0.9810 -0.0228
   62MOL   H16821030   7.928   0.302   1.254  1.2286  1.2495  0.0590
   62MOL   H16921031   7.930   0.284   1.005 -1.0622 -1.5360 -0.2760
   62MOL   H17021032   0.024   0.115   0.904  3.8110 -0.5209  0.9316
   62MOL   H17121033   0.177   0.008   1.034 -1.1065  2.2472 -3.4948
   62MOL   C17221034   0.060   7.864   1.280  0.0517 -0.1414 -0.3626
   62MOL   C17321035   0.045   7.761   1.175  0.0555 -1.0070  0.2386
   62MOL   C17421036   0.011   7.818   1.039 -0.4185  0.6290 -0.1761
   62MOL   C17521037   7.971   7.877   1.005  0.1161 -0.5195  0.1721
   62MOL   C17621038   7.951   7.932   0.876 -0.0936 -0.4557  0.5356
   62MOL   C17721039   8.041   7.897   0.767 -0.0909  0.5871 -0.5759
   62MOL   C17821040   0.074   7.829   0.805 -0.2054 -0.9522 -0.1842
   62MOL   C17921041   0.104   7.794   0.939 -0.2304  0.2271  0.1123
   62MOL   O18021042   8.037   7.666   1.224 -0.4590 -0.3389 -0.6324
   62MOL   H18121043   0.061   7.816   1.378 -0.6800  0.1100 -0.2295
   62MOL   H18221044   8.056   7.933   1.281 -0.5533 -0.8451 -1.4236
   62MOL   H18321045   0.145   7.722   1.156  0.1628 -0.4348 -0.4033
   62MOL   H18421046   7.888   7.893   1.072  0.8537  1.5061  0.6699
   62MOL   H18521047   7.866   7.998   0.863 -1.0956 -1.5902  1.2531
   62MOL   H18621048   8.016   7.925   0.666  0.0221 -2.1087 -1.3842
   62MOL   H18721049   0.153   7.804   0.735  1.0561 -0.6076  1.0737
   62MOL   H18821050   0.197   7.742   0.959 -0.4485 -0.4796 -0.6910
   62MOL   C18921051   8.025   7.543   1.147 -1.0300  0.5048 -0.1694
   62MOL   C19021052   7.955   7.427   1.217  0.8354 -0.1197  0.1292
   62MOL   C19121053   7.807   7.469   1.238  0.4328  1.3465 -0.1092
   62MOL   C19221054   7.716   7.495   1.135  1.2694 -0.0944  0.2083
   62MOL   C19321055   7.586   7.544   1.160  0.5115 -0.0007  0.0558
   62MOL   C19421056   7.546   7.576   1.292  0.2324  0.3238  0.4164
   62MOL   C19521057   7.635   7.550   1.398 -0.4585 -0.3758  0.1635
   62MOL   C19621058   7.765   7.500   1.370 -0.5228  0.9528 -0.7016
   62MOL   O19721059   8.029   7.401   1.333  0.2056 -0.4737  0.2571
   62MOL   H19821060   7.982   7.565   1.050 -0.4375  0.5493 -0.4173
   62MOL   H19921061   0.050   7.517   1.136 -1.1806 -0.1024 -0.1775
   62MOL   H20021062   7.940   7.334   1.162 -0.1474  0.4971 -0.6700
   62MOL   H20121063   7.746   7.493   1.031 -1.8155  1.2212 -0.7907
   62MOL   H20221064   7.524   7.562   1.073 -0.1488  0.8020  0.6747
   62MOL   H20321065   7.445   7.611   1.304 -0.5913 -2.3720  1.8202
   62MOL   H20421066   7.605   7.590   1.494 -0.9005  1.5000 -0.7349
   62MOL   H20521067   7.838   7.492   1.449 -1.2612  0.7938 -0.0192
   62MOL   C20621068   7.993   7.278   1.397  0.2013 -0.4988  0.1352
   62MOL   C20721069   8.017   7.302   1.546  0.7013 -0.0123 -0.1477
   62MOL   C20821070   0.081   7.300   1.609  0.5992  0.1242  0.3762
   62MOL   C20921071   0.098   7.270   1.744 -0.1596  0.6373  0.4883
   62MOL   C21021072   0.225   7.250   1.799  0.6567 -0.6705  0.0668
   62MOL   C21121073   0.336   7.273   1.719  0.3474 -0.2971  0.3853
   62MOL   C21221074   0.324   7.317   1.585 -0.6566  0.5281 -0.4313
   62MOL   C21321075   0.197   7.321   1.528 -0.5372  0.0866 -0.9129
   62MOL   O21421076   7.924   7.213   1.619  0.0260 -0.4743  0.5790
   62MOL   H21521077   7.887   7.258   1.386  0.1201  0.6020 -1.1149
   62MOL   H21621078   8.059   7.201   1.357  2.4459  1.1819  0.4417
   62MOL   H21721079   7.968   7.396   1.573 -1.6798 -1.2938  0.1865
   62MOL   H21821080   0.006   7.258   1.800 -1.9034  2.6965 -1.8172
   62MOL   H21921081   0.229   7.210   1.900 -1.5330  0.7627  0.7593
   62MOL   H22021082   0.436   7.253   1.755 -0.3973 -0.8768  2.1765
   62MOL   H22121083   0.412   7.333   1.525 -0.6689 -1.1497 -0.9121
   62MOL   H22221084   0.182   7.346   1.424 -1.0632  0.8853 -0.6446
   62MOL   C22321085   7.948   7.067   1.617 -0.4711  0.5426 -0.1988
   62MOL   C22421086   7.882   6.982   1.737  0.1302 -0.1305 -0.6541
   62MOL   C22521087   7.917   7.041   1.866 -0.1194 -0.3279 -0.2205
   62MOL   C22621088   8.041   7.012   1.926  0.1879 -0.1767  0.9052
   62MOL   C22721089   8.067   7.046   2.055 -0.4057  0.2441  0.5643
   62MOL   C22821090   7.968   7.110   2.127 -0.5368  0.3713 -0.2844
   62MOL   C22921091   7.845   7.150   2.069 -0.0173  0.1670  0.8089
   62MOL   C23021092   7.823   7.111   1.936 -0.0164 -0.8516  0.1761
   62MOL   O23121093   7.745   6.963   1.720 -0.0424  0.4396 -0.5002
   62MOL   H23221094   7.912   7.030   1.520  0.6472  0.8321 -0.7258
   62MOL   H23321095   8.054   7.041   1.623 -1.0544 -2.2815 -1.2405
   62MOL   H23421096   7.924   6.881   1.738  0.3491 -0.0411  1.0071
   62MOL   H23521097   0.031   6.948   1.874 -0.1650  1.1343 -1.2526
   62MOL   H23621098   0.079   7.017   2.103 -0.5356 -0.2794  0.5044
   62MOL   H23721099   7.983   7.130   2.232  0.8145 -1.3165 -0.1305
   62MOL   H23821100   7.773   7.194   2.136  0.4691 -2.3511  3.0969
   62MOL   H23921101   7.725   7.133   1.896  0.3834  2.8656  0.9742
   62MOL   C24021102   7.713   6.875   1.612  0.3182 -0.0167  0.2677
   62MOL   C24121103   7.563   6.859   1.590  0.5921  0.0511  0.1730
   62MOL   C24221104   7.477   6.840   1.709 -0.0428  0.2341 -0.0671
   62MOL   C24321105   7.455   6.717   1.763 -1.0733 -0.6172  0.3641
   62MOL   C24421106   7.376   6.693   1.875 -0.3037 -0.4056 -0.6996
   62MOL   C24521107   7.297   6.802   1.919  0.4730 -0.5609  0.0734
   62MOL   C24621108   7.306   6.925   1.855  0.4305 -0.0102  0.3256
   62MOL   C24721109   7.407   6.950   1.762 -0.4413  0.3132  0.1267
   62MOL   O24821110   7.524   6.977   1.521 -0.5974  0.3369  0.1434
   62MOL   H24921111   7.761   6.899   1.517 -0.7991 -0.7385 -0.5023
   62MOL   H25021112   7.756   6.779   1.640 -0.6936 -0.5831 -0.0574
   62MOL   H25121113   7.547   6.768   1.532  2.9676  0.0297 -0.4709
   62MOL   H25221114   7.509   6.628   1.735  0.0163  0.0480  0.3413
   62MOL   H25321115   7.382   6.600   1.931 -0.4913 -0.5226 -0.8741
   62MOL   H25421116   7.229   6.771   1.997 -0.9265  0.2195 -0.8136
   62MOL   H25521117   7.244   7.005   1.892  0.5816  1.3622 -2.2879
   62MOL   H25621118   7.415   7.054   1.734 -0.5951  0.3486  0.2158
   62MOL   C25721119   7.538   6.956   1.385 -0.4203  0.4214  0.2245
   62MOL   C25821120   7.510   7.094   1.326 -0.7801 -0.6715 -0.4772
   62MOL   C25921121   7.364   7.126   1.340 -0.0874  0.0173 -0.0962
   62MOL   C26021122   7.272   7.066   1.252  0.3622  0.5478 -0.5436
   62MOL   C26121123   7.135   7.108   1.254 -0.7010  0.1422 -0.0888
   62MOL   C26221124   7.090   7.191   1.359 -0.1513 -0.8222  0.7499
   62MOL   C26321125   7.177   7.246   1.458 -0.3119  0.4763  0.3864
   62MOL   C26421126   7.313   7.212   1.442 -0.2023 -0.2919  0.8414
   62MOL   O26521127   7.546   7.072   1.192  0.1125  0.2191  0.4847
   62MOL   H26621128   7.462   6.883   1.354  0.2056 -1.2692  2.5392
   62MOL   H26721129   7.638   6.919   1.365 -0.0414  1.8680 -0.6021
   62MOL   H26821130   7.571   7.165   1.383 -2.7011  0.4608  0.1938
   62MOL   H26921131   7.322   7.008   1.175  2.2345 -0.5550  1.4238
   62MOL   H27021132   7.065   7.082   1.175  1.9675 -0.6071 -2.2739
   62MOL   H27121133   6.987   7.223   1.353  0.3525  0.7627  0.2068
   62MOL   H27221134   7.140   7.303   1.542 -0.2093 -0.7819  1.2833
   62MOL   H27321135   7.382   7.249   1.516 -0.6750  0.1871  1.0495
   62MOL   C27421136   7.681   7.116   1.172 -0.2339  0.1634 -0.2828
   62MOL   C27521137   7.721   7.093   1.026 -0.9468  0.3500 -1.2695
   62MOL   C27621138   7.737   6.937   0.995 -0.6771 -0.2862 -0.1538
   62MOL   C27721139   7.619   6.864   0.965 -0.7674 -0.0223  0.1974
   62MOL   C27821140   7.618   6.721   0.970 -0.2004 -0.6749 -0.7252
   62MOL   C27921141   7.742   6.656   0.985  0.0767  0.8235  0.5289
   62MOL   C28021142   7.862   6.725   1.001  0.0292 -0.1457  0.4177
   62MOL   C28121143   7.862   6.869   1.009  0.4960  0.0831 -0.4778
   62MOL   O28221144   7.843   7.157   1.004  0.0143  0.1147  0.1443
   62MOL   H28321145   7.683   7.223   1.193 -1.9976  0.7933 -3.0585
   62MOL   H28421146   7.746   7.058   1.237  1.3368  1.4000 -0.7492
   62MOL   H28521147   7.642   7.135   0.963 -0.3554 -0.4198 -2.5554
   62MOL   H28621148   7.521   6.907   0.951 -0.6347  1.1716  2.7575
   62MOL   H28721149   7.527   6.663   0.979  0.4500 -1.9134 -2.0338
   62MOL   H28821150   7.756   6.549   0.977 -0.5671  0.8143 -0.5875
   62MOL   H28921151   7.955   6.669   0.997  0.1591  0.1083 -0.1539
   62MOL   H29021152   7.944   6.930   1.045 -0.9724  0.1634  2.8632
   62MOL   C29121153   7.873   7.192   0.871  0.5098  0.5497 -0.2999
   62MOL   C29221154   8.001   7.273   0.864 -0.1121  0.4593 -0.1924
   62MOL   C29321155   0.045   7.195   0.906 -0.0872 -0.1282  0.4804
   62MOL   C29421156   0.063   7.065   0.849 -0.3383 -0.2624  0.0003
   62MOL   C29521157   0.176   6.991   0.890 -1.2257  0.0260 -0.2054
   62MOL   C29621158   0.268   7.045   0.990 -0.5690  0.2598 -0.5720
   62MOL   C29721159   0.246   7.174   1.038  0.1801 -0.6228 -0.4463
   62MOL   C29821160   0.136   7.249   0.997 -0.8965 -0.1637  0.3025
   62MOL   O29921161   7.997   7.324   0.731  0.0252  0.4115 -0.5306
   62MOL   H30021162   7.797   7.259   0.829  0.0473  0.9603  1.1541
   62MOL   H30121163   7.885   7.102   0.811  0.9723  1.1651 -1.1480
   62MOL   H30221164   7.993   7.354   0.937 -0.0816  0.7558 -0.5167
   62MOL   H30321165   8.073   7.026   0.776 -2.5476 -2.8993  3.3504
   62MOL   H30421166   0.193   6.894   0.844  0.1631 -1.0558  2.4878
   62MOL   H30521167   0.359   6.993   1.015 -0.4987  0.4810 -0.3694
   62MOL   H30621168   0.322   7.215   1.104 -0.1933 -1.1134  0.2950
   62MOL   H30721169   0.121   7.349   1.036 -2.5209 -0.1418 -0.3564
   62MOL   C30821170   0.008   7.434   0.700 -0.7080 -0.5447  0.3847
   62MOL   C30921171   8.076   7.465   0.548  0.0301  0.5044  0.2915
   62MOL   C31021172   0.034   7.352   0.460  0.1191  0.3695  0.2168
   62MOL   C31121173   8.015   7.264   0.420 -0.0745 -0.5644 -0.4319
   62MOL   C31221174   8.040   7.137   0.361 -0.3906  0.1025 -0.5897
   62MOL   C31321175   0.098   7.101   0.341 -0.7873 -0.2892  0.2298
   62MOL   C31421176   0.201   7.183   0.393 -0.0375  0.2305 -0.2568
   62MOL   C31521177   0.169   7.307   0.457 -0.2831  0.7358 -0.0700
   62MOL   O31621178   7.948   7.523   0.532  0.0206 -0.7733  0.0563
   62MOL   H31721179   0.110   7.414   0.734 -0.9375 -3.6854 -0.5608
   62MOL   H31821180   8.059   7.519   0.762 -0.4530 -1.6767  2.1056
   62MOL   H31921181   0.068   7.545   0.532  1.3799 -0.5352  1.0031
   62MOL   H32021182   7.910   7.288   0.429  0.6556  1.9368  2.0501
   62MOL   H32121183   7.964   7.071   0.320 -1.3888  1.7254 -1.4217
   62MOL   H32221184   0.126   7.011   0.288  1.7408  1.3740 -1.3506
   62MOL   H32321185   0.306   7.169   0.371  0.2520  1.4316  0.2924
   62MOL   H32421186   0.246   7.374   0.493 -0.0932  0.3454  0.2595
   62MOL   C32521187   7.928   7.597   0.413 -0.3101 -0.3917 -0.5970
   62MOL   C32621188   7.772   7.636   0.421  0.1293 -0.4390  0.3586
   62MOL   C32721189   7.724   7.711   0.303 -0.6523 -1.0540 -0.4362
   62MOL   C32821190   7.715   7.652   0.174  0.1402 -0.8396  0.8941
   62MOL   C32921191   7.682   7.729   0.059 -0.6990  0.2570 -0.0130
   62MOL   C33021192   7.649   7.857   0.078 -0.2354  0.6731  0.6643
   62MOL   C33121193   7.646   7.917   0.207 -0.6292 -0.5863 -0.1143
   62MOL   C33221194   7.695   7.850   0.316 -0.4433  0.0249  0.3547
   62MOL   O33321195   7.700   7.525   0.443  0.0449  0.1052 -0.1816
   62MOL   H33421196   7.958   7.547   0.321 -0.8691  0.8174 -1.4411
   62MOL   H33521197   7.991   7.684   0.429  0.5300 -1.1755  0.3847
   62MOL   H33621198   7.745   7.702   0.503  1.4664 -0.7437  1.0473
   62MOL   H33721199   7.726   7.545   0.166  2.4012 -0.5555 -0.1445
   62MOL   H33821200   7.683   7.685   8.040  0.2926 -1.1058  0.5865
   62MOL   H33921201   7.619   7.918   8.074 -0.6558 -1.1247 -0.5105
   62MOL   H34021202   7.624   8.021   0.221  1.6918 -0.0754 -0.1195
   62MOL   H34121203   7.697   7.901   0.411  2.6635  0.5191  0.0765
   62MOL   H34221204   7.746   7.483   0.514  0.2768  1.0860  0.2598
   63MOL     C121205   3.013   2.524   1.302 -0.3314 -0.9849 -0.0535
   63MOL     C221206   3.064   2.654   1.245  0.3589 -0.6097 -0.1334
   63MOL     C321207   2.955   2.759   1.234 -0.1769  0.2915 -0.3894
   63MOL     C421208   2.932   2.847   1.343  0.0729 -0.0520 -0.1159
   63MOL     C521209   2.834   2.944   1.327  0.1801  0.1710 -0.2465
   63MOL     C621210   2.745   2.946   1.215 -0.0064 -0.6633 -0.2119
   63MOL     C721211   2.771   2.863   1.102 -0.1657 -0.2356  0.3114
   63MOL     C821212   2.877   2.772   1.115  1.0270  0.4596  0.9742
   63MOL     O921213   3.116   2.631   1.115 -0.4707  0.0026 -0.0999
   63MOL    H1021214   2.952   2.464   1.235  0.1422 -1.6399  0.1014
   63MOL    H1121215   3.092   2.456   1.332  3.2671  1.7684 -2.8075
   63MOL    H1221216   3.133   2.704   1.313 -0.5587  0.6393 -0.0984
   63MOL    H1321217   2.995   2.845   1.431  1.3831  2.4065 -0.9440
   63MOL    H1421218   2.833   3.017   1.407  0.3893  0.5250 -0.5641
   63MOL    H1521219   2.664   3.017   1.206  0.7395  0.2256 -0.0041
   63MOL    H1621220   2.712   2.868   1.011  0.3683  0.5174 -0.0056
   63MOL    H1721221   2.910   2.719   1.027  1.0440 -0.9405  1.8246
   63MOL    H1821222   2.941   2.547   1.381 -0.5749  1.3925 -0.9048
   63MOL    C1921223   3.248   2.591   1.104  0.8490  0.4565 -0.1259
   63MOL    C2021224   3.338   2.680   1.011 -0.4582  0.4932 -0.6268
   63MOL    C2121225   3.351   2.823   1.051 -0.1075 -0.6913 -0.4516
   63MOL    C2221226   3.237   2.909   1.045 -0.1817 -0.0828  0.7354
   63MOL    C2321227   3.249   3.039   1.091  0.1865  0.0247 -0.2606
   63MOL    C2421228   3.376   3.086   1.137 -0.7314  0.0737  0.1578
   63MOL    C2521229   3.489   2.998   1.143  0.1582 -0.1488 -0.2482
   63MOL    C2621230   3.475   2.869   1.097 -1.4156 -0.3482  0.4948
   63MOL    O2721231   3.298   2.665   0.871 -0.4740 -0.6525  0.0735
   63MOL    H2821232   3.287   2.580   1.205  0.7643  1.1289 -0.0170
   63MOL    H2921233   3.238   2.490   1.065  2.0772 -0.4134  1.7020
   63MOL    H3021234   3.436   2.632   1.016 -0.4215  0.7048  1.2111
   63MOL    H3121235   3.147   2.869   1.001  0.3616  0.4837 -0.9219
   63MOL    H3221236   3.168   3.111   1.097 -0.8281 -1.1282  0.0912
   63MOL    H3321237   3.384   3.186   1.178 -0.1486  0.4712 -0.9183
   63MOL    H3421238   3.586   3.034   1.172 -0.4939 -0.3095  2.2886
   63MOL    H3521239   3.562   2.806   1.100 -0.9844  0.2875  2.2372
   63MOL    C3621240   3.395   2.691   0.772 -0.2991  1.1729  0.3391
   63MOL    C3721241   3.408   2.554   0.708  0.1336  0.5135 -0.0669
   63MOL    C3821242   3.507   2.463   0.784 -0.6784  0.5515  0.0325
   63MOL    C3921243   3.452   2.350   0.854 -0.5883 -0.5831  0.0041
   63MOL    C4021244   3.536   2.258   0.912 -0.6107  0.0940 -0.0601
   63MOL    C4121245   3.675   2.278   0.917 -0.1360  0.1352  0.0480
   63MOL    C4221246   3.727   2.394   0.857 -0.2453  0.2195  0.1955
   63MOL    C4321247   3.646   2.485   0.788  0.4516 -0.0667  0.0531
   63MOL    O4421248   3.465   2.586   0.572 -0.2994 -0.0624  0.3807
   63MOL    H4521249   3.360   2.774   0.712 -1.7176  0.0559 -0.4148
   63MOL    H4621250   3.486   2.725   0.822  0.0425 -0.3120  0.7556
   63MOL    H4721251   3.320   2.490   0.706  0.0087  0.5088  3.4868
   63MOL    H4821252   3.347   2.326   0.864 -0.5503 -0.7503  0.0035
   63MOL    H4921253   3.495   2.176   0.970 -0.7966 -0.4170 -0.9043
   63MOL    H5021254   3.731   2.205   0.974  0.8369  0.2799 -0.6933
   63MOL    H5121255   3.833   2.412   0.858 -0.2401  0.1390  1.1615
   63MOL    H5221256   3.688   2.571   0.738  1.1051 -0.3104  0.1759
   63MOL    C5321257   3.410   2.509   0.462 -0.0683 -0.3749  0.1166
   63MOL    C5421258   3.455   2.363   0.449  0.1844  0.0285 -0.1563
   63MOL    C5521259   3.608   2.344   0.457 -0.4627 -0.2708  0.2874
   63MOL    C5621260   3.698   2.402   0.363 -0.3687 -0.5419  0.2680
   63MOL    C5721261   3.837   2.378   0.366 -0.0227  0.3203  0.1840
   63MOL    C5821262   3.884   2.297   0.469  0.4219 -0.5686  0.5829
   63MOL    C5921263   3.803   2.249   0.571  0.8063 -0.1967  0.2228
   63MOL    C6021264   3.660   2.264   0.562 -0.2011 -0.1583  0.5634
   63MOL    O6121265   3.380   2.289   0.547  0.4094 -0.0888  0.4919
   63MOL    H6221266   3.302   2.519   0.464 -0.1027 -0.4230 -1.4976
   63MOL    H6321267   3.440   2.558   0.370  0.7658 -1.7764 -0.3711
   63MOL    H6421268   3.425   2.329   0.350 -1.6202 -0.1660  0.4459
   63MOL    H6521269   3.665   2.465   0.282 -0.6478 -1.7385 -0.5731
   63MOL    H6621270   3.905   2.436   0.305 -0.5128  2.4071  1.5816
   63MOL    H6721271   3.990   2.287   0.486  0.6727 -0.1329 -0.7055
   63MOL    H6821272   3.839   2.177   0.643 -1.9553 -0.2509  1.5976
   63MOL    H6921273   3.589   2.225   0.634  0.6950  0.7566  1.9722
   63MOL    C7021274   3.359   2.150   0.518  0.0379 -0.2585  0.3189
   63MOL    C7121275   3.214   2.109   0.491 -0.5290 -0.5082 -0.1320
   63MOL    C7221276   3.136   2.204   0.396  0.0832  0.1471  1.2085
   63MOL    C7321277   3.124   2.173   0.259  0.6779  0.1093 -0.9375
   63MOL    C7421278   3.041   2.247   0.171  0.3592 -0.6294  0.5955
   63MOL    C7521279   2.969   2.357   0.220  0.1478 -0.0532  0.0341
   63MOL    C7621280   2.976   2.382   0.364 -0.1710  0.0530 -0.3549
   63MOL    C7721281   3.060   2.306   0.448 -0.2553 -0.5600 -0.3633
   63MOL    O7821282   3.154   2.094   0.620 -0.2983  0.5509 -0.0639
   63MOL    H7921283   3.415   2.124   0.429 -0.1099  0.4345  0.0193
   63MOL    H8021284   3.405   2.092   0.598  1.6178  1.7596  0.8993
   63MOL    H8121285   3.212   2.009   0.446  0.1081 -0.0414 -1.2167
   63MOL    H8221286   3.184   2.088   0.229  1.3739 -0.0982  0.9758
   63MOL    H8321287   3.041   2.215   0.068 -1.6243  1.0521  0.0186
   63MOL    H8421288   2.910   2.423   0.158  0.0954  1.5763  1.7514
   63MOL    H8521289   2.929   2.464   0.416  1.4031  0.2590  0.7730
   63MOL    H8621290   3.063   2.332   0.553  1.4796 -1.5873 -0.1512
   63MOL    C8721291   3.022   2.032   0.617 -0.2313 -0.1419 -0.5452
   63MOL    C8821292   2.960   2.060   0.755 -0.0173 -0.1260  0.0782
   63MOL    C8921293   2.922   2.207   0.778 -0.1341  0.2093  0.5546
   63MOL    C9021294   3.021   2.303   0.809  0.5279 -0.8269 -0.1651
   63MOL    C9121295   2.987   2.441   0.823 -0.5139 -0.1602  0.1574
   63MOL    C9221296   2.854   2.478   0.804 -0.2785  0.0901  0.4664
   63MOL    C9321297   2.756   2.386   0.766 -0.2625  0.1358  0.3933
   63MOL    C9421298   2.785   2.249   0.768  1.0558  0.3400 -0.0061
   63MOL    O9521299   3.036   2.008   0.865 -0.3681 -0.1075  0.2493
   63MOL    H9621300   3.025   1.925   0.598 -0.8487 -0.8214  2.8480
   63MOL    H9721301   2.951   2.071   0.545  0.5023  1.1922 -0.5854
   63MOL    H9821302   2.870   2.001   0.740  0.2138 -0.1295 -1.3450
   63MOL    H9921303   3.123   2.269   0.820  0.7101  0.1107  1.2468
   63MOL   H10021304   3.054   2.521   0.854  1.4984 -1.7312 -0.0420
   63MOL   H10121305   2.826   2.580   0.825  0.6252  0.5372 -0.4726
   63MOL   H10221306   2.654   2.420   0.760 -0.2952  0.1180  0.7938
   63MOL   H10321307   2.705   2.177   0.758 -0.6241  1.9477  1.5531
   63MOL   C10421308   3.011   1.870   0.908 -0.4365  0.1631  0.7430
   63MOL   C10521309   2.874   1.852   0.970  0.3007 -0.0800  0.3158
   63MOL   C10621310   2.831   1.965   1.064  0.1992  0.2874 -0.0653
   63MOL   C10721311   2.914   2.012   1.170 -0.5528 -0.1270  0.1681
   63MOL   C10821312   2.879   2.114   1.262 -0.5347 -0.3001 -0.7768
   63MOL   C10921313   2.760   2.189   1.238  0.1997 -0.1712 -0.4182
   63MOL   C11021314   2.675   2.146   1.130 -0.5578 -0.0204 -0.4923
   63MOL   C11121315   2.715   2.038   1.045 -1.2909 -0.2338  0.2578
   63MOL   O11221316   2.773   1.843   0.869 -0.4101 -0.5663 -0.3940
   63MOL   H11321317   3.039   1.795   0.834 -1.7694  0.1490  0.2498
   63MOL   H11421318   3.079   1.841   0.988 -0.7183 -1.2463  0.4845
   63MOL   H11521319   2.877   1.762   1.031 -1.1558  0.3786  1.0823
   63MOL   H11621320   3.011   1.964   1.174 -1.3537 -1.6549  1.9154
   63MOL   H11721321   2.944   2.145   1.342  0.4405 -0.2726 -1.5653
   63MOL   H11821322   2.743   2.282   1.290 -0.7441 -0.2627 -0.5657
   63MOL   H11921323   2.589   2.203   1.098 -1.8323 -1.5388  0.1640
   63MOL   H12021324   2.647   2.024   0.962  1.0907  0.8556 -1.9658
   63MOL   C12121325   2.791   1.727   0.785 -0.4450  0.2438 -0.1788
   63MOL   C12221326   2.653   1.668   0.747 -0.5859 -0.2301 -0.1713
   63MOL   C12321327   2.651   1.595   0.623  0.6067 -0.0731 -0.1091
   63MOL   C12421328   2.698   1.461   0.615 -0.0161 -0.7231 -0.5519
   63MOL   C12521329   2.696   1.397   0.491 -0.3810  0.0839  0.0719
   63MOL   C12621330   2.664   1.475   0.374  0.5468  0.0960 -0.2265
   63MOL   C12721331   2.634   1.611   0.380 -0.6197 -0.4778 -0.2259
   63MOL   C12821332   2.613   1.665   0.505 -0.1596  0.4247 -0.0968
   63MOL   O12921333   2.623   1.575   0.859  0.0572  0.2976  0.1976
   63MOL   H13021334   2.854   1.656   0.838 -2.6105 -2.5752 -1.2374
   63MOL   H13121335   2.848   1.754   0.696 -1.3191  2.4646 -0.1061
   63MOL   H13221336   2.587   1.755   0.748  2.8145  2.4432 -1.3041
   63MOL   H13321337   2.735   1.412   0.704  0.4529  0.0411 -0.3221
   63MOL   H13421338   2.726   1.294   0.482  2.9313  0.9029  0.8584
   63MOL   H13521339   2.669   1.430   0.276 -0.4859 -1.3451  0.3661
   63MOL   H13621340   2.617   1.663   0.287  2.6602  0.3056 -0.4477
   63MOL   H13721341   2.599   1.772   0.511  1.3206  0.7018 -1.4001
   63MOL   C13821342   2.485   1.550   0.873 -0.6378 -0.0139  0.1408
   63MOL   C13921343   2.476   1.434   0.971 -0.2981 -0.5598  0.2111
   63MOL   C14021344   2.574   1.318   0.943  0.0026  0.1779  0.6626
   63MOL   C14121345   2.530   1.205   0.874 -0.1757  0.0980 -0.1491
   63MOL   C14221346   2.619   1.105   0.833  0.6279  0.6193 -0.9608
   63MOL   C14321347   2.755   1.105   0.878  1.2785  0.3538  0.1583
   63MOL   C14421348   2.797   1.207   0.962 -0.1523 -0.6583  0.6771
   63MOL   C14521349   2.708   1.314   0.991 -0.4538  0.3048 -0.4552
   63MOL   O14621350   2.495   1.486   1.103 -0.2293  0.2309 -0.1446
   63MOL   H14721351   2.430   1.523   0.783 -0.4645 -1.0806  0.3505
   63MOL   H14821352   2.435   1.637   0.914 -1.4642 -0.6837  0.5612
   63MOL   H14921353   2.379   1.384   0.960 -0.6144  0.1373 -0.2363
   63MOL   H15021354   2.432   1.206   0.830  0.5382  1.6604 -1.7831
   63MOL   H15121355   2.586   1.026   0.767 -1.6717 -0.5142  1.4776
   63MOL   H15221356   2.824   1.027   0.849  1.0813 -0.1249  0.9804
   63MOL   H15321357   2.898   1.213   0.998  0.5060  1.4716 -1.3958
   63MOL   H15421358   2.745   1.397   1.049 -0.7723  1.0138 -1.2509
   63MOL   C15521359   2.380   1.544   1.172  0.0970  0.2209  0.4317
   63MOL   C15621360   2.401   1.567   1.316 -0.6793  0.3720  0.2970
   63MOL   C15721361   2.519   1.651   1.351 -0.5580 -0.2165  0.8326
   63MOL   C15821362   2.643   1.594   1.358 -0.3702  0.2946 -1.0537
   63MOL   C15921363   2.757   1.664   1.398 -0.5163  0.4182 -0.3946
   63MOL   C16021364   2.750   1.801   1.421  0.1368  0.2012 -0.0829
   63MOL   C16121365   2.627   1.863   1.400 -0.1355  0.7431 -0.0648
   63MOL   C16221366   2.510   1.790   1.363 -0.4931  0.3237 -0.1910
   63MOL   O16321367   2.285   1.619   1.372  0.0427 -0.0973 -0.1144
   63MOL   H16421368   2.295   1.478   1.154  0.2544  0.3491 -0.8253
   63MOL   H16521369   2.348   1.640   1.132  0.2193  1.0352  2.2582
   63MOL   H16621370   2.434   1.471   1.356 -0.9181 -0.1014 -0.6339
   63MOL   H16721371   2.655   1.492   1.324 -0.5816  0.7931 -2.6628
   63MOL   H16821372   2.855   1.618   1.399 -0.9204 -0.4305  1.1202
   63MOL   H16921373   2.832   1.862   1.456 -0.4136  0.1904  1.2666
   63MOL   H17021374   2.620   1.971   1.399 -2.0834  0.6765  2.1247
   63MOL   H17121375   2.421   1.846   1.342 -0.0472  1.0633 -0.1141
   63MOL   C17221376   2.207   1.522   1.433 -0.3335 -0.4916 -0.1682
   63MOL   C17321377   2.101   1.590   1.520  0.0047 -0.1738  0.1153
   63MOL   C17421378   2.053   1.500   1.636  0.0363 -0.0663  0.2566
   63MOL   C17521379   2.070   1.539   1.776  0.2977 -0.7728  0.6279
   63MOL   C17621380   2.011   1.461   1.875  0.2606  0.0152  0.2440
   63MOL   C17721381   1.940   1.342   1.844  0.5456  0.0326 -0.0533
   63MOL   C17821382   1.928   1.297   1.713  0.0786  0.2286 -0.4424
   63MOL   C17921383   1.985   1.380   1.609  0.3918  1.0556 -0.1969
   63MOL   O18021384   1.983   1.608   1.440 -0.4590 -0.6654 -0.1574
   63MOL   H18121385   2.140   1.466   1.367 -2.8206  1.3507  0.7086
   63MOL   H18221386   2.265   1.441   1.476 -1.7926 -2.7710 -2.3257
   63MOL   H18321387   2.144   1.681   1.563 -1.0310  0.7275 -0.7459
   63MOL   H18421388   2.121   1.630   1.802 -1.0323 -0.0699  0.8187
   63MOL   H18521389   2.011   1.509   1.972 -0.7546 -0.0187  0.2671
   63MOL   H18621390   1.892   1.288   1.925  0.9602  1.4584  1.1739
   63MOL   H18721391   1.872   1.208   1.687  0.6374 -0.7459  1.5710
   63MOL   H18821392   1.960   1.346   1.509 -1.2818 -0.6446  0.7694
   63MOL   C18921393   1.944   1.746   1.414  0.4714 -0.0434 -0.4221
   63MOL   C19021394   1.915   1.843   1.538  1.0703  0.4918 -0.0350
   63MOL   C19121395   1.787   1.932   1.523 -0.1389 -0.7179  1.1156
   63MOL   C19221396   1.785   2.046   1.435 -0.5859 -0.4544 -0.4639
   63MOL   C19321397   1.676   2.137   1.432 -0.1901  0.7469 -0.6447
   63MOL   C19421398   1.567   2.113   1.517  0.2843 -0.8110 -0.2752
   63MOL   C19521399   1.576   2.002   1.614  0.9252 -0.2452 -0.2368
   63MOL   C19621400   1.680   1.910   1.609 -0.0536 -0.1436  0.0153
   63MOL   O19721401   2.035   1.913   1.564  0.3018 -0.2711  0.3967
   63MOL   H19821402   2.026   1.792   1.358  0.8074  0.9031  0.8038
   63MOL   H19921403   1.853   1.758   1.356 -0.5428  0.6365  1.2472
   63MOL   H20021404   1.885   1.782   1.624  1.3128  1.4386  0.7270
   63MOL   H20121405   1.874   2.061   1.376 -0.4517  0.8006  0.0354
   63MOL   H20221406   1.678   2.217   1.359  2.8555  2.0500  0.7834
   63MOL   H20321407   1.480   2.177   1.518  0.9690  0.1262 -0.4754
   63MOL   H20421408   1.496   1.989   1.685  0.4948  0.6101 -0.5637
   63MOL   H20521409   1.687   1.822   1.672 -0.1100 -0.0667  0.1282
   63MOL   C20621410   2.040   1.976   1.686 -0.3953 -0.4492  0.7524
   63MOL   C20721411   2.181   2.024   1.722 -0.0495 -0.3886  0.2251
   63MOL   C20821412   2.274   1.908   1.753  0.2305  0.0445 -0.4628
   63MOL   C20921413   2.343   1.834   1.655 -0.3080 -0.3257  0.5299
   63MOL   C21021414   2.414   1.715   1.683 -0.0805 -0.0026 -0.0137
   63MOL   C21121415   2.411   1.664   1.813  0.1763  0.0528  0.6806
   63MOL   C21221416   2.344   1.735   1.919  0.1443  0.4235  0.2398
   63MOL   C21321417   2.284   1.861   1.891 -0.8507 -0.4206  0.4638
   63MOL   O21421418   2.179   2.115   1.829 -0.0598  0.1160  0.0787
   63MOL   H21521419   1.975   2.063   1.680  0.4346  0.2221  1.3771
   63MOL   H21621420   1.999   1.913   1.766 -1.3926 -0.1790  0.4650
   63MOL   H21721421   2.224   2.075   1.636  1.1665 -1.4789  0.1610
   63MOL   H21821422   2.334   1.861   1.551 -0.1352  0.0839  0.6201
   63MOL   H21921423   2.466   1.661   1.605 -1.4535  0.0988 -1.0102
   63MOL   H22021424   2.454   1.566   1.830 -0.4355  0.0114  2.0219
   63MOL   H22121425   2.350   1.706   2.023 -0.6757 -1.9262 -0.3449
   63MOL   H22221426   2.229   1.919   1.963 -2.2485 -0.3204 -0.6654
   63MOL   C22321427   2.142   2.248   1.785 -0.1430 -0.7575  0.1772
   63MOL   C22421428   2.114   2.342   1.904  0.0868 -0.8137 -0.1099
   63MOL   C22521429   2.157   2.484   1.871  0.4962 -0.4086  0.2890
   63MOL   C22621430   2.295   2.521   1.867  0.9444  0.8148  0.6771
   63MOL   C22721431   2.330   2.648   1.828  1.4198  0.4550  0.2252
   63MOL   C22821432   2.234   2.749   1.804  0.6158  0.1040  0.3088
   63MOL   C22921433   2.098   2.707   1.811  0.2675 -0.0449  0.4487
   63MOL   C23021434   2.059   2.578   1.844  0.2244  0.6127 -0.2076
   63MOL   O23121435   1.976   2.344   1.934 -0.4163 -0.7061 -0.1823
   63MOL   H23221436   2.238   2.277   1.743 -0.8046 -0.8481 -1.4218
   63MOL   H23321437   2.063   2.251   1.710 -2.8443 -0.9522  2.8748
   63MOL   H23421438   2.168   2.302   1.990 -1.1944 -0.7757  0.7314
   63MOL   H23521439   2.368   2.447   1.899  0.1381 -1.2770 -2.0771
   63MOL   H23621440   2.433   2.678   1.817  1.1484  0.2672 -3.3389
   63MOL   H23721441   2.270   2.849   1.785 -0.4641  0.7150  1.3971
   63MOL   H23821442   2.019   2.777   1.791  0.0323 -0.0454  1.3578
   63MOL   H23921443   1.953   2.559   1.845  0.2780  0.3333  1.0110
   63MOL   C24021444   1.921   2.236   2.015 -0.7877 -0.2734 -0.2610
   63MOL   C24121445   1.784   2.270   2.087 -0.1942 -0.7594  0.4579
   63MOL   C24221446   1.777   2.408   2.153 -0.0753 -0.1817 -0.5638
   63MOL   C24321447   1.788   2.408   2.296  0.6293  0.0869 -0.2804
   63MOL   C24421448   1.783   2.528   2.368  0.6364 -0.7447  0.1810
   63MOL   C24521449   1.783   2.648   2.297  0.8049 -0.5707  0.1157
   63MOL   C24621450   1.782   2.650   2.155 -0.0151 -0.1664 -0.1436
   63MOL   C24721451   1.788   2.528   2.085  0.4292 -0.0192 -0.7407
   63MOL   O24821452   1.670   2.246   2.000  0.0200 -0.2281 -0.9911
   63MOL   H24921453   1.907   2.144   1.959  0.0510  0.2831 -1.4142
   63MOL   H25021454   1.984   2.207   2.099 -1.9145 -0.6537  0.4632
   63MOL   H25121455   1.778   2.194   2.166  0.4450  0.1098  1.3515
   63MOL   H25221456   1.796   2.311   2.344  0.5498  1.2614  2.1621
   63MOL   H25321457   1.794   2.534   2.476 -0.3455  2.7204  0.1637
   63MOL   H25421458   1.791   2.736   2.360  3.2182 -1.4136  1.0564
   63MOL   H25521459   1.790   2.749   2.112 -0.5701  0.0451  0.2382
   63MOL   H25621460   1.805   2.528   1.979 -0.9767  0.5894 -0.9826
   63MOL   C25721461   1.541   2.236   2.059 -0.1873  0.2982  0.8197
   63MOL   C25821462   1.446   2.173   1.954 -0.9043 -0.0630 -0.2836
   63MOL   C25921463   1.318   2.249   1.946  0.0667 -0.2008 -0.3249
   63MOL   C26021464   1.314   2.361   1.861  0.2750  0.0922 -0.0713
   63MOL   C26121465   1.200   2.445   1.853  0.1238 -0.2446  0.1827
   63MOL   C26221466   1.093   2.409   1.935  0.4478 -0.6513 -1.3327
   63MOL   C26321467   1.093   2.304   2.026  0.3584  0.0562  0.0663
   63MOL   C26421468   1.210   2.221   2.030  0.1674  0.4106 -0.3041
   63MOL   O26521469   1.424   2.033   1.990  0.2604  0.2005  0.0601
   63MOL   H26621470   1.518   2.338   2.088  0.2761  0.6622 -0.0531
   63MOL   H26721471   1.547   2.175   2.149 -2.8335  2.4418  2.5404
   63MOL   H26821472   1.497   2.174   1.858 -0.0522 -0.6764  0.1569
   63MOL   H26921473   1.393   2.382   1.791  0.4925 -0.3838  0.0289
   63MOL   H27021474   1.192   2.529   1.787 -0.3995 -1.6522 -1.5746
   63MOL   H27121475   1.004   2.469   1.927 -0.1956 -1.4013  0.1416
   63MOL   H27221476   1.011   2.286   2.094  1.5151  1.4997  1.9128
   63MOL   H27321477   1.206   2.146   2.108 -1.3840 -1.0749 -1.7856
   63MOL   C27421478   1.530   1.947   1.951 -0.0509 -0.2280  0.6975
   63MOL   C27521479   1.561   1.845   2.055 -0.3633  0.0111  0.5310
   63MOL   C27621480   1.707   1.842   2.087  0.1176  0.0506 -0.6478
   63MOL   C27721481   1.759   1.921   2.194 -0.2097 -0.5674 -0.1347
   63MOL   C27821482   1.894   1.932   2.221 -0.4759 -0.3790  0.4384
   63MOL   C27921483   1.982   1.880   2.123 -0.0478 -0.5182  0.6539
   63MOL   C28021484   1.933   1.796   2.021  0.5418  0.2795  0.0989
   63MOL   C28121485   1.800   1.772   2.007 -0.0080  0.0593 -0.2180
   63MOL   O28221486   1.513   1.716   2.019 -0.5268 -0.5464 -0.6633
   63MOL   H28321487   1.506   1.891   1.861 -1.0777  1.2552  0.0263
   63MOL   H28421488   1.617   2.006   1.922 -0.4647 -0.8923 -2.0833
   63MOL   H28521489   1.512   1.880   2.146 -0.0760  1.7226  0.0446
   63MOL   H28621490   1.691   1.976   2.258  0.0449  0.5904 -0.8502
   63MOL   H28721491   1.928   1.994   2.303 -0.0467 -0.1752  0.1095
   63MOL   H28821492   2.087   1.902   2.129 -0.1888  0.6343 -0.9886
   63MOL   H28921493   2.001   1.754   1.949  1.8373  0.4903  1.1811
   63MOL   H29021494   1.775   1.708   1.924  0.3704 -2.2108  1.3621
   63MOL   C29121495   1.455   1.635   2.129 -0.3753 -0.0384 -0.2793
   63MOL   C29221496   1.311   1.664   2.159 -0.2128 -1.0074 -0.2241
   63MOL   C29321497   1.225   1.633   2.037  0.4650  0.3374  0.4837
   63MOL   C29421498   1.174   1.501   2.021 -0.2135  0.0372  0.0910
   63MOL   C29521499   1.099   1.469   1.907  0.9077 -0.5514  0.5969
   63MOL   C29621500   1.070   1.569   1.808 -0.2803 -0.4919  0.4691
   63MOL   C29721501   1.109   1.703   1.830  0.8373  0.4781 -0.6965
   63MOL   C29821502   1.191   1.734   1.943  1.0332 -0.1307  0.1319
   63MOL   O29921503   1.249   1.605   2.277 -0.4485  0.0737 -0.3018
   63MOL   H30021504   1.531   1.638   2.206 -1.0059 -0.4162  0.3657
   63MOL   H30121505   1.472   1.536   2.087  0.3526  0.3421 -0.8877
   63MOL   H30221506   1.309   1.772   2.168  1.0274 -0.8824 -1.3278
   63MOL   H30321507   1.192   1.423   2.093 -0.2145  0.3729  0.4559
   63MOL   H30421508   1.063   1.368   1.898 -0.9334  0.1317  0.0213
   63MOL   H30521509   1.028   1.546   1.711 -0.4043  1.2098  0.1065
   63MOL   H30621510   1.083   1.770   1.749  0.3471  1.0986 -0.0312
   63MOL   H30721511   1.232   1.833   1.958 -0.6683  1.2303 -3.5928
   63MOL   C30821512   1.140   1.670   2.338 -0.4072 -0.4345 -0.0455
   63MOL   C30921513   1.176   1.780   2.439 -0.8191  0.2068  0.1109
   63MOL   C31021514   1.255   1.704   2.554 -0.1195  0.6992 -0.6233
   63MOL   C31121515   1.397   1.721   2.555  0.7668 -0.1822 -0.3987
   63MOL   C31221516   1.472   1.657   2.659  0.0480  0.5162  0.1912
   63MOL   C31321517   1.409   1.569   2.755 -0.2470 -0.0164 -0.2217
   63MOL   C31421518   1.268   1.549   2.746  0.4994  0.0437 -0.6187
   63MOL   C31521519   1.191   1.624   2.654  0.0289 -0.3874 -0.0951
   63MOL   O31621520   1.262   1.871   2.370 -0.2608  0.0215 -0.1365
   63MOL   H31721521   1.090   1.592   2.396  0.5705 -0.7144  0.4310
   63MOL   H31821522   1.072   1.709   2.263  0.6665 -3.0330 -2.4441
   63MOL   H31921523   1.088   1.827   2.483 -0.2923  0.9788  0.3436
   63MOL   H32021524   1.449   1.789   2.489  0.6321  0.0444 -0.2757
   63MOL   H32121525   1.578   1.677   2.665  0.0158  0.2368  1.9942
   63MOL   H32221526   1.465   1.513   2.828 -0.1567 -0.1556 -0.3986
   63MOL   H32321527   1.219   1.489   2.821  1.1037 -0.3857 -0.5665
   63MOL   H32421528   1.084   1.617   2.647  0.0536 -2.1419  0.9920
   63MOL   C32521529   1.257   2.003   2.423 -0.2858 -1.2255 -0.2719
   63MOL   C32621530   1.366   2.096   2.367  0.0410 -0.1793  0.5682
   63MOL   C32721531   1.349   2.240   2.400  0.5089  0.0352  0.8225
   63MOL   C32821532   1.456   2.310   2.457 -0.4056 -0.3613 -0.5132
   63MOL   C32921533   1.439   2.449   2.485 -0.2985 -0.1979 -0.4637
   63MOL   C33021534   1.321   2.512   2.449  0.2551 -0.0602 -1.1208
   63MOL   C33121535   1.218   2.440   2.391  0.4194  0.4609  1.0338
   63MOL   C33221536   1.224   2.302   2.376 -0.0173  0.8142 -0.0272
   63MOL   O33321537   1.491   2.038   2.390  0.4246 -0.0736 -0.1963
   63MOL   H33421538   1.274   2.002   2.530 -0.7965  1.0492 -0.1513
   63MOL   H33521539   1.156   2.042   2.408 -0.2977 -1.0907  0.1688
   63MOL   H33621540   1.364   2.106   2.258  1.3671  1.7776  0.6959
   63MOL   H33721541   1.555   2.268   2.468 -0.8339 -1.6771 -1.5282
   63MOL   H33821542   1.514   2.505   2.539 -0.3836 -0.4999 -0.0314
   63MOL   H33921543   1.310   2.617   2.468  2.7882 -0.1949  1.4175
   63MOL   H34021544   1.128   2.492   2.359 -0.1610 -0.5208  1.0371
   63MOL   H34121545   1.143   2.246   2.332  0.2575  0.1056  0.3633
   63MOL   H34221546   1.474   1.946   2.375 -0.8940  0.3354 -1.2246
   64MOL     C121547   5.750   1.958   1.850 -0.1479 -0.4525  0.3813
   64MOL     C221548   5.637   1.898   1.930 -0.5365 -0.0665  0.1401
   64MOL     C321549   5.656   1.928   2.079 -0.9499 -0.2199 -0.3894
   64MOL     C421550   5.742   1.849   2.159 -0.0983 -0.9477 -0.6163
   64MOL     C521551   5.770   1.874   2.296 -0.1523 -0.4161  0.0842
   64MOL     C621552   5.726   1.991   2.349  0.7473  0.5151 -0.4136
   64MOL     C721553   5.636   2.076   2.273 -0.2301 -0.0902  0.8553
   64MOL     C821554   5.597   2.046   2.140 -0.4876  0.2634 -0.0212
   64MOL     O921555   5.639   1.749   1.907  0.3162  0.2738  0.1603
   64MOL    H1021556   5.753   1.938   1.743 -2.9401 -0.3230  0.2397
   64MOL    H1121557   5.746   2.066   1.860 -0.2837 -0.2627 -1.4220
   64MOL    H1221558   5.546   1.944   1.893 -1.0096 -0.2765  1.0372
   64MOL    H1321559   5.792   1.766   2.112  1.6749 -0.1100 -0.2588
   64MOL    H1421560   5.828   1.809   2.359 -2.3500 -0.4658  2.1058
   64MOL    H1521561   5.740   2.025   2.451 -2.7642  0.7279  0.0528
   64MOL    H1621562   5.599   2.162   2.327 -0.3734  0.6701 -0.4302
   64MOL    H1721563   5.532   2.109   2.082 -0.4951  2.0815  1.8882
   64MOL    H1821564   5.842   1.913   1.885  1.0647  0.5239 -1.4672
   64MOL    C1921565   5.535   1.718   1.810  0.0539 -0.1852  0.1797
   64MOL    C2021566   5.512   1.566   1.800 -0.2632 -0.6325 -0.8549
   64MOL    C2121567   5.410   1.537   1.689  0.3090 -0.1664  0.0954
   64MOL    C2221568   5.271   1.557   1.720  0.5458 -0.1568 -0.0117
   64MOL    C2321569   5.176   1.549   1.616  0.2859 -0.4302  0.3589
   64MOL    C2421570   5.218   1.508   1.488  0.0686 -0.0357 -0.0299
   64MOL    C2521571   5.351   1.480   1.465  0.7375  0.1440 -0.2819
   64MOL    C2621572   5.449   1.505   1.561  0.0763  0.2116 -0.1133
   64MOL    O2721573   5.469   1.524   1.929 -0.0197  0.8805 -0.3311
   64MOL    H2821574   5.443   1.769   1.839  0.8515  1.1886  0.3484
   64MOL    H2921575   5.568   1.751   1.712 -1.5851  0.0244 -0.3127
   64MOL    H3021576   5.609   1.517   1.787  1.3123  1.7825  1.1748
   64MOL    H3121577   5.228   1.576   1.818  0.8004 -1.1344  0.2952
   64MOL    H3221578   5.071   1.563   1.636  0.6116  3.9077 -0.4170
   64MOL    H3321579   5.147   1.505   1.407 -0.0266 -2.5751  0.0924
   64MOL    H3421580   5.376   1.455   1.363  2.4049 -1.4238  0.4702
   64MOL    H3521581   5.553   1.497   1.536  0.7948  0.9262  2.4942
   64MOL    C3621582   5.460   1.381   1.929  0.2920 -0.9652 -0.7273
   64MOL    C3721583   5.451   1.341   2.079  0.0044 -0.0991 -0.4142
   64MOL    C3821584   5.585   1.344   2.153 -0.3397  0.3389  0.3084
   64MOL    C3921585   5.649   1.469   2.176 -0.0682  0.6620 -0.5083
   64MOL    C4021586   5.770   1.473   2.249  0.6900 -0.1713  0.3502
   64MOL    C4121587   5.830   1.362   2.312 -0.4525  0.4418  0.4759
   64MOL    C4221588   5.768   1.241   2.290 -0.1138  0.0116 -0.1520
   64MOL    C4321589   5.644   1.231   2.216  0.2841  0.6901  0.2012
   64MOL    O4421590   5.389   1.215   2.096  0.5293  0.1942  0.0845
   64MOL    H4521591   5.367   1.357   1.877 -0.8248  0.0364  0.7990
   64MOL    H4621592   5.539   1.325   1.877  0.1945  0.0154 -1.9642
   64MOL    H4721593   5.388   1.420   2.120 -2.3646 -3.4416  2.6122
   64MOL    H4821594   5.600   1.560   2.144 -0.4457  0.0648 -1.6445
   64MOL    H4921595   5.815   1.571   2.260  1.5269 -0.5023 -0.1165
   64MOL    H5021596   5.920   1.370   2.371  0.9720 -0.6673 -1.5080
   64MOL    H5121597   5.808   1.151   2.333 -0.6953  0.2962  1.0009
   64MOL    H5221598   5.599   1.133   2.213 -2.6290  1.9783  0.3365
   64MOL    C5321599   5.275   1.227   2.187  0.0461  0.4689  0.3378
   64MOL    C5421600   5.252   1.070   2.224 -0.2538  0.1254 -0.4023
   64MOL    C5521601   5.248   0.979   2.100 -0.5775 -0.8277  0.2342
   64MOL    C5621602   5.122   0.944   2.046  0.0198 -0.4616 -0.4066
   64MOL    C5721603   5.115   0.848   1.942  0.0138  0.0688 -0.0850
   64MOL    C5821604   5.236   0.801   1.878  0.4256  0.6824  0.0544
   64MOL    C5921605   5.353   0.838   1.938  0.2394  0.2353  0.1774
   64MOL    C6021606   5.365   0.920   2.050  0.1866 -0.6950  0.3337
   64MOL    O6121607   5.343   1.021   2.325  0.3226 -0.5153  0.6040
   64MOL    H6221608   5.287   1.294   2.272  0.2347 -0.2202  0.8624
   64MOL    H6321609   5.189   1.267   2.133  2.2586  0.4775 -3.3115
   64MOL    H6421610   5.153   1.073   2.268  0.2004 -1.5978  0.7639
   64MOL    H6521611   5.037   0.981   2.102  1.3657 -0.3064  1.5519
   64MOL    H6621612   5.013   0.819   1.920  0.0055 -0.1172  0.1970
   64MOL    H6721613   5.239   0.728   1.799 -1.4025  0.7626 -0.1021
   64MOL    H6821614   5.446   0.802   1.896  1.7178  2.2661  1.5770
   64MOL    H6921615   5.459   0.949   2.094 -0.9460 -0.6960  2.8974
   64MOL    C7021616   5.299   0.908   2.394 -0.9771 -0.2792 -1.1747
   64MOL    C7121617   5.402   0.841   2.489 -0.0824  0.1252  1.0809
   64MOL    C7221618   5.529   0.805   2.414 -0.3476  0.1002 -0.3405
   64MOL    C7321619   5.518   0.697   2.316  0.0201  0.3348  0.3816
   64MOL    C7421620   5.635   0.660   2.248  0.5809  0.2598 -0.2444
   64MOL    C7521621   5.757   0.722   2.283  0.6735  0.0552  0.4399
   64MOL    C7621622   5.760   0.829   2.374 -0.3102  0.0999 -0.5941
   64MOL    C7721623   5.647   0.875   2.446 -0.0474  0.3470  0.0005
   64MOL    O7821624   5.352   0.721   2.539 -0.1230 -0.3308  0.6674
   64MOL    H7921625   5.208   0.939   2.446  0.0798 -1.7778  1.6704
   64MOL    H8021626   5.275   0.831   2.322 -0.7026 -3.3351  1.8495
   64MOL    H8121627   5.441   0.909   2.566  0.9062  1.0684 -0.2301
   64MOL    H8221628   5.427   0.639   2.305 -0.3967  0.9251  0.7154
   64MOL    H8321629   5.632   0.591   2.164  1.4863  1.4997 -1.3201
   64MOL    H8421630   5.840   0.687   2.225  1.5225  4.5378 -1.2472
   64MOL    H8521631   5.858   0.864   2.403 -0.9177  0.7660  0.6541
   64MOL    H8621632   5.651   0.955   2.518  2.0403  0.1833  0.1086
   64MOL    C8721633   5.288   0.736   2.662 -0.2500  0.1444 -0.5812
   64MOL    C8821634   5.378   0.717   2.788  0.0258  0.5708  0.1108
   64MOL    C8921635   5.299   0.715   2.914 -1.0886  0.8799 -0.7509
   64MOL    C9021636   5.232   0.829   2.957  0.4009  0.0619  0.7604
   64MOL    C9121637   5.130   0.810   3.055 -0.1294 -0.3593  0.0452
   64MOL    C9221638   5.113   0.686   3.127 -0.0492 -0.2254  0.4598
   64MOL    C9321639   5.199   0.579   3.084 -0.1200  0.0519 -0.1517
   64MOL    C9421640   5.284   0.584   2.971  0.4275 -0.0951 -0.0515
   64MOL    O9521641   5.475   0.820   2.794 -0.5543 -0.8063  0.3362
   64MOL    H9621642   5.221   0.650   2.664  0.0025 -0.0301  1.1568
   64MOL    H9721643   5.225   0.825   2.660 -0.7317 -0.1920 -0.4435
   64MOL    H9821644   5.443   0.629   2.787  0.5815  0.9702  0.8107
   64MOL    H9921645   5.242   0.918   2.896  0.5651 -1.8153 -2.0434
   64MOL   H10021646   5.075   0.903   3.058  0.9613  0.2929 -0.1238
   64MOL   H10121647   5.043   0.674   3.208 -0.2364 -0.3880  0.2771
   64MOL   H10221648   5.197   0.483   3.135 -1.7945 -0.6789 -1.5620
   64MOL   H10321649   5.336   0.493   2.944 -0.6295 -0.3426 -1.2869
   64MOL   C10421650   5.570   0.810   2.906 -0.2092  0.2734 -0.1884
   64MOL   C10521651   5.703   0.885   2.894 -0.5012 -0.1903 -0.5815
   64MOL   C10621652   5.689   1.040   2.889 -0.4309 -0.4414  0.7784
   64MOL   C10721653   5.656   1.112   3.004  0.3903 -0.0796 -0.6592
   64MOL   C10821654   5.655   1.256   2.995 -0.1462 -0.3912 -0.9484
   64MOL   C10921655   5.672   1.325   2.875 -0.1982  0.2550  0.0579
   64MOL   C11021656   5.709   1.247   2.764  0.1697  0.2049  0.9623
   64MOL   C11121657   5.713   1.107   2.763  0.3262  0.1220 -0.7575
   64MOL   O11221658   5.775   0.835   3.002  0.4370 -0.0651  0.3581
   64MOL   H11321659   5.525   0.847   2.998 -0.7891 -3.2661  1.0387
   64MOL   H11421660   5.595   0.704   2.914  0.7267  0.4471 -0.7031
   64MOL   H11521661   5.732   0.838   2.800  1.6636 -2.0283  0.9291
   64MOL   H11621662   5.637   1.050   3.091 -0.3569 -0.9006 -1.3941
   64MOL   H11721663   5.625   1.311   3.083 -1.4260 -1.6989 -0.5507
   64MOL   H11821664   5.661   1.432   2.874 -0.7039  0.2140 -1.9407
   64MOL   H11921665   5.730   1.296   2.670  0.1558 -2.6569 -0.6102
   64MOL   H12021666   5.743   1.062   2.670  2.5968  3.4775 -1.7643
   64MOL   C12121667   5.917   0.846   2.990  0.0284  0.3671 -0.1718
   64MOL   C12221668   6.001   0.812   3.115  0.8780 -0.0869 -0.1643
   64MOL   C12321669   5.962   0.876   3.239 -0.1969  0.5784  0.0649
   64MOL   C12421670   5.874   0.802   3.331  0.0354  0.1966  0.1567
   64MOL   C12521671   5.830   0.860   3.448  0.0096  0.2151  0.1158
   64MOL   C12621672   5.859   0.998   3.474  0.0706 -0.8903 -0.0527
   64MOL   C12721673   5.936   1.073   3.377 -0.0479  0.2391  0.5516
   64MOL   C12821674   5.984   1.013   3.261  0.1633 -0.5251 -0.6413
   64MOL   O12921675   6.010   0.670   3.131 -0.1134  0.0486  0.0059
   64MOL   H13021676   5.944   0.948   2.962 -0.6502  0.3789 -0.8136
   64MOL   H13121677   5.939   0.774   2.910  1.0714 -0.3063  0.7174
   64MOL   H13221678   6.100   0.854   3.093  1.4443 -1.4778 -0.3170
   64MOL   H13321679   5.848   0.701   3.303  1.1008 -0.3908  1.2299
   64MOL   H13421680   5.772   0.798   3.515  1.5481  0.4666  1.7125
   64MOL   H13521681   5.834   1.061   3.558  2.2618 -0.4163  0.2947
   64MOL   H13621682   5.961   1.174   3.404 -2.8077  0.5430  2.1684
   64MOL   H13721683   6.046   1.072   3.196 -0.2201 -1.5917 -2.0061
   64MOL   C13821684   6.112   0.606   3.050  0.5050  0.2087 -0.1201
   64MOL   C13921685   6.090   0.455   3.064 -0.0387  0.2184  0.0653
   64MOL   C14021686   6.103   0.411   3.209  0.2127 -0.0528 -0.0847
   64MOL   C14121687   6.226   0.374   3.272  0.7531  0.1330  0.3694
   64MOL   C14221688   6.229   0.329   3.406  0.2783 -0.3601 -0.3194
   64MOL   C14321689   6.116   0.351   3.488  0.4475  0.6554 -0.4626
   64MOL   C14421690   6.000   0.402   3.433  0.0077 -0.0952  0.1007
   64MOL   C14521691   5.993   0.420   3.293  0.2254  0.0823  0.8864
   64MOL   O14621692   5.962   0.428   3.013  0.1386 -0.1065  0.7248
   64MOL   H14721693   6.206   0.635   3.097  0.1366 -1.0470  1.4597
   64MOL   H14821694   6.117   0.634   2.945 -1.6514  1.6000  0.1305
   64MOL   H14921695   6.174   0.411   3.010  0.5022  0.3134  0.8163
   64MOL   H15021696   6.318   0.366   3.218  0.3845 -2.1654  0.0315
   64MOL   H15121697   6.324   0.298   3.447 -0.2790 -1.5412  0.1115
   64MOL   H15221698   6.107   0.332   3.594 -0.1956 -1.3279 -0.8474
   64MOL   H15321699   5.913   0.415   3.495  0.4844 -0.2271  0.8094
   64MOL   H15421700   5.904   0.454   3.241  1.3279 -0.4290 -1.4369
   64MOL   C15521701   5.956   0.297   2.950  0.5423 -0.1928 -0.2197
   64MOL   C15621702   5.805   0.257   2.919 -0.4397 -0.4095  0.1294
   64MOL   C15721703   5.709   0.281   3.032 -0.0879 -0.0341 -0.8459
   64MOL   C15821704   5.660   0.174   3.116 -0.1304 -0.5558  0.9484
   64MOL   C15921705   5.565   0.209   3.210  0.0696 -0.4775 -0.0425
   64MOL   C16021706   5.528   0.339   3.249 -0.0278  0.3418 -0.1005
   64MOL   C16121707   5.593   0.440   3.180  0.1538  0.3383  0.1922
   64MOL   C16221708   5.672   0.413   3.068  0.1279 -0.2008 -0.3341
   64MOL   O16321709   5.773   0.334   2.796 -0.2595 -0.3763  0.2396
   64MOL   H16421710   5.984   0.223   3.025 -0.0634  1.0872  1.2767
   64MOL   H16521711   6.027   0.280   2.868 -0.0198 -0.1898 -0.7068
   64MOL   H16621712   5.788   0.149   2.912 -0.6952 -0.4491  1.2788
   64MOL   H16721713   5.687   0.072   3.096 -0.6488 -0.4409 -0.3836
   64MOL   H16821714   5.514   0.127   3.260  0.3689  0.0584  1.1628
   64MOL   H16921715   5.468   0.362   3.336 -1.0878  2.9587 -1.4617
   64MOL   H17021716   5.566   0.545   3.188 -0.8493  0.1523 -0.6423
   64MOL   H17121717   5.705   0.493   3.004 -0.1471 -0.5674 -0.9367
   64MOL   C17221718   5.637   0.322   2.747 -0.0398 -0.4694 -0.2204
   64MOL   C17321719   5.623   0.247   2.615 -0.1831  0.2167 -0.8015
   64MOL   C17421720   5.480   0.255   2.567  0.6252  0.3370  0.0170
   64MOL   C17521721   5.397   0.143   2.574  0.0634  0.2019  0.3272
   64MOL   C17621722   5.258   0.154   2.541 -0.6738 -0.8078 -0.9828
   64MOL   C17721723   5.209   0.281   2.492 -0.0750 -0.2130  0.2107
   64MOL   C17821724   5.297   0.389   2.481  0.1229 -0.4464  0.3801
   64MOL   C17921725   5.433   0.376   2.516 -0.3323  0.0039  0.0895
   64MOL   O18021726   5.666   0.112   2.643 -0.1170 -0.0019 -0.0398
   64MOL   H18121727   5.579   0.258   2.814 -0.5066 -0.4319 -0.5838
   64MOL   H18221728   5.593   0.420   2.730  1.7475  0.0644 -2.0331
   64MOL   H18321729   5.690   0.302   2.549 -1.1390  4.0028  1.2436
   64MOL   H18421730   5.434   0.044   2.598 -2.1022 -0.7485 -0.1048
   64MOL   H18521731   5.182   0.078   2.558 -0.8136 -0.4822 -0.1327
   64MOL   H18621732   5.112   0.304   2.450 -0.0729 -0.8269 -0.1301
   64MOL   H18721733   5.263   0.487   2.450  0.8320 -0.1536  0.5129
   64MOL   H18821734   5.502   0.459   2.509 -0.0567 -0.1859  0.4886
   64MOL   C18921735   5.755   0.063   2.536 -0.1386 -0.3844 -0.3971
   64MOL   C19021736   5.782   7.998   2.560  1.0437  0.9037  0.3356
   64MOL   C19121737   5.872   7.985   2.678  0.4755 -0.5067 -0.0109
   64MOL   C19221738   6.010   8.003   2.654 -0.0593  0.1872  0.5228
   64MOL   C19321739   6.099   8.011   2.758 -0.0288  0.2752  0.0990
   64MOL   C19421740   6.056   8.003   2.888  0.2138 -0.2747 -0.3184
   64MOL   C19521741   5.917   7.977   2.910  0.2157 -0.3025 -0.1498
   64MOL   C19621742   5.824   7.960   2.807  0.1534 -0.0399  0.1743
   64MOL   O19721743   5.846   7.945   2.442  0.2431 -0.3427  0.3297
   64MOL   H19821744   5.715   0.084   2.437 -0.2473  0.5388 -0.1621
   64MOL   H19921745   5.846   0.123   2.533 -1.6718  1.9690 -1.2887
   64MOL   H20021746   5.688   7.946   2.581  1.5075  0.1489  0.5476
   64MOL   H20121747   6.054   8.018   2.557  1.8014  0.1435  1.3360
   64MOL   H20221748   6.203   8.035   2.738  0.7668 -1.5041  1.9997
   64MOL   H20321749   6.119   8.014   2.975 -0.0131 -1.9394  0.0819
   64MOL   H20421750   5.880   7.960   3.010 -1.5923  0.0559 -0.7221
   64MOL   H20521751   5.720   7.942   2.829 -0.7083  2.9188 -1.1685
   64MOL   C20621752   5.802   7.817   2.398  0.4254 -0.2940  0.3260
   64MOL   C20721753   5.887   7.783   2.274 -0.4485  0.1543 -0.8867
   64MOL   C20821754   6.043   7.769   2.321  0.3310  0.6008  0.2444
   64MOL   C20921755   6.151   7.804   2.233  0.9803  0.4632 -0.5549
   64MOL   C21021756   6.284   7.800   2.281  0.2668  0.8087 -0.9726
   64MOL   C21121757   6.312   7.751   2.413 -0.4503  0.7246  0.6917
   64MOL   C21221758   6.204   7.703   2.489 -0.3495 -0.0790 -0.2212
   64MOL   C21321759   6.069   7.716   2.447  0.2693 -0.6453  0.0236
   64MOL   O21421760   5.855   7.881   2.171 -0.4250  0.1404 -1.4265
   64MOL   H21521761   5.803   7.748   2.483  1.2820  1.1121  1.4768
   64MOL   H21621762   5.698   7.829   2.365  0.3487  0.5133  0.8488
   64MOL   H21721763   5.850   7.686   2.240 -1.3220  0.1845 -0.0480
   64MOL   H21821764   6.124   7.844   2.136  1.6872 -0.3228 -1.0847
   64MOL   H21921765   6.367   7.828   2.218  1.3391  1.1923  0.5846
   64MOL   H22021766   6.415   7.749   2.447  0.0822 -1.6811 -0.9180
   64MOL   H22121767   6.227   7.654   2.582  0.3309 -0.7655 -0.7499
   64MOL   H22221768   5.991   7.682   2.514  1.4495 -2.3987  0.5394
   64MOL   C22321769   5.854   7.826   2.040  0.3358  0.3414 -0.0348
   64MOL   C22421770   5.804   7.939   1.949  0.2120 -0.1954  0.3157
   64MOL   C22521771   5.829   7.901   1.805 -0.1814 -0.6796 -0.4395
   64MOL   C22621772   5.923   7.981   1.730 -0.2963  0.4414  0.4169
   64MOL   C22721773   5.937   7.962   1.594  0.5872  0.4274  0.3274
   64MOL   C22821774   5.863   7.863   1.533  0.0365 -0.5264 -0.5382
   64MOL   C22921775   5.770   7.780   1.602  0.1203 -0.1497 -0.1545
   64MOL   C23021776   5.749   7.810   1.740  0.5844 -0.8165 -0.2994
   64MOL   O23121777   5.667   7.962   1.986  0.1970  0.9210 -0.2051
   64MOL   H23221778   5.948   7.780   2.009 -1.2774 -2.6965 -0.5851
   64MOL   H23321779   5.783   7.745   2.028  1.7035 -0.8504 -0.2070
   64MOL   H23421780   5.857   8.029   1.981  3.1534 -1.4705 -0.7629
   64MOL   H23521781   5.988   8.051   1.781  0.8821  1.2612 -2.1388
   64MOL   H23621782   6.006   8.018   1.534 -0.5558 -1.4724 -2.8805
   64MOL   H23721783   5.876   7.852   1.426 -0.6184  0.2597 -0.7026
   64MOL   H23821784   5.706   7.708   1.554  0.0530 -0.0868 -0.1600
   64MOL   H23921785   5.670   7.752   1.786 -1.3649 -0.3288 -2.9263
   64MOL   C24021786   5.601   8.077   1.934 -0.0417  0.3531  0.3943
   64MOL   C24121787   5.456   0.004   1.999 -0.1577 -0.7922 -0.0477
   64MOL   C24221788   5.422   0.157   2.020 -0.2808  0.2647  0.1227
   64MOL   C24321789   5.399   0.237   1.904 -0.4710  0.0305  0.1223
   64MOL   C24421790   5.391   0.375   1.915 -0.7056 -0.5061 -0.1667
   64MOL   C24521791   5.422   0.438   2.037  0.7794 -0.0760  0.4492
   64MOL   C24621792   5.436   0.360   2.158 -0.2620 -0.2179  0.9664
   64MOL   C24721793   5.436   0.222   2.146 -0.0192  1.0507 -0.1624
   64MOL   O24821794   5.355   8.028   1.912 -0.4377 -0.6111  0.7368
   64MOL   H24921795   5.666   0.080   1.962  1.2124 -0.2075 -0.7953
   64MOL   H25021796   5.587   8.064   1.827  3.5599 -0.6232 -0.0589
   64MOL   H25121797   5.456   8.035   2.096  1.0711 -0.7447 -0.0144
   64MOL   H25221798   5.391   0.187   1.810 -1.8693  1.8800 -0.7803
   64MOL   H25321799   5.378   0.441   1.830 -2.5023 -1.0393 -0.3303
   64MOL   H25421800   5.422   0.546   2.041 -0.8095  0.0270 -1.3657
   64MOL   H25521801   5.449   0.412   2.252  2.1475 -0.4891  0.8242
   64MOL   H25621802   5.438   0.168   2.239 -0.8107 -0.3624 -0.9515
   64MOL   C25721803   5.329   7.887   1.921 -0.5375 -0.1575  0.6105
   64MOL   C25821804   5.239   7.838   1.814  0.4992  0.1999 -1.0802
   64MOL   C25921805   5.265   7.891   1.679 -0.8727  0.6154  0.1168
   64MOL   C26021806   5.168   7.965   1.605  0.5377  0.3510 -0.2575
   64MOL   C26121807   5.204   8.002   1.474 -0.7314  0.2613 -0.0932
   64MOL   C26221808   5.336   7.982   1.422  0.5179 -0.2583 -0.2467
   64MOL   C26321809   5.426   7.909   1.495 -0.5947  0.1247  0.3807
   64MOL   C26421810   5.392   7.862   1.623  0.1475  0.2642 -0.0666
   64MOL   O26521811   5.110   7.858   1.858  0.2357 -0.1559 -0.2976
   64MOL   H26621812   5.297   7.862   2.022  0.9192 -1.5935  0.7469
   64MOL   H26721813   5.424   7.835   1.911 -0.5983 -0.6307  2.3534
   64MOL   H26821814   5.269   7.733   1.815 -0.9727 -0.2322 -0.7052
   64MOL   H26921815   5.069   7.986   1.642  0.4695  0.8661 -0.7227
   64MOL   H27021816   5.131   8.048   1.409  0.1015  2.7592  0.6747
   64MOL   H27121817   5.364   8.015   1.323 -1.0085 -0.4152 -0.7396
   64MOL   H27221818   5.524   7.883   1.458 -1.6256  0.6653 -2.8853
   64MOL   H27321819   5.464   7.821   1.692 -1.6698 -0.9903  1.1073
   64MOL   C27421820   5.023   7.748   1.821  0.0709 -0.6181 -0.0264
   64MOL   C27521821   5.038   7.623   1.914 -0.3138 -0.8768 -0.5896
   64MOL   C27621822   4.946   7.507   1.879  0.5773 -0.4779 -0.1725
   64MOL   C27721823   4.998   7.409   1.793 -0.9198 -0.4024  0.2014
   64MOL   C27821824   4.918   7.294   1.768 -0.1150  0.5277  0.1100
   64MOL   C27921825   4.794   7.273   1.825  0.4730  0.5768  0.0988
   64MOL   C28021826   4.735   7.374   1.902  0.1490 -0.3083 -0.2647
   64MOL   C28121827   4.817   7.490   1.937 -0.1996  0.6783 -0.2490
   64MOL   O28221828   5.027   7.668   2.050 -0.0232  0.5151 -0.0727
   64MOL   H28321829   4.923   7.790   1.835  0.7578  1.6214 -1.6087
   64MOL   H28421830   5.033   7.721   1.716  0.2339 -2.0583  0.3539
   64MOL   H28521831   5.141   7.594   1.896 -0.4959 -2.0885  0.3167
   64MOL   H28621832   5.093   7.416   1.742 -0.9964  0.7025  0.2005
   64MOL   H28721833   4.962   7.223   1.701 -0.3405  0.7210 -0.2428
   64MOL   H28821834   4.731   7.187   1.807 -1.4008  1.4444  2.1866
   64MOL   H28921835   4.639   7.354   1.947  0.8650  0.0742  1.4551
   64MOL   H29021836   4.774   7.559   2.008 -0.3418 -0.4747  0.8041
   64MOL   C29121837   5.139   7.633   2.135 -0.5664 -0.3898  0.0747
   64MOL   C29221838   5.126   7.479   2.178 -0.6556  0.1974 -0.9342
   64MOL   C29321839   4.994   7.442   2.249 -0.2578  0.3702 -0.1608
   64MOL   C29421840   4.953   7.532   2.354  0.9057  0.2306 -0.2808
   64MOL   C29521841   4.835   7.504   2.427  0.9236 -0.1520 -0.2986
   64MOL   C29621842   4.751   7.402   2.387  0.8479  0.3114  0.3610
   64MOL   C29721843   4.787   7.315   2.281 -0.3707  0.2721  0.1020
   64MOL   C29821844   4.911   7.334   2.212  0.6057  0.3994 -0.0922
   64MOL   O29921845   5.168   7.404   2.066  0.3706  0.4455 -0.4031
   64MOL   H30021846   5.108   7.699   2.216  0.6045 -0.0736  0.2712
   64MOL   H30121847   5.236   7.650   2.088 -1.0316  3.4268  0.3112
   64MOL   H30221848   5.202   7.465   2.254 -1.9549  2.8649  0.9564
   64MOL   H30321849   5.030   7.602   2.383  1.4140 -0.7948  0.8869
   64MOL   H30421850   4.797   7.569   2.503 -2.6914  1.2589 -3.1573
   64MOL   H30521851   4.652   7.396   2.430  1.0559  2.1392  1.1339
   64MOL   H30621852   4.714   7.249   2.236  1.4076 -0.1579 -2.2886
   64MOL   H30721853   4.948   7.269   2.134  0.9074  0.8361 -0.3149
   64MOL   C30821854   5.228   7.276   2.095  0.0542  0.5364  0.2060
   64MOL   C30921855   5.384   7.281   2.108 -0.4916  0.0973  0.0624
   64MOL   C31021856   5.453   7.314   1.981  0.5086  0.1127 -0.2904
   64MOL   C31121857   5.437   7.444   1.923 -0.6824 -0.6012 -0.1463
   64MOL   C31221858   5.503   7.484   1.806 -0.1593  0.3542 -0.2880
   64MOL   C31321859   5.577   7.390   1.738  0.3184  0.5923  0.1219
   64MOL   C31421860   5.593   7.257   1.788  0.7690 -0.3505  0.1901
   64MOL   C31521861   5.526   7.219   1.909  0.0386 -0.2648  0.0864
   64MOL   O31621862   5.412   7.387   2.204 -0.8976 -0.6965  0.1575
   64MOL   H31721863   5.208   7.207   2.012  0.7524  0.7044 -0.1026
   64MOL   H31821864   5.196   7.232   2.189 -2.9613 -0.2657 -1.1285
   64MOL   H31921865   5.424   7.184   2.140 -3.3461 -0.7368  1.3213
   64MOL   H32021866   5.373   7.516   1.971 -1.7467 -1.5390 -0.1258
   64MOL   H32121867   5.494   7.581   1.760  2.7839 -0.6613 -3.1632
   64MOL   H32221868   5.614   7.416   1.640  1.7667  0.8370  0.7205
   64MOL   H32321869   5.635   7.179   1.727 -1.2830 -0.7145 -0.7950
   64MOL   H32421870   5.530   7.116   1.941  0.4389  0.3008  1.9289
   64MOL   C32521871   5.536   7.383   2.267  0.5075 -0.2490 -0.7155
   64MOL   C32621872   5.578   7.532   2.285 -0.0579  0.0392  0.6650
   64MOL   C32721873   5.463   7.631   2.328 -0.5352 -0.2492  0.0842
   64MOL   C32821874   5.455   7.760   2.267  0.0781  0.0776 -0.1107
   64MOL   C32921875   5.353   7.849   2.311 -0.2206  0.2869 -0.1026
   64MOL   C33021876   5.269   7.817   2.421  0.0713  0.3823 -0.3871
   64MOL   C33121877   5.283   7.695   2.487 -0.3006 -0.2915  0.6798
   64MOL   C33221878   5.374   7.605   2.432  0.0094  0.2490 -0.8821
   64MOL   O33321879   5.679   7.531   2.386  0.2817 -0.0016  0.3003
   64MOL   H33421880   5.611   7.337   2.203  1.9310 -0.5558  1.1144
   64MOL   H33521881   5.528   7.322   2.357  0.9326  2.4598  1.2014
   64MOL   H33621882   5.621   7.569   2.192  3.4445 -0.6858  1.9378
   64MOL   H33721883   5.508   7.787   2.177 -0.3765  1.6770  0.0907
   64MOL   H33821884   5.335   7.929   2.241 -0.3238  0.6822  0.3775
   64MOL   H33921885   5.182   7.878   2.441  0.1970  0.5614 -0.3840
   64MOL   H34021886   5.233   7.677   2.581 -0.3295 -0.9628  0.5381
   64MOL   H34121887   5.381   7.508   2.479 -0.0364  0.3202 -0.7248
   64MOL   H34221888   5.652   7.492   2.468 -0.6658 -0.4696 -0.2223
   65MOL     C121889   7.308   2.929   7.414  0.0177 -0.7154  0.1381
   65MOL     C221890   7.259   2.797   7.354 -0.0715  0.0251 -0.1703
   65MOL     C321891   7.296   2.793   7.211 -0.1166  0.2048  0.2041
   65MOL     C421892   7.205   2.784   7.100  0.2340 -0.0726  0.7030
   65MOL     C521893   7.248   2.774   6.963 -0.5347 -0.4984  0.0741
   65MOL     C621894   7.384   2.765   6.935  0.3846  0.3665 -1.0537
   65MOL     C721895   7.474   2.762   7.043  0.5114  0.3383  0.0503
   65MOL     C821896   7.432   2.766   7.181 -0.2145 -0.0530 -0.0563
   65MOL     O921897   7.124   2.765   7.381 -0.1619 -0.2878  0.2353
   65MOL    H1021898   7.289   2.942   7.521 -0.8290 -0.6846 -0.0119
   65MOL    H1121899   7.417   2.941   7.409 -0.1586  2.1011  1.5915
   65MOL    H1221900   7.313   2.717   7.406  0.6479  1.6978  1.6895
   65MOL    H1321901   7.098   2.795   7.117  0.1313 -0.2558  0.1764
   65MOL    H1421902   7.174   2.790   6.885  0.7931  2.4078 -0.6431
   65MOL    H1521903   7.428   2.773   6.837  0.5332  1.4959 -0.9069
   65MOL    H1621904   7.579   2.768   7.019  0.4140  2.6375  0.1238
   65MOL    H1721905   7.506   2.761   7.260 -0.6780 -5.5014  0.1818
   65MOL    H1821906   7.258   3.017   7.374 -0.1063 -1.0419 -0.4285
   65MOL    C1921907   7.033   2.879   7.386  0.3901  0.2247  0.8557
   65MOL    C2021908   6.889   2.838   7.357  0.1435  0.7984 -0.6917
   65MOL    C2121909   6.855   2.779   7.223 -0.0742  0.1699  0.2359
   65MOL    C2221910   6.894   2.644   7.191 -0.3171 -0.4093  0.5668
   65MOL    C2321911   6.880   2.590   7.059  0.7366 -0.1197 -0.2412
   65MOL    C2421912   6.815   2.677   6.963 -0.4051 -0.4817  0.9007
   65MOL    C2521913   6.801   2.818   6.992  0.1486  0.2950 -0.4584
   65MOL    C2621914   6.813   2.868   7.122  0.0721  0.1458 -0.2064
   65MOL    O2721915   6.808   2.953   7.399  0.9679 -0.1728  0.0032
   65MOL    H2821916   7.034   2.920   7.487  1.6143 -2.4665  1.9938
   65MOL    H2921917   7.064   2.959   7.319 -0.1475 -0.8828 -0.7579
   65MOL    H3021918   6.873   2.757   7.428  2.1290  0.4580 -0.5849
   65MOL    H3121919   6.919   2.583   7.277 -3.3282  0.6984  2.3033
   65MOL    H3221920   6.893   2.485   7.037 -0.4871 -0.3862  0.2528
   65MOL    H3321921   6.787   2.645   6.863 -0.4862  1.5279  0.2656
   65MOL    H3421922   6.766   2.885   6.915 -2.7228  0.3531  0.8213
   65MOL    H3521923   6.810   2.976   7.133  2.0698  0.5657 -3.2776
   65MOL    C3621924   6.664   2.930   7.411 -0.2548  0.4901  0.0959
   65MOL    C3721925   6.593   3.065   7.470  0.4785 -0.3837 -0.3225
   65MOL    C3821926   6.576   3.055   7.620  0.0089  0.4992  0.2962
   65MOL    C3921927   6.478   2.974   7.674  0.1530  0.2660  0.0754
   65MOL    C4021928   6.453   2.981   7.810  0.2384  0.8126  0.1502
   65MOL    C4121929   6.525   3.071   7.896 -0.8266  0.2059  0.0113
   65MOL    C4221930   6.632   3.144   7.842 -0.2390  0.0552 -0.2648
   65MOL    C4321931   6.663   3.129   7.707  0.2485 -0.2431 -0.2950
   65MOL    O4421932   6.482   3.111   7.394  0.2393 -0.1569  0.0002
   65MOL    H4521933   6.617   2.903   7.316  0.4464 -0.2861 -0.0372
   65MOL    H4621934   6.642   2.840   7.468  0.2838 -1.3599 -2.5243
   65MOL    H4721935   6.665   3.142   7.443  0.9950 -0.6724  0.2301
   65MOL    H4821936   6.424   2.901   7.617 -1.0384  2.3356 -1.5240
   65MOL    H4921937   6.373   2.917   7.845 -1.0565  0.6815 -2.9050
   65MOL    H5021938   6.497   3.086   7.999 -0.2711 -0.7490  0.3068
   65MOL    H5121939   6.686   3.218   7.899 -0.1122  0.1273 -0.4761
   65MOL    H5221940   6.746   3.186   7.666 -1.6806  3.3478  0.5938
   65MOL    C5321941   6.390   3.206   7.455  0.0507  0.3149  0.4837
   65MOL    C5421942   6.314   3.283   7.339  0.6248 -0.1139  0.2452
   65MOL    C5521943   6.190   3.358   7.391 -0.7884  0.1581 -0.5939
   65MOL    C5621944   6.200   3.479   7.466  0.6277  0.2557 -0.0646
   65MOL    C5721945   6.080   3.538   7.512 -0.2025 -0.0388  0.5225
   65MOL    C5821946   5.955   3.475   7.491 -0.5130  1.0609 -0.2467
   65MOL    C5921947   5.946   3.357   7.416 -0.1342 -0.5303 -0.0643
   65MOL    C6021948   6.060   3.299   7.361 -0.1092  0.2325  0.3118
   65MOL    O6121949   6.413   3.378   7.296 -0.0106 -0.0808  0.4206
   65MOL    H6221950   6.326   3.151   7.524  0.5016 -1.1616 -0.2534
   65MOL    H6321951   6.444   3.275   7.520  1.4588 -1.0156  0.7562
   65MOL    H6421952   6.283   3.208   7.265 -0.4549 -1.1491  1.7137
   65MOL    H6521953   6.294   3.523   7.496  0.4354  0.9076 -0.4085
   65MOL    H6621954   6.085   3.626   7.573 -0.1335  0.0011  0.4584
   65MOL    H6721955   5.865   3.510   7.538  0.3797  1.8515  0.9103
   65MOL    H6821956   5.851   3.312   7.396  1.6932 -4.3403 -0.6326
   65MOL    H6921957   6.056   3.213   7.296  0.3646  0.5379 -0.1239
   65MOL    C7021958   6.377   3.448   7.175 -1.1323  0.9366  0.1467
   65MOL    C7121959   6.457   3.410   7.052  0.5849  0.2908  0.3926
   65MOL    C7221960   6.429   3.255   7.037 -0.1038 -0.4817  0.4678
   65MOL    C7321961   6.314   3.211   6.983 -0.4264  0.2956  0.0144
   65MOL    C7421962   6.279   3.078   6.978  0.5364  0.2677  1.0721
   65MOL    C7521963   6.367   2.978   7.023  0.2619  0.2017  0.2734
   65MOL    C7621964   6.488   3.018   7.083 -0.2565 -0.0976  0.6814
   65MOL    C7721965   6.520   3.153   7.087  0.7428 -0.3192 -0.2960
   65MOL    O7821966   6.594   3.439   7.072  0.5180 -0.1295  0.2297
   65MOL    H7921967   6.269   3.440   7.157 -1.0783  0.7100 -0.0798
   65MOL    H8021968   6.393   3.553   7.197 -1.9096  1.0617  0.1452
   65MOL    H8121969   6.417   3.454   6.961  2.3703 -2.1240 -1.5936
   65MOL    H8221970   6.246   3.282   6.938 -1.1104 -0.1601  0.3259
   65MOL    H8321971   6.179   3.052   6.946  1.2121 -1.6508  0.3883
   65MOL    H8421972   6.326   2.878   7.026  1.4486 -0.3130 -0.3468
   65MOL    H8521973   6.559   2.948   7.126 -2.3030 -1.6477  1.6224
   65MOL    H8621974   6.613   3.184   7.132 -0.3776  2.2677  0.3610
   65MOL    C8721975   6.661   3.426   6.946 -0.7514  0.9096  0.1391
   65MOL    C8821976   6.813   3.452   6.959 -0.5723 -0.1705 -0.3705
   65MOL    C8921977   6.880   3.462   6.827  0.0182 -0.0136 -0.7569
   65MOL    C9021978   6.927   3.587   6.784  0.2035 -0.2631  0.1912
   65MOL    C9121979   6.984   3.596   6.655 -0.1954  0.1397  1.0957
   65MOL    C9221980   6.996   3.479   6.573  0.4158 -0.2090 -0.6574
   65MOL    C9321981   6.946   3.355   6.622 -0.9818 -0.2873 -0.1700
   65MOL    C9421982   6.883   3.347   6.748 -0.3059  0.4995 -0.1950
   65MOL    O9521983   6.861   3.348   7.035 -0.1001 -0.3030 -0.0719
   65MOL    H9621984   6.616   3.494   6.874 -1.2616 -0.0127 -0.4202
   65MOL    H9721985   6.645   3.323   6.914 -0.0029  0.8260  0.0234
   65MOL    H9821986   6.830   3.539   7.022  0.9398 -0.6347 -0.1192
   65MOL    H9921987   6.912   3.671   6.850 -0.8083 -0.5162  0.2946
   65MOL   H10021988   7.013   3.696   6.625  0.6016 -0.5739 -0.5722
   65MOL   H10121989   7.040   3.495   6.476  0.1209 -0.1198 -0.7797
   65MOL   H10221990   6.941   3.272   6.553  2.7672 -2.1447  1.6693
   65MOL   H10321991   6.843   3.256   6.790  1.6550  0.5627  1.9391
   65MOL   C10421992   7.001   3.362   7.079  0.5936 -0.2172 -0.0720
   65MOL   C10521993   7.048   3.226   7.144 -0.7673  0.3975  0.2139
   65MOL   C10621994   7.145   3.155   7.047  0.3688  0.1236 -0.8328
   65MOL   C10721995   7.093   3.120   6.914 -0.2366  1.2313 -0.5423
   65MOL   C10821996   7.183   3.081   6.813  1.5403 -1.2543 -0.8835
   65MOL   C10921997   7.319   3.085   6.847  0.2122  0.7977 -0.4216
   65MOL   C11021998   7.371   3.111   6.976  0.6870  0.9554 -0.7960
   65MOL   C11121999   7.278   3.144   7.076  0.9895  0.4121  0.5567
   65MOL   O11222000   7.107   3.254   7.268 -0.5101  0.0728 -0.1637
   65MOL   H11322001   7.058   3.414   7.002  2.3650 -0.6253  0.9292
   65MOL   H11422002   6.997   3.437   7.158  1.4407  0.7624 -0.9482
   65MOL   H11522003   6.969   3.152   7.154 -0.2307 -0.3265 -0.8196
   65MOL   H11622004   6.985   3.118   6.904 -0.0976 -0.0135 -1.8287
   65MOL   H11722005   7.143   3.050   6.718 -0.4999 -1.7831  0.1171
   65MOL   H11822006   7.391   3.068   6.768 -0.5322  2.1792 -1.4070
   65MOL   H11922007   7.475   3.109   7.002  0.3491 -1.9490  0.4741
   65MOL   H12022008   7.308   3.156   7.180  1.4738 -2.9132  0.8328
   65MOL   C12122009   7.006   3.267   7.372 -0.0853 -0.6301  0.5905
   65MOL   C12222010   7.066   3.332   7.494 -0.5131 -0.0468  0.0364
   65MOL   C12322011   7.178   3.258   7.569  0.0833 -0.0344  0.1374
   65MOL   C12422012   7.133   3.147   7.638  0.1458  0.7770 -0.3643
   65MOL   C12522013   7.221   3.077   7.714 -0.1353  0.0955 -0.0652
   65MOL   C12622014   7.358   3.115   7.721 -0.5551  0.1166 -0.1460
   65MOL   C12722015   7.410   3.221   7.643  0.0110 -0.1421 -0.1040
   65MOL   C12822016   7.315   3.300   7.564 -0.0993  0.1656  0.0694
   65MOL   O12922017   7.105   3.461   7.456 -0.1986 -0.0434  0.1420
   65MOL   H13022018   6.959   3.172   7.399 -0.3113 -0.6664  0.0689
   65MOL   H13122019   6.919   3.319   7.333  0.8687  0.6955  0.1903
   65MOL   H13222020   6.983   3.343   7.565 -1.8863 -5.1826 -0.5480
   65MOL   H13322021   7.033   3.108   7.631  1.7870 -3.3792 -2.8366
   65MOL   H13422022   7.194   2.986   7.766 -0.8495  0.6723  0.5889
   65MOL   H13522023   7.418   3.052   7.784 -1.4529 -0.8811 -0.2723
   65MOL   H13622024   7.517   3.231   7.635  0.0944 -0.0213  1.0585
   65MOL   H13722025   7.342   3.381   7.498  2.0820  0.2216  0.9577
   65MOL   C13822026   7.111   3.552   7.566  0.0206 -0.0319  0.2125
   65MOL   C13922027   7.012   3.672   7.540  0.4422  0.5107  0.0474
   65MOL   C14022028   6.865   3.617   7.559  0.0094 -0.3522  0.1881
   65MOL   C14122029   6.820   3.607   7.687  0.9043  0.3187  0.1369
   65MOL   C14222030   6.680   3.568   7.701 -1.1254 -0.1411 -0.1634
   65MOL   C14322031   6.604   3.538   7.590  0.3304 -0.1055 -0.8177
   65MOL   C14422032   6.657   3.521   7.461  0.2259 -0.7238  0.6796
   65MOL   C14522033   6.788   3.570   7.446  0.4151 -1.2990  0.2553
   65MOL   O14622034   7.042   3.782   7.624  0.1038 -0.6055  0.0470
   65MOL   H14722035   7.213   3.591   7.575 -0.2056  0.0033  3.1268
   65MOL   H14822036   7.096   3.503   7.662  0.7398 -0.2725  0.2065
   65MOL   H14922037   7.017   3.695   7.434 -0.3739 -2.4284 -0.6872
   65MOL   H15022038   6.884   3.644   7.766  0.5232  3.7925 -1.0553
   65MOL   H15122039   6.651   3.563   7.804  0.5425 -1.9368  0.2462
   65MOL   H15222040   6.503   3.506   7.611  0.6529  1.0992  2.7970
   65MOL   H15322041   6.597   3.498   7.373  0.5465 -3.3923  1.1062
   65MOL   H15422042   6.809   3.572   7.340 -0.3729  0.9371  0.1075
   65MOL   C15522043   7.015   3.907   7.570  0.0098  0.1801  0.1401
   65MOL   C15622044   6.987   4.015   7.678 -0.2432  0.2080 -0.1501
   65MOL   C15722045   7.108   4.069   7.750 -0.3612  0.1563 -0.0781
   65MOL   C15822046   7.115   4.204   7.788  1.0834  0.5263  0.0461
   65MOL   C15922047   7.227   4.254   7.858 -0.1791  0.6335 -0.5642
   65MOL   C16022048   7.323   4.168   7.910  0.0979  0.1284  0.1340
   65MOL   C16122049   7.323   4.032   7.868  0.1611 -0.2234 -0.7069
   65MOL   C16222050   7.217   3.986   7.784  0.0445 -0.5681  0.0949
   65MOL   O16322051   6.919   4.124   7.613 -0.4696  0.5897  0.2879
   65MOL   H16422052   6.924   3.891   7.512 -0.6459 -0.3926  1.2999
   65MOL   H16522053   7.099   3.939   7.508  0.0005 -0.1439 -0.0394
   65MOL   H16622054   6.918   3.962   7.745 -0.2061  0.1956 -0.1219
   65MOL   H16722055   7.036   4.271   7.757  0.3833  0.9275  2.5712
   65MOL   H16822056   7.217   4.358   7.888 -1.7937  0.3286 -0.0096
   65MOL   H16922057   7.407   4.198   7.970 -0.1497 -1.8600  1.5095
   65MOL   H17022058   7.398   3.961   7.901  1.7098  1.0680 -1.3784
   65MOL   H17122059   7.221   3.882   7.755 -2.1839 -0.8045  0.5687
   65MOL   C17222060   6.805   4.165   7.685 -0.2379  0.4905 -0.0386
   65MOL   C17322061   6.676   4.079   7.672 -0.0201 -0.3881 -0.1383
   65MOL   C17422062   6.636   4.045   7.526 -0.3112  0.3156  0.0139
   65MOL   C17522063   6.629   4.142   7.427 -0.0977  0.3910 -1.2767
   65MOL   C17622064   6.571   4.124   7.299  0.3894  0.2416  0.7580
   65MOL   C17722065   6.517   4.001   7.267  0.0542 -0.0783 -0.4155
   65MOL   C17822066   6.522   3.896   7.361  0.8356 -0.6724  0.8602
   65MOL   C17922067   6.576   3.914   7.490 -0.3364 -0.1166  0.4354
   65MOL   O18022068   6.573   4.150   7.738  0.2734 -0.6567  0.1558
   65MOL   H18122069   6.833   4.175   7.790 -0.8288  0.9358  0.0820
   65MOL   H18222070   6.782   4.266   7.650 -0.9427 -0.0922 -1.3268
   65MOL   H18322071   6.692   3.995   7.740  0.2741  0.5650  0.9819
   65MOL   H18422072   6.681   4.237   7.437  2.6905 -1.0677 -1.2130
   65MOL   H18522073   6.570   4.197   7.220 -1.5188  2.0055  2.3463
   65MOL   H18622074   6.470   3.979   7.172 -0.7689 -1.9834  0.3895
   65MOL   H18722075   6.488   3.798   7.333  0.9058  0.0416 -1.9058
   65MOL   H18822076   6.565   3.837   7.566  1.8478  0.3154  1.2460
   65MOL   C18922077   6.470   4.061   7.787  0.0842 -0.6012  0.6164
   65MOL   C19022078   6.346   4.071   7.706 -0.3019  0.1436  0.2210
   65MOL   C19122079   6.303   4.214   7.683  0.2345  0.2284  0.1921
   65MOL   C19222080   6.324   4.282   7.560  0.3076  0.5002 -0.1790
   65MOL   C19322081   6.285   4.416   7.545  0.5232  0.3877  0.3205
   65MOL   C19422082   6.215   4.475   7.648 -0.1477 -0.5001  0.0157
   65MOL   C19522083   6.216   4.416   7.777 -0.1726 -0.5330  0.1094
   65MOL   C19622084   6.257   4.286   7.793  0.1331  0.0437 -0.2601
   65MOL   O19722085   6.235   3.993   7.763  0.0247 -0.3440 -0.4879
   65MOL   H19822086   6.500   3.957   7.797 -0.3173 -0.8252 -0.4809
   65MOL   H19922087   6.445   4.084   7.891  0.6342  2.7267  0.0704
   65MOL   H20022088   6.366   4.037   7.604 -1.2857  0.9751 -0.2557
   65MOL   H20122089   6.377   4.237   7.478 -0.0465  0.8982 -0.6247
   65MOL   H20222090   6.312   4.450   7.446 -1.4678  2.5143  0.4611
   65MOL   H20322091   6.189   4.579   7.637  1.0119 -0.1852  0.0955
   65MOL   H20422092   6.176   4.466   7.864  1.0961  0.1696  0.2904
   65MOL   H20522093   6.243   4.247   7.893  0.3561 -0.5533 -0.4591
   65MOL   C20622094   6.240   3.852   7.738 -0.5397 -0.0728 -0.4793
   65MOL   C20722095   6.129   3.772   7.816  0.1755  0.0784  0.3391
   65MOL   C20822096   6.126   3.821   7.956  0.0162  0.2211 -0.3704
   65MOL   C20922097   6.018   3.905   7.989 -0.7233 -0.5963  0.0568
   65MOL   C21022098   6.011   3.958   0.040  0.0603 -0.2056 -0.0139
   65MOL   C21122099   6.102   3.926   0.137  0.0550 -0.0999  0.3311
   65MOL   C21222100   6.208   3.834   0.108  0.5897  0.4795  0.0073
   65MOL   C21322101   6.227   3.788   8.051  0.4822  0.5244  0.4260
   65MOL   O21422102   6.175   3.641   7.807 -0.1284  0.2115 -0.1196
   65MOL   H21522103   6.223   3.835   7.632 -1.7849 -0.2916 -0.2580
   65MOL   H21622104   6.337   3.812   7.769 -1.0975 -1.0603  0.0062
   65MOL   H21722105   6.032   3.776   7.767 -0.3518  0.9386  1.4664
   65MOL   H21822106   5.939   3.942   7.925 -0.7387 -0.9705 -0.1376
   65MOL   H21922107   5.936   4.033   0.060  1.5299  0.8511  1.7050
   65MOL   H22022108   6.093   3.966   0.237  0.5937 -2.1333  1.2120
   65MOL   H22122109   6.281   3.813   0.185  0.3422 -0.5575 -0.0312
   65MOL   H22222110   6.306   3.728   8.010 -0.6094 -0.5067 -0.2100
   65MOL   C22322111   6.081   3.543   7.851 -0.2737  0.2557  0.3004
   65MOL   C22422112   6.142   3.404   7.884  0.1740 -0.0354 -0.1995
   65MOL   C22522113   6.275   3.424   7.965 -0.0387 -0.1002  0.1885
   65MOL   C22622114   6.408   3.401   7.924 -0.3294  0.0204 -0.2608
   65MOL   C22722115   6.517   3.442   8.007 -1.1994 -0.1716  0.1474
   65MOL   C22822116   6.499   3.493   0.058  0.3886 -0.0621  0.6713
   65MOL   C22922117   6.364   3.509   0.102 -0.3719 -0.5042  0.1294
   65MOL   C23022118   6.255   3.473   0.019  0.1878  0.2659 -0.5397
   65MOL   O23122119   6.040   3.329   7.960 -0.1317  0.6339  0.1063
   65MOL   H23222120   6.027   3.582   7.938  0.5597 -0.4148  1.1262
   65MOL   H23322121   6.001   3.536   7.777  0.3406  1.1116 -0.4491
   65MOL   H23422122   6.176   3.354   7.794 -1.8330 -0.3134 -0.8213
   65MOL   H23522123   6.435   3.366   7.825 -4.1356  0.8720 -1.6790
   65MOL   H23622124   6.620   3.431   7.978 -0.4636 -0.1478  2.6097
   65MOL   H23722125   6.567   3.540   0.127  0.2067 -1.7305  2.0200
   65MOL   H23822126   6.339   3.547   0.200  1.8347  0.6311  0.2856
   65MOL   H23922127   6.152   3.484   0.047 -0.1287 -0.3987 -1.4251
   65MOL   C24022128   6.055   3.185   7.926 -0.2057 -0.6607  0.4919
   65MOL   C24122129   5.968   3.162   7.800  0.0793  0.1138  0.1634
   65MOL   C24222130   6.008   3.027   7.745  0.1887 -0.0353  0.2163
   65MOL   C24322131   5.987   2.903   7.804 -0.3631  0.3452 -0.1560
   65MOL   C24422132   6.032   2.787   7.744 -0.5858  0.6180  0.2513
   65MOL   C24522133   6.100   2.793   7.620 -0.5012  0.1451  0.1823
   65MOL   C24622134   6.132   2.913   7.565  0.2119 -0.5230 -0.9056
   65MOL   C24722135   6.087   3.028   7.628 -0.1390 -0.3695  0.3589
   65MOL   O24822136   5.836   3.152   7.847  0.1708 -0.0677 -0.2597
   65MOL   H24922137   6.156   3.145   7.923 -0.7077 -2.1178  2.1151
   65MOL   H25022138   6.020   3.130   8.014 -1.0850 -0.6428  0.1607
   65MOL   H25122139   5.981   3.243   7.728 -0.4980 -0.8854 -1.0699
   65MOL   H25222140   5.924   2.892   7.891 -0.9522  1.0116 -0.4924
   65MOL   H25322141   6.007   2.689   7.781  0.9749 -0.9189 -2.5791
   65MOL   H25422142   6.130   2.702   7.569  0.5812 -0.0166  1.0807
   65MOL   H25522143   6.195   2.916   7.477  1.8515 -0.6862  0.2300
   65MOL   H25622144   6.113   3.121   7.579  0.4375 -1.4501 -1.4375
   65MOL   C25722145   5.744   3.233   7.771  0.1260 -0.3235 -0.1339
   65MOL   C25822146   5.604   3.205   7.838  0.4807  0.5156 -0.1239
   65MOL   C25922147   5.552   3.071   7.793  0.1984  0.5495  0.2505
   65MOL   C26022148   5.606   2.951   7.851 -0.1470  0.4484  0.6801
   65MOL   C26122149   5.585   2.824   7.794  0.0227  0.5625  0.2222
   65MOL   C26222150   5.486   2.810   7.694  0.4370 -0.2319 -0.1298
   65MOL   C26322151   5.419   2.922   7.646 -0.0659 -0.4976 -0.4079
   65MOL   C26422152   5.456   3.052   7.695  0.1120 -0.4649 -0.1324
   65MOL   O26522153   5.505   3.304   7.805  0.5936 -0.2567  0.9472
   65MOL   H26622154   5.738   3.205   7.666  0.0055 -1.6394  0.2047
   65MOL   H26722155   5.776   3.337   7.777  1.3510 -0.7727  1.5385
   65MOL   H26822156   5.635   3.197   7.942  0.3915  1.4887 -0.0151
   65MOL   H26922157   5.688   2.957   7.921  0.5862 -0.3049 -0.1013
   65MOL   H27022158   5.639   2.741   7.838  1.1320  2.2733  2.1711
   65MOL   H27122159   5.460   2.713   7.655  0.8669 -1.3268  2.2219
   65MOL   H27222160   5.357   2.907   7.559  0.1074 -2.2036 -0.2605
   65MOL   H27322161   5.404   3.135   7.651 -1.3467 -1.5002 -0.4260
   65MOL   C27422162   5.526   3.417   7.885 -0.8550  0.7134 -0.1630
   65MOL   C27522163   5.459   3.549   7.836 -0.3055 -0.3147  0.2141
   65MOL   C27622164   5.326   3.531   7.778 -0.0704  0.3696 -0.0834
   65MOL   C27722165   5.311   3.496   7.642 -0.1131 -0.7815 -0.4653
   65MOL   C27822166   5.185   3.466   7.593  1.2058 -0.5314 -0.4170
   65MOL   C27922167   5.061   3.481   7.670  0.1202 -0.1139 -0.4311
   65MOL   C28022168   5.079   3.522   7.805  0.5793 -0.0297  0.4211
   65MOL   C28122169   5.209   3.543   7.861  0.0116 -0.3752 -0.5573
   65MOL   O28222170   5.554   3.608   7.747 -0.2348 -0.2425  0.1981
   65MOL   H28322171   5.483   3.400   7.983 -0.3402 -1.1813 -0.2530
   65MOL   H28422172   5.630   3.443   7.904  0.4034 -1.9885 -2.8336
   65MOL   H28522173   5.456   3.609   7.926  0.6331 -0.3224  0.2570
   65MOL   H28622174   5.401   3.508   7.583 -1.3765  2.7730 -1.8203
   65MOL   H28722175   5.172   3.449   7.487 -0.5098 -2.3135  0.0393
   65MOL   H28822176   4.962   3.474   7.629 -0.4802  0.5999  0.8899
   65MOL   H28922177   4.993   3.553   7.862  0.3056 -1.0715  0.5818
   65MOL   H29022178   5.207   3.552   7.969 -0.3405  2.7170 -0.7673
   65MOL   C29122179   5.527   3.748   7.739 -0.6109 -0.3854 -0.4548
   65MOL   C29222180   5.647   3.828   7.787 -0.3259 -0.4733 -0.0996
   65MOL   C29322181   5.684   3.796   7.934  0.0719  0.1061  0.1610
   65MOL   C29422182   5.755   3.677   7.963 -0.1101 -0.1732 -0.5099
   65MOL   C29522183   5.786   3.652   0.014  0.2811  0.3087  0.0567
   65MOL   C29622184   5.748   3.739   0.123 -0.2047 -0.3665 -0.6075
   65MOL   C29722185   5.675   3.856   0.091 -0.2189  0.5107 -0.1689
   65MOL   C29822186   5.642   3.880   8.036 -0.6621  0.5333  0.3230
   65MOL   O29922187   5.762   3.804   7.707 -0.0348 -0.3185  0.7172
   65MOL   H30022188   5.434   3.779   7.787 -1.3049  2.3299 -3.3091
   65MOL   H30122189   5.509   3.772   7.634 -1.1871  0.5231 -0.1522
   65MOL   H30222190   5.620   3.933   7.798  0.9758  0.0053 -1.3606
   65MOL   H30322191   5.781   3.604   7.888 -0.6937 -0.7984 -0.1171
   65MOL   H30422192   5.839   3.562   0.042  0.4272 -0.0263 -1.2547
   65MOL   H30522193   5.761   3.714   0.227  1.4800  2.8253  0.0207
   65MOL   H30622194   5.634   3.919   0.169  0.5773  0.0627  0.6229
   65MOL   H30722195   5.595   3.970   8.000 -1.7577 -0.8237 -1.7544
   65MOL   C30822196   5.774   3.896   7.599  0.0821 -0.2816  0.3279
   65MOL   C30922197   5.859   4.021   7.650 -0.1713  0.4297  0.7059
   65MOL   C31022198   5.899   4.107   7.533  0.7196  0.4769  0.2766
   65MOL   C31122199   6.034   4.100   7.486  0.0364  0.0577  0.2061
   65MOL   C31222200   6.065   4.181   7.378  0.0535 -0.4544  0.3172
   65MOL   C31322201   5.983   4.276   7.318 -0.2028  0.7925  0.6339
   65MOL   C31422202   5.854   4.265   7.364  0.1149 -0.6955  0.1256
   65MOL   C31522203   5.811   4.189   7.469  0.4020  0.1657 -0.1646
   65MOL   O31622204   5.792   4.099   7.744 -0.3355 -0.2420  0.0018
   65MOL   H31722205   5.678   3.920   7.551 -0.0563 -2.7368 -0.7176
   65MOL   H31822206   5.830   3.859   7.513  2.2566 -1.0446  2.0490
   65MOL   H31922207   5.947   3.978   7.697 -0.5362 -1.8770 -0.6553
   65MOL   H32022208   6.110   4.042   7.536 -0.4317 -0.4149  0.3680
   65MOL   H32122209   6.167   4.185   7.343  1.0300  0.2443  3.0580
   65MOL   H32222210   6.018   4.339   7.237 -0.4015  0.1860  0.0710
   65MOL   H32322211   5.775   4.317   7.312  0.0827 -0.3723  0.4934
   65MOL   H32422212   5.709   4.193   7.503  0.1809 -0.9364 -0.6444
   65MOL   C32522213   5.872   4.195   7.804  0.4478 -0.6647  0.6459
   65MOL   C32622214   5.778   4.275   7.903 -0.4314 -0.0325  1.0719
   65MOL   C32722215   5.649   4.331   7.846  0.1110 -0.8261 -0.2935
   65MOL   C32822216   5.655   4.447   7.769 -0.4905  0.0548 -0.4507
   65MOL   C32922217   5.540   4.517   7.722 -0.4594  0.1630 -0.0056
   65MOL   C33022218   5.411   4.462   7.748 -0.0964  0.9955  0.4020
   65MOL   C33122219   5.406   4.347   7.831  0.4733  0.4247 -0.1782
   65MOL   C33222220   5.520   4.280   7.877 -0.5425  0.4709  0.1071
   65MOL   O33322221   5.760   4.188   8.009  0.4048  0.0633  0.0085
   65MOL   H33422222   5.924   4.266   7.739  1.9527  0.5637  3.1210
   65MOL   H33522223   5.961   4.149   7.846 -0.8525 -3.2482  0.6698
   65MOL   H33622224   5.836   4.361   7.936 -2.6821  2.2586 -0.6955
   65MOL   H33722225   5.755   4.487   7.754 -0.1426 -0.8663 -0.5965
   65MOL   H33822226   5.550   4.600   7.654 -1.4993 -0.7617 -1.3114
   65MOL   H33922227   5.324   4.514   7.711  0.6100  2.4408  0.7498
   65MOL   H34022228   5.310   4.307   7.858  0.3122  2.0754  1.8178
   65MOL   H34122229   5.509   4.190   7.935 -0.0134  0.1312 -0.3065
   65MOL   H34222230   5.758   4.097   7.982  0.3901 -0.0242  0.3000
   66MOL     C122231   3.577   1.926   7.911  0.0963 -0.4231 -0.1832
   66MOL     C222232   3.517   1.789   7.884  0.0407 -0.6549 -0.8429
   66MOL     C322233   3.405   1.759   7.984 -1.0102 -0.0451  0.4578
   66MOL     C422234   3.432   1.689   0.020 -0.1411  0.0952 -0.2314
   66MOL     C522235   3.326   1.656   0.110  0.5021 -0.2528  0.1078
   66MOL     C622236   3.191   1.689   0.081 -0.2586 -0.3405 -0.4847
   66MOL     C722237   3.172   1.764   8.043  0.4591 -0.2501  0.1442
   66MOL     C822238   3.275   1.808   7.959  0.0208  0.5510  0.1069
   66MOL     O922239   3.618   1.687   7.875 -0.0565 -0.1846 -0.1615
   66MOL    H1022240   3.497   1.995   7.935 -0.0702 -0.2732 -1.1360
   66MOL    H1122241   3.622   1.920   8.010  0.1655  0.7642 -0.1429
   66MOL    H1222242   3.464   1.805   7.790  2.1006  0.1689 -1.9018
   66MOL    H1322243   3.534   1.654   0.034 -0.2004  0.7703  2.0043
   66MOL    H1422244   3.354   1.598   0.196 -3.2826 -1.1396  0.8096
   66MOL    H1522245   3.113   1.645   0.141 -0.8452 -0.8262 -1.6067
   66MOL    H1622246   3.067   1.783   8.023  0.4846 -0.9608 -0.6908
   66MOL    H1722247   3.256   1.863   7.868 -0.3495  0.1295 -0.0758
   66MOL    H1822248   3.648   1.966   7.839 -0.5811  1.5507  0.2331
   66MOL    C1922249   3.580   1.559   7.829 -0.2274 -0.1278 -0.1558
   66MOL    C2022250   3.714   1.477   7.812 -0.2875  0.2610  0.1615
   66MOL    C2122251   3.711   1.381   7.693 -0.5713 -0.4925  0.3834
   66MOL    C2222252   3.819   1.380   7.605  0.5630 -0.4845  0.7175
   66MOL    C2322253   3.832   1.290   7.502 -0.0505 -0.6966  0.8064
   66MOL    C2422254   3.726   1.195   7.475 -0.3417 -0.5010  0.3078
   66MOL    C2522255   3.615   1.194   7.563 -0.1923 -1.0038  0.7341
   66MOL    C2622256   3.606   1.283   7.669  0.2918  0.1869  0.2636
   66MOL    O2722257   3.734   1.396   7.927 -0.1169 -0.3659 -0.4065
   66MOL    H2822258   3.512   1.511   7.900  3.0470 -3.1155  1.0704
   66MOL    H2922259   3.517   1.569   7.740  0.7940  1.6113 -0.7119
   66MOL    H3022260   3.800   1.544   7.801 -1.4512  1.5122 -1.6036
   66MOL    H3122261   3.894   1.454   7.626 -0.7424  1.3870 -1.1084
   66MOL    H3222262   3.908   1.307   7.427 -2.3629 -0.9003 -1.6631
   66MOL    H3322263   3.721   1.126   7.392 -1.6529  0.4073 -0.3998
   66MOL    H3422264   3.543   1.115   7.551 -0.0373 -1.0538  0.0898
   66MOL    H3522265   3.520   1.274   7.734  1.5966 -2.3185  1.7068
   66MOL    C3622266   3.797   1.464   8.033  0.5467  0.3541  0.7080
   66MOL    C3722267   3.956   1.440   8.016  0.0930  0.1377  0.0308
   66MOL    C3822268   4.024   1.448   0.073  0.4789 -0.4277 -0.4514
   66MOL    C3922269   4.004   1.566   0.150  0.5215 -0.2283 -0.5119
   66MOL    C4022270   4.034   1.566   0.287  0.5680 -0.0544 -0.8737
   66MOL    C4122271   4.104   1.464   0.341 -0.2428  0.3138 -0.4274
   66MOL    C4222272   4.132   1.344   0.264 -0.1591  0.4240 -0.4144
   66MOL    C4322273   4.096   1.343   0.129 -0.0526  0.3148 -1.0564
   66MOL    O4422274   4.014   1.528   7.930  0.0799 -0.3899 -0.2189
   66MOL    H4522275   3.773   1.570   8.043  0.1849  0.2792  0.6707
   66MOL    H4622276   3.761   1.424   0.048 -1.2940 -1.7490 -0.8144
   66MOL    H4722277   3.962   1.340   7.975  1.6316 -1.2740  3.4858
   66MOL    H4822278   3.959   1.657   0.112 -2.7699 -1.7391 -0.4218
   66MOL    H4922279   4.016   1.658   0.340  2.8512  0.7463 -1.4405
   66MOL    H5022280   4.132   1.480   0.444 -0.8474 -1.5872  0.0567
   66MOL    H5122281   4.182   1.259   0.308  1.5038  0.2811 -2.5137
   66MOL    H5222282   4.119   1.254   0.071 -0.1915  0.2915 -1.0766
   66MOL    C5322283   4.150   1.517   7.897  0.0707 -0.1224  0.1753
   66MOL    C5422284   4.211   1.643   7.832  0.8581  0.1579 -0.0599
   66MOL    C5522285   4.224   1.748   7.942 -0.2350  0.3520 -0.5315
   66MOL    C5622286   4.131   1.855   7.949 -0.2832  0.9751 -0.6227
   66MOL    C5722287   4.137   1.948   8.053  0.7334  0.4524 -0.5208
   66MOL    C5822288   4.250   1.945   0.060  0.0775  0.1784  0.4312
   66MOL    C5922289   4.347   1.844   0.048 -0.4550  0.0994  0.5610
   66MOL    C6022290   4.334   1.743   8.029  0.8318 -0.2744 -0.1433
   66MOL    O6122291   4.332   1.614   7.765 -0.5572  0.1213 -0.1061
   66MOL    H6222292   4.212   1.490   7.983 -2.3756 -1.5777  1.5177
   66MOL    H6322293   4.149   1.428   7.833  2.2402  0.6213 -0.9453
   66MOL    H6422294   4.139   1.679   7.758 -1.0851 -0.4324  1.4932
   66MOL    H6522295   4.052   1.865   7.876 -0.8292  1.8354  0.0883
   66MOL    H6622296   4.052   2.014   8.057  0.8021  0.4755  0.7768
   66MOL    H6722297   4.264   2.016   0.140  0.8814  1.1602 -0.5721
   66MOL    H6822298   4.429   1.834   0.118  0.3975 -1.4718 -0.6493
   66MOL    H6922299   4.414   1.673   8.014  1.6332  0.6992 -0.5227
   66MOL    C7022300   4.318   1.540   7.648 -0.0542  0.3151  0.1025
   66MOL    C7122301   4.447   1.563   7.562  0.1478 -0.2090  0.3133
   66MOL    C7222302   4.464   1.706   7.518  0.1863 -0.4903 -0.1003
   66MOL    C7322303   4.513   1.802   7.607 -0.3018  0.2783 -0.4429
   66MOL    C7422304   4.517   1.943   7.565 -0.2542  0.4938  0.1627
   66MOL    C7522305   4.473   1.987   7.443  0.2299 -0.2868  0.1471
   66MOL    C7622306   4.414   1.887   7.358  0.3636  0.2465 -0.3914
   66MOL    C7722307   4.409   1.750   7.395 -0.5495  0.1967 -0.7128
   66MOL    O7822308   4.446   1.472   7.456 -0.2519 -0.5775  0.2895
   66MOL    H7922309   4.299   1.437   7.678 -1.2264  0.6710  0.5998
   66MOL    H8022310   4.230   1.549   7.585  0.5988 -0.2935 -0.9139
   66MOL    H8122311   4.533   1.538   7.624  1.4342  1.6445 -0.6584
   66MOL    H8222312   4.549   1.771   7.704  0.5444 -3.1127 -1.8018
   66MOL    H8322313   4.564   2.013   7.632 -0.7076  1.3267 -0.3793
   66MOL    H8422314   4.481   2.092   7.420  2.5310 -0.3059  0.7748
   66MOL    H8522315   4.396   1.915   7.255  0.7752  0.8874 -0.2926
   66MOL    H8622316   4.366   1.678   7.327 -2.3415  1.0628 -0.5268
   66MOL    C8722317   4.564   1.464   7.383 -0.0548 -0.5212 -0.6532
   66MOL    C8822318   4.646   1.337   7.413  0.1606 -0.0236 -0.0094
   66MOL    C8922319   4.763   1.320   7.311  0.8437 -0.7069 -0.3332
   66MOL    C9022320   4.738   1.303   7.172 -0.7204  0.0176 -0.0889
   66MOL    C9122321   4.845   1.294   7.079 -0.2068 -1.1824  0.7020
   66MOL    C9222322   4.984   1.308   7.120  0.5462  0.6940 -0.2819
   66MOL    C9322323   5.002   1.326   7.259  0.1469  0.1949 -0.0378
   66MOL    C9422324   4.896   1.332   7.352  0.2051  0.1651 -0.4700
   66MOL    O9522325   4.556   1.235   7.421  0.2974 -0.7177  0.2849
   66MOL    H9622326   4.620   1.554   7.404 -0.2684  0.0950 -2.5781
   66MOL    H9722327   4.533   1.460   7.278  1.1876  0.8527 -1.0814
   66MOL    H9822328   4.679   1.346   7.516 -1.1960  0.5397  0.3769
   66MOL    H9922329   4.635   1.282   7.147 -1.4007  2.0947  0.8980
   66MOL   H10022330   4.823   1.275   6.975  1.4624 -2.8007  0.6108
   66MOL   H10122331   5.065   1.283   7.053  1.8733 -0.5144  1.7014
   66MOL   H10222332   5.104   1.332   7.296 -0.1974  1.9886  0.6898
   66MOL   H10322333   4.911   1.351   7.458 -0.8570 -1.6776  0.0192
   66MOL   C10422334   4.598   1.099   7.418  0.0060  0.4565 -0.1165
   66MOL   C10522335   4.474   1.016   7.469  0.2309  0.2049 -0.0626
   66MOL   C10622336   4.342   1.043   7.396 -0.5053 -0.5075  0.3208
   66MOL   C10722337   4.269   1.164   7.418 -0.1069  0.6578 -0.1269
   66MOL   C10822338   4.141   1.185   7.356  0.5674 -0.1224 -0.3723
   66MOL   C10922339   4.096   1.087   7.261  0.7071 -0.8714  0.3324
   66MOL   C11022340   4.167   0.970   7.237 -0.2318  0.0835  1.0043
   66MOL   C11122341   4.297   0.952   7.300  0.1203 -0.3450  0.3677
   66MOL   O11222342   4.522   0.887   7.448  0.0815 -0.0512 -0.8541
   66MOL   H11322343   4.612   1.075   7.312  1.2829  0.4741  0.0456
   66MOL   H11422344   4.688   1.081   7.477 -1.6473 -0.6531  2.1467
   66MOL   H11522345   4.467   1.042   7.575 -1.7759  2.6458 -0.7526
   66MOL   H11622346   4.306   1.241   7.483  0.4610 -0.6157  1.0924
   66MOL   H11722347   4.092   1.280   7.372 -1.3130 -0.8820 -1.5298
   66MOL   H11822348   4.002   1.106   7.212  0.2042 -1.1431  1.1698
   66MOL   H11922349   4.123   0.891   7.177 -0.5921 -1.2582  3.0073
   66MOL   H12022350   4.338   0.852   7.292  0.8685 -0.0484  0.4824
   66MOL   C12122351   4.454   0.779   7.513 -0.5056  0.3879 -0.5358
   66MOL   C12222352   4.555   0.727   7.614  0.4791 -0.2449 -0.3212
   66MOL   C12322353   4.679   0.681   7.543 -0.2533  0.1890  0.2629
   66MOL   C12422354   4.689   0.556   7.482 -0.0410  0.3193  0.0006
   66MOL   C12522355   4.801   0.521   7.403 -0.2320  0.5664 -1.0082
   66MOL   C12622356   4.917   0.590   7.423 -0.0752 -0.1249  0.0913
   66MOL   C12722357   4.916   0.716   7.493  0.0531  0.7475  0.5195
   66MOL   C12822358   4.792   0.766   7.549 -0.1414 -0.3743 -0.3065
   66MOL   O12922359   4.574   0.835   7.705  0.4310  0.2729  0.0832
   66MOL   H13022360   4.426   0.702   7.440 -0.6551 -0.3806  0.3154
   66MOL   H13122361   4.359   0.803   7.560  1.1470 -1.2871  3.9023
   66MOL   H13222362   4.510   0.633   7.646  0.8445 -0.7882 -1.3500
   66MOL   H13322363   4.603   0.491   7.475  0.1152  0.3128 -2.4959
   66MOL   H13422364   4.799   0.425   7.353 -1.3438 -1.1662  2.1937
   66MOL   H13522365   5.011   0.546   7.392 -0.2033 -1.3687  1.4438
   66MOL   H13622366   5.011   0.766   7.504  1.7021 -1.9869 -0.6664
   66MOL   H13722367   4.786   0.855   7.610  1.1160 -0.5805  0.1315
   66MOL   C13822368   4.608   0.800   7.832  0.9014  0.2648  0.1500
   66MOL   C13922369   4.485   0.771   7.915 -0.4918  0.3076  0.0500
   66MOL   C14022370   4.379   0.884   7.914 -0.5742 -0.2082 -0.0024
   66MOL   C14122371   4.400   0.998   7.993  0.8153  0.0420  0.0460
   66MOL   C14222372   4.323   1.112   7.978 -0.0336 -0.8726 -0.4006
   66MOL   C14322373   4.215   1.111   7.886 -0.2796 -0.1750  0.6527
   66MOL   C14422374   4.188   0.993   7.804  0.1261  0.3396 -0.5253
   66MOL   C14522375   4.274   0.880   7.824  0.2466  0.2419 -0.4291
   66MOL   O14622376   4.436   0.641   7.878  0.4440  0.2314 -0.2286
   66MOL   H14722377   4.661   0.889   7.868 -0.4486  0.4830  1.6559
   66MOL   H14822378   4.677   0.716   7.836 -0.9932 -1.3004  0.6947
   66MOL   H14922379   4.520   0.757   8.017  2.2794  0.6743 -0.8144
   66MOL   H15022380   4.487   1.008   8.056 -0.3910  2.8834  1.3198
   66MOL   H15122381   4.346   1.199   8.037  2.0796 -1.2855 -0.5953
   66MOL   H15222382   4.149   1.196   7.881 -0.8587 -0.5698  1.4256
   66MOL   H15322383   4.107   1.004   7.733 -1.5845  0.7587  1.4542
   66MOL   H15422384   4.252   0.792   7.766 -1.2706  0.7950 -0.7276
   66MOL   C15522385   4.357   0.573   7.974 -0.0518 -0.2743  0.7055
   66MOL   C15622386   4.241   0.491   7.911 -0.4875 -0.4531  0.0316
   66MOL   C15722387   4.287   0.364   7.852 -0.5225  0.4038  0.2472
   66MOL   C15822388   4.329   0.352   7.720  0.2011 -1.0928  0.4976
   66MOL   C15922389   4.360   0.225   7.661  0.3818  0.1565  0.1036
   66MOL   C16022390   4.354   0.113   7.746  0.0415 -0.2600 -0.0427
   66MOL   C16122391   4.346   0.124   7.885 -0.5777  1.2357 -0.1757
   66MOL   C16222392   4.301   0.249   7.931 -0.5233  0.3368  0.2714
   66MOL   O16322393   4.140   0.482   8.007 -0.5116 -1.2483 -0.6147
   66MOL   H16422394   4.314   0.644   8.045  1.0513  1.3171 -0.1880
   66MOL   H16522395   4.419   0.506   8.034  0.5536  2.0088  2.7485
   66MOL   H16622396   4.212   0.552   7.826 -0.1053  1.7766  1.4591
   66MOL   H16722397   4.328   0.435   7.651  0.0993 -0.3389  1.3996
   66MOL   H16822398   4.394   0.218   7.559  0.1763  2.1602 -0.1241
   66MOL   H16922399   4.366   0.011   7.712  2.4844 -0.5061  1.4040
   66MOL   H17022400   4.358   0.038   7.949 -0.3576  1.1704 -0.3038
   66MOL   H17122401   4.287   0.266   8.037  0.4008 -2.0499  0.8035
   66MOL   C17222402   4.006   0.494   7.961  0.5735  1.1052 -0.4519
   66MOL   C17322403   3.901   0.476   8.067  0.0646  0.6730  0.0462
   66MOL   C17422404   3.892   0.341   0.065  0.4777 -0.4130 -0.2131
   66MOL   C17522405   3.878   0.217   0.007  0.2436 -1.2341 -0.2393
   66MOL   C17622406   3.858   0.102   0.077 -0.7214  0.2589 -0.0462
   66MOL   C17722407   3.873   0.106   0.217 -0.3781 -0.2427 -1.0825
   66MOL   C17822408   3.892   0.231   0.285  0.7269  0.7632  0.3497
   66MOL   C17922409   3.900   0.347   0.205  0.5946 -0.4738  0.3423
   66MOL   O18022410   3.778   0.511   8.000  0.2676 -0.4763  0.0402
   66MOL   H18122411   3.991   0.594   7.922 -0.0117  2.0332  2.0617
   66MOL   H18222412   3.992   0.422   7.881  0.6198  1.3656 -0.6952
   66MOL   H18322413   3.927   0.557   0.055  0.1979  0.1709  0.5851
   66MOL   H18422414   3.862   0.215   7.980 -0.1456 -1.4250 -0.1781
   66MOL   H18522415   3.831   0.004   0.038  1.8405 -0.7638  0.6439
   66MOL   H18622416   3.857   0.020   0.280 -1.1394  0.3128 -0.5200
   66MOL   H18722417   3.882   0.245   0.392  2.3866 -0.6698  0.7144
   66MOL   H18822418   3.906   0.445   0.251  1.1336 -0.4144  0.1483
   66MOL   C18922419   3.658   0.532   0.008  0.6278 -0.0028 -0.7510
   66MOL   C19022420   3.653   0.667   0.079  0.3930  0.2314  0.7490
   66MOL   C19122421   3.663   0.792   8.057 -0.0114  0.1712  0.3900
   66MOL   C19222422   3.544   0.854   8.011 -0.1660  0.2141  1.0976
   66MOL   C19322423   3.561   0.977   7.942  0.3327 -0.8206 -0.4587
   66MOL   C19422424   3.685   1.030   7.904  0.5367 -0.6957 -0.6187
   66MOL   C19522425   3.801   0.962   7.939  0.4698  0.3774  0.8870
   66MOL   C19622426   3.788   0.847   8.019  0.2335 -0.4614  0.2021
   66MOL   O19722427   3.753   0.675   0.181  1.1603 -0.0947 -0.4398
   66MOL   H19822428   3.572   0.530   8.022  1.1332 -0.2867 -1.4140
   66MOL   H19922429   3.648   0.451   0.081  1.2192  0.8637  0.3056
   66MOL   H20022430   3.557   0.660   0.130  0.4722 -0.6794  0.7874
   66MOL   H20122431   3.450   0.805   8.033  0.4237 -0.7833  1.4600
   66MOL   H20222432   3.469   1.031   7.926  0.8922  0.0338 -0.8328
   66MOL   H20322433   3.695   1.122   7.849 -1.1414 -0.5900 -0.7879
   66MOL   H20422434   3.897   1.002   7.908  0.2385 -0.3409 -0.8203
   66MOL   H20522435   3.881   0.799   8.045  1.0165  0.1059 -1.5204
   66MOL   C20622436   3.725   0.785   0.271 -0.4606 -0.1523  0.2152
   66MOL   C20722437   3.836   0.807   0.376 -0.6187 -0.3422  0.7071
   66MOL   C20822438   3.968   0.803   0.309 -0.4044 -0.6928  0.1372
   66MOL   C20922439   4.007   0.910   0.219  0.1867  0.6255 -0.1265
   66MOL   C21022440   4.131   0.902   0.149 -0.5833  0.5318  0.2677
   66MOL   C21122441   4.225   0.796   0.177  0.0471 -0.4252 -0.2948
   66MOL   C21222442   4.180   0.689   0.263 -0.7924  0.4441  0.3215
   66MOL   C21322443   4.056   0.697   0.327  0.0170  0.7212  0.1996
   66MOL   O21422444   3.803   0.719   0.470  0.0593  0.1049 -0.4789
   66MOL   H21522445   3.716   0.879   0.217 -1.2434 -0.6738 -0.5997
   66MOL   H21622446   3.625   0.776   0.314 -0.5561  2.5015  0.6232
   66MOL   H21722447   3.824   0.908   0.417 -1.2791  0.5719 -1.6667
   66MOL   H21822448   3.947   0.999   0.205 -0.6423  0.2244  0.8104
   66MOL   H21922449   4.177   0.973   0.081  1.1018  0.1818  1.0145
   66MOL   H22022450   4.323   0.802   0.132 -0.0925  0.3642 -0.4922
   66MOL   H22122451   4.241   0.601   0.274 -1.1092  0.3748  1.5025
   66MOL   H22222452   4.025   0.613   0.388  0.0578  0.0136 -0.7435
   66MOL   C22322453   3.779   0.772   0.603 -0.3634 -0.1890 -0.2240
   66MOL   C22422454   3.914   0.811   0.671  0.2320 -0.0956  0.7633
   66MOL   C22522455   3.889   0.847   0.816  0.2696 -0.4897 -0.0255
   66MOL   C22622456   3.888   0.747   0.922 -0.6640 -0.0053  0.2194
   66MOL   C22722457   3.872   0.786   1.057 -0.6205  0.1141  0.1540
   66MOL   C22822458   3.866   0.919   1.092 -0.0782 -0.0299 -0.4186
   66MOL   C22922459   3.867   1.017   0.992 -0.6431 -0.9002  0.2803
   66MOL   C23022460   3.865   0.980   0.852  0.1959  0.5271 -0.1301
   66MOL   O23122461   4.006   0.699   0.668 -0.5129 -0.1350  0.8991
   66MOL   H23222462   3.716   0.860   0.600 -1.5311 -1.0543 -2.2843
   66MOL   H23322463   3.734   0.690   0.659  0.4869 -0.5952 -0.1207
   66MOL   H23422464   3.961   0.891   0.613 -3.2052  0.0699 -1.9920
   66MOL   H23522465   3.912   0.644   0.900  0.6266 -0.0672  1.8102
   66MOL   H23622466   3.882   0.713   1.136 -1.1940 -1.9507 -1.6139
   66MOL   H23722467   3.854   0.941   1.197 -0.2298  1.1503 -0.6754
   66MOL   H23822468   3.870   1.123   1.012  1.4271 -0.8079 -0.3795
   66MOL   H23922469   3.876   1.056   0.776  2.9559 -0.1306 -0.4417
   66MOL   C24022470   4.138   0.721   0.720  0.1433 -0.1552  0.3226
   66MOL   C24122471   4.238   0.609   0.676 -0.2151 -0.1552 -0.6263
   66MOL   C24222472   4.381   0.658   0.680 -0.4154  0.4096 -0.1622
   66MOL   C24322473   4.433   0.718   0.795 -0.8748  0.3209 -0.5505
   66MOL   C24422474   4.565   0.767   0.794  0.0123 -0.3970 -0.0934
   66MOL   C24522475   4.639   0.772   0.674 -0.3634 -0.0376  0.6872
   66MOL   C24622476   4.577   0.725   0.559 -0.0168 -0.2227 -0.1779
   66MOL   C24722477   4.454   0.657   0.560 -0.3211  0.5079  0.0036
   66MOL   O24822478   4.225   0.507   0.774  0.8271  0.1297  0.3234
   66MOL   H24922479   4.163   0.818   0.678  1.3847  0.2381  1.9034
   66MOL   H25022480   4.139   0.733   0.829 -0.3403 -1.4918  0.4898
   66MOL   H25122481   4.204   0.573   0.579 -0.4427 -3.9282  0.7713
   66MOL   H25222482   4.379   0.698   0.886  0.2775  4.3770  1.1242
   66MOL   H25322483   4.616   0.799   0.883 -2.2317  2.0413  0.3972
   66MOL   H25422484   4.740   0.809   0.670  0.5491 -2.3429  1.1785
   66MOL   H25522485   4.638   0.722   0.470  3.2097 -1.5472  1.9547
   66MOL   H25622486   4.411   0.607   0.474  3.2463 -1.4601 -0.7412
   66MOL   C25722487   4.103   0.429   0.766  0.3805  1.0404  0.0426
   66MOL   C25822488   4.123   0.285   0.825 -0.5094 -0.5664  0.0154
   66MOL   C25922489   4.029   0.185   0.760  0.6686 -0.0374 -0.2294
   66MOL   C26022490   3.927   0.116   0.837 -0.3825 -0.0491  0.1102
   66MOL   C26122491   3.847   0.018   0.782 -0.5162  0.8059 -0.1983
   66MOL   C26222492   3.867   8.070   0.645  0.0612 -0.4781  0.0137
   66MOL   C26322493   3.960   0.058   0.569 -0.7605 -0.0793  0.3141
   66MOL   C26422494   4.047   0.154   0.625  0.2971 -0.4982  0.0948
   66MOL   O26522495   4.113   0.283   0.971 -0.0538  0.5951 -0.2021
   66MOL   H26622496   4.078   0.415   0.661  3.0485  0.9122 -0.6049
   66MOL   H26722497   4.022   0.484   0.813 -0.7494 -1.2070  0.7780
   66MOL   H26822498   4.218   0.247   0.788 -0.9579 -2.0467  0.3544
   66MOL   H26922499   3.924   0.126   0.944  3.4975 -0.4184  0.3244
   66MOL   H27022500   3.776   8.039   0.838 -0.3229  0.4278 -0.3538
   66MOL   H27122501   3.805   7.990   0.609  0.3017 -0.6173 -0.0953
   66MOL   H27222502   3.975   0.049   0.462 -0.6847  0.4037  0.2805
   66MOL   H27322503   4.125   0.199   0.566  0.6973 -1.4139 -0.0819
   66MOL   C27422504   4.227   0.328   1.048 -0.3607 -0.9616  0.1031
   66MOL   C27522505   4.319   0.206   1.076 -0.6069  0.1967  0.5566
   66MOL   C27622506   4.411   0.229   1.194  0.9656  0.7634  0.3838
   66MOL   C27722507   4.513   0.324   1.169 -0.8006  0.0295 -0.7969
   66MOL   C27822508   4.605   0.357   1.273  0.2749  0.6410 -0.6954
   66MOL   C27922509   4.586   0.294   1.399 -0.3438  0.2319  0.3225
   66MOL   C28022510   4.486   0.206   1.424 -0.4696  0.2145 -0.0756
   66MOL   C28122511   4.398   0.171   1.319 -0.0873  0.0242  0.3799
   66MOL   O28222512   4.396   0.177   0.954  0.4430  0.1215  0.3566
   66MOL   H28322513   4.289   0.410   1.012  1.2743 -1.6065  1.3552
   66MOL   H28422514   4.189   0.360   1.145 -0.0362  0.5761 -0.2790
   66MOL   H28522515   4.253   0.123   1.101 -1.8706  1.1342  0.3787
   66MOL   H28622516   4.527   0.356   1.067 -0.0172  0.8075 -0.4502
   66MOL   H28722517   4.689   0.421   1.248  1.2090 -0.8122 -1.3631
   66MOL   H28822518   4.646   0.323   1.484  0.6962  1.9248 -0.9501
   66MOL   H28922519   4.479   0.165   1.523  0.6305  0.6431  0.1864
   66MOL   H29022520   4.326   0.091   1.328  0.1695 -0.4306 -1.4629
   66MOL   C29122521   4.422   0.041   0.943  0.0926  0.2653 -0.2926
   66MOL   C29222522   4.297   8.041   0.909  0.7038  0.8079  0.2283
   66MOL   C29322523   4.323   7.948   0.788  0.4411 -0.4573  0.1641
   66MOL   C29422524   4.345   8.001   0.655  0.5105  0.7729  0.4398
   66MOL   C29522525   4.386   7.917   0.548  0.2267 -0.1114 -0.2253
   66MOL   C29622526   4.407   7.783   0.572  0.0585 -0.1578  0.2153
   66MOL   C29722527   4.384   7.731   0.702  0.7929 -0.3150  0.5865
   66MOL   C29822528   4.343   7.811   0.810  0.1266 -0.2449 -0.1905
   66MOL   O29922529   4.252   7.975   1.027  0.7545 -0.2325  0.2303
   66MOL   H30022530   4.461   0.009   1.040  1.2786  0.6494 -0.6340
   66MOL   H30122531   4.500   0.023   0.869  0.4101 -1.0633  0.3586
   66MOL   H30222532   4.213   0.023   0.878  0.6152 -0.8324 -3.0226
   66MOL   H30322533   4.333   0.027   0.638 -0.6124  0.5105 -0.5218
   66MOL   H30422534   4.400   7.965   0.452  3.0600 -1.9373 -0.8034
   66MOL   H30522535   4.437   7.725   0.486 -2.0806 -0.7985 -0.1257
   66MOL   H30622536   4.384   7.624   0.714 -0.9971 -0.3849  0.1887
   66MOL   H30722537   4.321   7.774   0.909  1.8965  1.8290  1.0147
   66MOL   C30822538   4.116   7.933   1.030  0.1580 -0.5994 -0.2140
   66MOL   C30922539   4.076   7.875   1.165 -0.9532  0.4071 -0.6250
   66MOL   C31022540   3.945   7.927   1.222  0.3356 -0.3198 -0.9887
   66MOL   C31122541   3.921   8.064   1.227  0.9752  0.3994 -0.4748
   66MOL   C31222542   3.796   0.031   1.280  0.6030 -0.7118 -0.1616
   66MOL   C31322543   3.708   8.023   1.340  0.6831  0.3892 -0.1228
   66MOL   C31422544   3.728   7.883   1.325 -0.7590 -0.1874  0.4409
   66MOL   C31522545   3.844   7.837   1.259 -0.1434  0.4991  0.3470
   66MOL   O31622546   4.082   7.732   1.170 -0.5266 -0.4316 -0.3569
   66MOL   H31722547   4.086   7.866   0.950 -1.9125  1.5177 -1.2657
   66MOL   H31822548   4.057   8.023   1.013 -0.1589 -0.5992  0.8823
   66MOL   H31922549   4.144   7.927   1.233 -1.7932 -0.5725  1.0150
   66MOL   H32022550   3.983   0.056   1.175 -0.5568  0.9997 -1.5356
   66MOL   H32122551   3.775   0.137   1.276  1.9678 -0.4974 -1.9141
   66MOL   H32222552   3.621   8.058   1.393 -1.3861 -2.2037 -1.6456
   66MOL   H32322553   3.646   7.818   1.355 -0.9401 -0.8913 -1.5601
   66MOL   H32422554   3.862   7.730   1.263  1.0360  0.5901 -1.8781
   66MOL   C32522555   4.207   7.682   1.220 -0.1022 -0.5180 -0.8028
   66MOL   C32622556   4.187   7.534   1.233  0.3736 -0.0880 -0.4459
   66MOL   C32722557   4.056   7.493   1.302 -0.6036  1.0998  0.2069
   66MOL   C32822558   4.013   7.555   1.425 -0.6806 -0.4282 -0.4978
   66MOL   C32922559   3.887   7.527   1.487 -0.3056  0.5228  0.0148
   66MOL   C33022560   3.816   7.420   1.432 -0.0135 -0.3288 -0.0451
   66MOL   C33122561   3.856   7.358   1.314  0.9515 -0.8117  0.2516
   66MOL   C33222562   3.972   7.396   1.245  0.7156 -0.4259 -0.0642
   66MOL   O33322563   4.192   7.487   1.102 -0.2144 -0.3972 -0.4562
   66MOL   H33422564   4.210   7.732   1.316  1.8597  0.4909 -1.3629
   66MOL   H33522565   4.296   7.707   1.163 -0.3105  0.6794 -0.6165
   66MOL   H33622566   4.272   7.489   1.285 -0.2973 -0.9323 -0.0811
   66MOL   H33722567   4.079   7.626   1.474 -2.2756  2.5820 -2.5455
   66MOL   H33822568   3.861   7.566   1.584  0.5609 -0.7859  0.7829
   66MOL   H33922569   3.729   7.385   1.486  0.2964  0.1583  0.7809
   66MOL   H34022570   3.797   7.279   1.270  2.9437 -1.1622 -1.8643
   66MOL   H34122571   3.994   7.339   1.156  1.0213 -0.6722  0.1700
   66MOL   H34222572   4.127   7.536   1.055  1.5883  2.7582  0.1892
   67MOL     C122573   4.277   5.126   5.354  0.1986 -0.3008 -0.3523
   67MOL     C222574   4.120   5.118   5.377 -0.5433 -0.1047  0.4080
   67MOL     C322575   4.053   5.079   5.254 -0.3434 -0.5871  0.0355
   67MOL     C422576   3.990   4.951   5.253  0.0609 -0.0996  0.5384
   67MOL     C522577   3.945   4.895   5.135  0.0730 -0.4000  0.3700
   67MOL     C622578   3.966   4.960   5.012 -0.0707 -0.4320 -0.3014
   67MOL     C722579   4.025   5.087   5.010  0.1296  0.2449 -0.2393
   67MOL     C822580   4.063   5.148   5.132 -0.0938 -0.0588 -0.1491
   67MOL     O922581   4.084   5.257   5.418  0.5063 -0.0782 -0.1549
   67MOL    H1022582   4.328   5.038   5.314 -0.0040  0.1817 -1.6820
   67MOL    H1122583   4.295   5.202   5.279  1.8624  0.1415  0.4620
   67MOL    H1222584   4.094   5.054   5.461 -2.5264 -0.1340 -0.2058
   67MOL    H1322585   3.990   4.885   5.338 -0.0238  1.2155  1.5840
   67MOL    H1422586   3.894   4.800   5.131 -0.6406  0.0297 -1.0185
   67MOL    H1522587   3.924   4.923   4.919 -0.3113  1.5975 -1.0278
   67MOL    H1622588   4.020   5.142   4.918 -1.7988 -0.1805 -0.4128
   67MOL    H1722589   4.108   5.246   5.130  0.4376 -0.2941  0.1707
   67MOL    H1822590   4.332   5.151   5.445  3.0276 -0.5454 -1.9181
   67MOL    C1922591   3.944   5.280   5.437 -0.4733  0.1477 -0.9107
   67MOL    C2022592   3.935   5.425   5.488  0.6546  0.5106 -0.8421
   67MOL    C2122593   3.797   5.446   5.550  1.0104  0.2656  0.3191
   67MOL    C2222594   3.787   5.485   5.682  0.3896 -0.0826  0.5635
   67MOL    C2322595   3.658   5.513   5.737  0.4724  0.1103 -0.2807
   67MOL    C2422596   3.543   5.501   5.661 -0.4708  0.4042 -0.0935
   67MOL    C2522597   3.552   5.449   5.532 -0.0002  0.1247  0.3729
   67MOL    C2622598   3.678   5.424   5.477  0.6335 -0.0500  0.2423
   67MOL    O2722599   3.944   5.515   5.379  0.3368  0.6289  0.1459
   67MOL    H2822600   3.902   5.259   5.339  1.9398 -1.4679 -1.6305
   67MOL    H2922601   3.905   5.215   5.515  0.3153  0.7046 -0.0448
   67MOL    H3022602   4.006   5.445   5.567 -1.4631 -2.6981  2.0404
   67MOL    H3122603   3.882   5.508   5.729  0.4319 -0.9298  0.8880
   67MOL    H3222604   3.652   5.543   5.840 -0.5227  2.3404 -0.9594
   67MOL    H3322605   3.445   5.516   5.703 -0.9849  2.6249 -1.9925
   67MOL    H3422606   3.466   5.433   5.469 -0.5118  0.8435  0.8712
   67MOL    H3522607   3.707   5.380   5.382  1.1957 -0.0161  0.3947
   67MOL    C3622608   4.074   5.561   5.339  0.1971 -0.1450  0.4534
   67MOL    C3722609   4.060   5.694   5.264  0.0063 -0.2534  0.1831
   67MOL    C3822610   4.199   5.717   5.199 -0.3263  0.0109  0.1034
   67MOL    C3922611   4.222   5.654   5.071  0.1455 -0.1363  0.1428
   67MOL    C4022612   4.352   5.683   5.008  0.4004  0.1020 -0.7041
   67MOL    C4122613   4.450   5.757   5.075 -0.4338  0.0751  0.0926
   67MOL    C4222614   4.419   5.828   5.188 -0.6136  0.3146 -0.0005
   67MOL    C4322615   4.295   5.802   5.258 -0.5045  0.4103  0.1309
   67MOL    O4422616   4.032   5.808   5.351 -0.3188  0.3165  0.4652
   67MOL    H4522617   4.153   5.570   5.414 -1.4146  1.0511  2.0651
   67MOL    H4622618   4.107   5.478   5.277 -1.5658  0.0914 -0.8222
   67MOL    H4722619   3.988   5.691   5.183 -2.8674 -3.6094  2.7275
   67MOL    H4822620   4.156   5.583   5.024 -0.0014 -0.1803  0.4107
   67MOL    H4922621   4.382   5.647   4.911  0.5570  0.1597 -0.6780
   67MOL    H5022622   4.542   5.781   5.023 -0.4383  0.8100  0.4290
   67MOL    H5122623   4.490   5.900   5.226 -0.7993  0.2801  0.4192
   67MOL    H5222624   4.262   5.871   5.334 -1.3293 -1.2510  1.2837
   67MOL    C5322625   3.893   5.810   5.402  0.1021 -0.3003 -0.2392
   67MOL    C5422626   3.883   5.924   5.504  0.0568  1.0652  0.1828
   67MOL    C5522627   3.915   6.053   5.443 -0.1978 -0.4731 -0.1643
   67MOL    C5622628   4.038   6.111   5.460  0.1510  0.1024 -0.4492
   67MOL    C5722629   4.072   6.233   5.400 -0.7551 -0.1766 -0.0473
   67MOL    C5822630   3.979   6.300   5.316 -0.2061  0.1647 -0.5003
   67MOL    C5922631   3.846   6.254   5.307  0.0846  0.2800  0.3592
   67MOL    C6022632   3.814   6.125   5.367 -0.1529  0.1144  0.3154
   67MOL    O6122633   3.750   5.922   5.540 -0.6145  0.0310 -0.1656
   67MOL    H6222634   3.815   5.820   5.327 -0.6751 -0.7074  0.5129
   67MOL    H6322635   3.866   5.716   5.450  0.8302  0.4227  1.6669
   67MOL    H6422636   3.944   5.912   5.594  0.8333 -0.7852 -0.5461
   67MOL    H6522637   4.110   6.071   5.530 -2.6796 -3.6376  0.4892
   67MOL    H6622638   4.173   6.268   5.419 -0.1978 -0.9037 -1.6158
   67MOL    H6722639   4.020   6.383   5.259  0.0463 -0.3093 -1.0108
   67MOL    H6822640   3.776   6.315   5.253 -2.2633 -2.0896  0.6153
   67MOL    H6922641   3.714   6.086   5.354 -0.3813  0.7084  0.2718
   67MOL    C7022642   3.716   5.842   5.649 -0.1710 -0.0228  0.6770
   67MOL    C7122643   3.584   5.889   5.719 -0.1679  0.3194  0.0916
   67MOL    C7222644   3.585   5.857   5.867  0.4520  0.5891  0.2972
   67MOL    C7322645   3.507   5.754   5.917  0.3619 -0.0515  0.0698
   67MOL    C7422646   3.501   5.720   6.053 -0.2818  0.1905 -0.7298
   67MOL    C7522647   3.581   5.792   6.147  0.0860  0.6241  0.2244
   67MOL    C7622648   3.662   5.894   6.096 -1.1706  0.0408 -0.0523
   67MOL    C7722649   3.676   5.920   5.956  0.1660 -0.0536  0.3606
   67MOL    O7822650   3.467   5.831   5.665  0.7945 -0.7159 -0.2467
   67MOL    H7922651   3.704   5.746   5.598 -0.4749  0.1583  0.4024
   67MOL    H8022652   3.789   5.853   5.729  0.1884  0.8651  0.2270
   67MOL    H8122653   3.584   5.997   5.706  0.0415  0.5528  1.8773
   67MOL    H8222654   3.441   5.699   5.851 -1.5461  1.1711  0.9284
   67MOL    H8322655   3.429   5.648   6.088  0.4302 -0.3817 -0.4378
   67MOL    H8422656   3.578   5.760   6.250 -1.3749 -0.9957 -0.2891
   67MOL    H8522657   3.729   5.949   6.161  1.0591 -0.0460 -2.2266
   67MOL    H8622658   3.736   6.000   5.916 -0.2405  0.5380  0.9175
   67MOL    C8722659   3.425   5.879   5.536  0.0299  0.3708  0.0449
   67MOL    C8822660   3.317   5.798   5.468  0.6835 -0.4378 -0.8673
   67MOL    C8922661   3.303   5.825   5.323 -0.4382  0.6661  0.8974
   67MOL    C9022662   3.264   5.951   5.279 -0.9854  0.1972 -0.1067
   67MOL    C9122663   3.264   5.981   5.144  0.2648 -1.1382  0.4985
   67MOL    C9222664   3.300   5.885   5.050 -0.2086  0.4739  0.1528
   67MOL    C9322665   3.330   5.756   5.096 -0.8758 -0.0192  0.5699
   67MOL    C9422666   3.335   5.729   5.230 -0.1453  0.4135 -0.4727
   67MOL    O9522667   3.203   5.832   5.546  0.1890 -0.0129 -0.1987
   67MOL    H9622668   3.517   5.883   5.478 -0.8704  0.6425 -1.4103
   67MOL    H9722669   3.394   5.983   5.547  1.2976  0.7815 -0.2223
   67MOL    H9822670   3.358   5.697   5.470  0.0932 -0.6839 -0.8442
   67MOL    H9922671   3.242   6.021   5.358 -1.0430 -0.5115  0.5110
   67MOL   H10022672   3.234   6.077   5.105  1.7452 -1.1948 -0.8448
   67MOL   H10122673   3.303   5.907   4.944  2.6245  0.2516  0.1508
   67MOL   H10222674   3.347   5.677   5.025  0.4213  0.5870  0.2001
   67MOL   H10322675   3.360   5.631   5.268 -0.5886  0.7435  0.6723
   67MOL   C10422676   3.083   5.766   5.501 -0.5098 -0.1165 -0.4500
   67MOL   C10522677   3.023   5.661   5.607  0.3189  0.2923  0.0331
   67MOL   C10622678   2.876   5.640   5.571 -0.1410 -0.5437 -1.0603
   67MOL   C10722679   2.836   5.595   5.442  0.4119  0.3869 -0.4365
   67MOL   C10822680   2.707   5.576   5.415  0.2725  0.3820  0.0470
   67MOL   C10922681   2.607   5.595   5.508 -0.1708 -0.6666  0.6923
   67MOL   C11022682   2.640   5.639   5.635 -0.5238 -0.2104 -0.2208
   67MOL   C11122683   2.776   5.666   5.667  1.0679  0.5572  0.5347
   67MOL   O11222684   3.092   5.537   5.583  0.4968 -0.2838 -0.0085
   67MOL   H11322685   3.007   5.844   5.509  0.5531  0.9836 -0.9831
   67MOL   H11422686   3.078   5.733   5.397  1.5324 -0.5441 -0.4315
   67MOL   H11522687   3.042   5.693   5.709 -2.2609  0.3122  0.5243
   67MOL   H11622688   2.916   5.588   5.370  0.3078 -0.1621 -0.5048
   67MOL   H11722689   2.668   5.547   5.319 -1.3831  0.8802  0.5440
   67MOL   H11822690   2.506   5.568   5.484 -0.7688 -0.2139  2.6640
   67MOL   H11922691   2.562   5.655   5.708 -0.5857  2.6650 -0.8461
   67MOL   H12022692   2.812   5.710   5.759  0.5038  1.3767  0.3667
   67MOL   C12122693   3.187   5.499   5.673  0.1727  0.1928  0.2062
   67MOL   C12222694   3.134   5.404   5.781  0.3255 -0.1908  0.3774
   67MOL   C12322695   3.261   5.357   5.855 -0.4982  0.5793 -0.0028
   67MOL   C12422696   3.309   5.231   5.831 -0.2172  0.7902  0.5416
   67MOL   C12522697   3.419   5.180   5.895  0.2515 -0.4247 -0.0070
   67MOL   C12622698   3.486   5.259   5.986  0.1862 -0.5101  0.4070
   67MOL   C12722699   3.437   5.385   6.020 -0.8419 -0.1817 -0.3054
   67MOL   C12822700   3.324   5.436   5.957  0.3474  0.1560  0.4151
   67MOL   O12922701   3.032   5.471   5.860 -0.1306 -0.1664 -0.7519
   67MOL   H13022702   3.242   5.580   5.720 -0.2208  0.2671  0.5484
   67MOL   H13122703   3.261   5.436   5.624 -1.1812  0.1349 -1.8411
   67MOL   H13222704   3.078   5.323   5.736 -0.5532  0.8356 -0.4146
   67MOL   H13322705   3.273   5.183   5.741  0.0437 -2.0404  1.8926
   67MOL   H13422706   3.463   5.085   5.870 -0.2123 -0.7993  0.6001
   67MOL   H13522707   3.565   5.205   6.035  0.8062 -0.8332 -0.9245
   67MOL   H13622708   3.481   5.437   6.104 -0.7091  2.2347 -1.8308
   67MOL   H13722709   3.285   5.529   5.995  1.2293  1.4949 -1.8843
   67MOL   C13822710   2.969   5.380   5.954  0.0840  0.3181  0.1664
   67MOL   C13922711   2.916   5.467   6.068 -0.3059 -0.1392 -0.5213
   67MOL   C14022712   3.029   5.545   6.134 -0.1610 -0.3135  0.0399
   67MOL   C14122713   3.064   5.673   6.081  0.1620  0.3088  0.8615
   67MOL   C14222714   3.162   5.748   6.141 -0.3548  0.7974 -1.1275
   67MOL   C14322715   3.226   5.701   6.253 -0.1277  0.2700 -1.5138
   67MOL   C14422716   3.197   5.576   6.312 -0.3289 -0.5045  0.1554
   67MOL   C14522717   3.097   5.497   6.247  0.1946  0.3135 -0.2582
   67MOL   O14622718   2.801   5.544   6.042 -0.0650  0.5021  0.3725
   67MOL   H14722719   3.050   5.315   5.988 -0.3482 -0.4828 -0.3264
   67MOL   H14822720   2.894   5.324   5.899  1.0779 -1.0507  0.1913
   67MOL   H14922721   2.874   5.404   6.146 -0.1188  2.0432  1.3944
   67MOL   H15022722   3.021   5.712   5.990  1.2946 -0.8365 -0.1907
   67MOL   H15122723   3.194   5.839   6.094  0.0985  0.1028 -2.1682
   67MOL   H15222724   3.293   5.758   6.316  0.5270 -1.0424 -1.0100
   67MOL   H15322725   3.256   5.537   6.394  0.5820 -1.5546 -0.9702
   67MOL   H15422726   3.083   5.397   6.285  1.9847  0.4986  0.9840
   67MOL   C15522727   2.685   5.474   6.015 -0.0727  0.0963  0.3257
   67MOL   C15622728   2.619   5.393   6.139 -0.8314 -0.1081 -0.6096
   67MOL   C15722729   2.472   5.371   6.125 -0.6792 -0.0075 -0.3219
   67MOL   C15822730   2.421   5.244   6.085 -0.0287  1.0327 -0.3283
   67MOL   C15922731   2.282   5.217   6.075 -0.1027  0.0283  0.3845
   67MOL   C16022732   2.195   5.321   6.103  0.1021 -0.4499 -0.3406
   67MOL   C16122733   2.238   5.449   6.140 -0.5464 -0.3325 -0.2436
   67MOL   C16222734   2.380   5.474   6.153 -0.1521 -0.5539  0.3957
   67MOL   O16322735   2.690   5.274   6.163 -0.2509  1.0471  0.2274
   67MOL   H16422736   2.686   5.420   5.920 -0.2159  0.8507 -0.1122
   67MOL   H16522737   2.619   5.556   5.988 -0.3266 -0.1024  0.3492
   67MOL   H16622738   2.642   5.448   6.230 -1.4651  0.3986 -0.7496
   67MOL   H16722739   2.492   5.164   6.070 -0.1230  0.7277  0.8327
   67MOL   H16822740   2.253   5.122   6.031  4.0379 -0.9068 -0.4969
   67MOL   H16922741   2.091   5.317   6.077  0.4765  0.8822 -2.1395
   67MOL   H17022742   2.171   5.531   6.160 -0.5760  0.1316 -2.1723
   67MOL   H17122743   2.420   5.570   6.181  0.9450 -1.4052  1.7940
   67MOL   C17222744   2.678   5.231   6.300 -0.3044  0.7313 -0.1994
   67MOL   C17322745   2.752   5.091   6.315  0.0807 -0.9018 -0.2581
   67MOL   C17422746   2.894   5.095   6.270 -0.7013  0.5117 -0.2352
   67MOL   C17522747   2.923   5.067   6.134  0.7790 -0.3857 -0.3967
   67MOL   C17622748   3.047   5.055   6.084 -0.1013  0.2166 -0.4087
   67MOL   C17722749   3.151   5.092   6.164 -0.1679  0.4282 -0.8059
   67MOL   C17822750   3.130   5.126   6.300  0.4708 -0.3750 -0.4185
   67MOL   C17922751   2.998   5.119   6.361  0.0900 -0.2756 -0.5791
   67MOL   O18022752   2.686   4.988   6.247 -0.0388 -0.4323 -0.5206
   67MOL   H18122753   2.712   5.300   6.377 -1.0707 -0.3388  1.1312
   67MOL   H18222754   2.573   5.202   6.309 -0.5568  1.7566  0.2675
   67MOL   H18322755   2.744   5.069   6.422  0.9253 -1.5876 -0.3345
   67MOL   H18422756   2.840   5.041   6.070  0.5212 -2.2689  0.6312
   67MOL   H18522757   3.069   5.023   5.983  0.5584 -2.6685  0.5838
   67MOL   H18622758   3.252   5.095   6.126  0.2122  0.4804  0.1999
   67MOL   H18722759   3.204   5.143   6.378 -0.6978 -1.0398  0.8432
   67MOL   H18822760   2.976   5.129   6.466 -1.8896  0.5607 -1.0518
   67MOL   C18922761   2.678   4.867   6.317  0.7084 -0.0887 -0.6905
   67MOL   C19022762   2.645   4.752   6.225 -0.3811 -0.0614  0.0007
   67MOL   C19122763   2.504   4.774   6.173 -0.0136  0.0841 -0.4051
   67MOL   C19222764   2.398   4.771   6.260 -0.3399 -0.9633  0.8687
   67MOL   C19322765   2.265   4.796   6.224  0.2129 -0.8066 -0.6488
   67MOL   C19422766   2.242   4.822   6.088  0.7011 -0.1884 -0.1163
   67MOL   C19522767   2.345   4.822   5.995  0.4183 -0.9504  0.0149
   67MOL   C19622768   2.480   4.791   6.036  0.5293 -0.0034  0.0818
   67MOL   O19722769   2.663   4.629   6.291 -0.9072  0.0315 -0.4920
   67MOL   H19822770   2.765   4.845   6.378 -1.8248 -2.7983  2.0529
   67MOL   H19922771   2.597   4.873   6.390 -1.8204  1.1385 -3.4663
   67MOL   H20022772   2.726   4.761   6.153  1.5723  1.7398  2.3311
   67MOL   H20122773   2.418   4.754   6.365  2.0247  0.2451  0.6259
   67MOL   H20222774   2.184   4.779   6.293 -0.6929  1.3933 -1.1014
   67MOL   H20322775   2.140   4.830   6.054  0.7386 -0.1714 -0.2258
   67MOL   H20422776   2.326   4.836   5.890 -1.6709  2.3886  0.7471
   67MOL   H20522777   2.560   4.792   5.965  1.7575 -2.5157  1.3883
   67MOL   C20622778   2.643   4.510   6.221  0.0414  0.0607 -0.7511
   67MOL   C20722779   2.723   4.487   6.086 -0.9197 -0.4137  0.0376
   67MOL   C20822780   2.660   4.358   6.022 -0.8033  0.1901 -0.1396
   67MOL   C20922781   2.574   4.359   5.917  0.1202 -0.8873 -0.2847
   67MOL   C21022782   2.523   4.242   5.859 -0.1789 -0.3665  0.8848
   67MOL   C21122783   2.559   4.118   5.914  0.0659  0.3714 -0.2220
   67MOL   C21222784   2.654   4.108   6.018 -0.2279  0.0159 -0.3667
   67MOL   C21322785   2.707   4.233   6.070 -0.2606  0.1565 -0.3365
   67MOL   O21422786   2.863   4.468   6.108  0.1273  0.2875 -0.1602
   67MOL   H21522787   2.644   4.426   6.290 -0.5275 -0.7106 -1.6729
   67MOL   H21622788   2.538   4.508   6.193  0.3653 -1.6015 -1.9157
   67MOL   H21722789   2.709   4.569   6.016  1.3699  1.3012  1.5053
   67MOL   H21822790   2.549   4.452   5.869 -2.3969 -1.9129 -1.0166
   67MOL   H21922791   2.445   4.250   5.785  2.4957  0.3558 -1.9375
   67MOL   H22022792   2.511   4.029   5.875  0.6084  0.1253 -0.3361
   67MOL   H22122793   2.689   4.011   6.049  1.3186  0.7018  0.1298
   67MOL   H22222794   2.787   4.229   6.143 -2.8861 -0.8453  2.5502
   67MOL   C22322795   2.952   4.564   6.054  0.3033 -0.2160  0.0462
   67MOL   C22422796   3.093   4.536   6.085 -0.1885 -0.1947  0.3506
   67MOL   C22522797   3.190   4.604   5.988 -0.3029  0.0916 -0.4794
   67MOL   C22622798   3.267   4.536   5.895 -0.7204  0.2228  0.3426
   67MOL   C22722799   3.349   4.607   5.799  0.6126  0.8392 -0.4281
   67MOL   C22822800   3.365   4.748   5.816  0.4235 -0.6132  0.1312
   67MOL   C22922801   3.301   4.812   5.923 -0.9287 -0.4414  0.8004
   67MOL   C23022802   3.206   4.741   5.998  0.0051  0.2706 -0.9166
   67MOL   O23122803   3.127   4.555   6.214 -0.0747 -0.2237  0.6755
   67MOL   H23222804   2.936   4.561   5.946 -2.3319  0.1447  0.3969
   67MOL   H23322805   2.921   4.665   6.081  0.2751 -0.5689  1.3444
   67MOL   H23422806   3.105   4.428   6.071 -1.1176 -0.1961 -0.4969
   67MOL   H23522807   3.256   4.428   5.896 -1.5387  0.2939 -0.3656
   67MOL   H23622808   3.399   4.557   5.718  0.8170  1.0795 -0.4535
   67MOL   H23722809   3.431   4.807   5.754 -1.2178  1.9034  0.6737
   67MOL   H23822810   3.322   4.917   5.933  0.3718 -0.6249  0.0729
   67MOL   H23922811   3.159   4.781   6.087  1.6477 -0.8548  0.4928
   67MOL   C24022812   3.246   4.481   6.252 -0.1536  0.2492 -0.4539
   67MOL   C24122813   3.270   4.499   6.408  0.3270 -0.1470 -0.4464
   67MOL   C24222814   3.197   4.398   6.495 -0.8444 -0.8780  0.1112
   67MOL   C24322815   3.265   4.340   6.610  0.0371 -1.1493  0.0129
   67MOL   C24422816   3.187   4.271   6.703 -0.4856 -0.3978 -0.0854
   67MOL   C24522817   3.049   4.242   6.675 -0.0799 -0.2200 -0.4548
   67MOL   C24622818   2.978   4.297   6.569 -0.2803 -0.0625 -0.0997
   67MOL   C24722819   3.057   4.379   6.483 -0.4702 -0.7743 -0.5318
   67MOL   O24822820   3.411   4.494   6.422  0.4496 -0.4377 -0.1656
   67MOL   H24922821   3.239   4.377   6.222  2.7688  0.1214 -0.8292
   67MOL   H25022822   3.336   4.519   6.204  0.9138 -0.2299  1.1282
   67MOL   H25122823   3.241   4.600   6.437 -0.1713  0.0673 -1.6899
   67MOL   H25222824   3.370   4.354   6.632  0.3095 -0.0969 -1.8610
   67MOL   H25322825   3.235   4.229   6.790  0.5239  0.3584 -0.2672
   67MOL   H25422826   3.000   4.174   6.743  0.6112 -0.4893 -0.2219
   67MOL   H25522827   2.873   4.281   6.549 -0.6267 -0.0013  1.6304
   67MOL   H25622828   3.017   4.421   6.392  1.3345 -0.7368 -1.3221
   67MOL   C25722829   3.464   4.603   6.500 -0.6118  0.3056  0.0852
   67MOL   C25822830   3.481   4.724   6.401  0.0040  0.5018 -0.1396
   67MOL   C25922831   3.580   4.685   6.295  0.4912  0.6621  0.7168
   67MOL   C26022832   3.552   4.682   6.153 -0.0736  0.3419 -0.7511
   67MOL   C26122833   3.651   4.653   6.056  0.5636 -0.4431 -0.4477
   67MOL   C26222834   3.782   4.626   6.097 -0.4761  0.4348  0.0853
   67MOL   C26322835   3.817   4.629   6.228 -0.3362 -0.9865  0.1076
   67MOL   C26422836   3.717   4.658   6.323  0.0441  0.9186  0.1088
   67MOL   O26522837   3.519   4.844   6.477  0.3702 -0.1865  0.0019
   67MOL   H26622838   3.558   4.570   6.545 -0.1476  1.3564 -0.1035
   67MOL   H26722839   3.404   4.624   6.588 -0.6720 -2.3922  0.7398
   67MOL   H26822840   3.387   4.728   6.345  1.3662 -0.2395 -2.5628
   67MOL   H26922841   3.454   4.706   6.114 -0.2995  0.8747  0.1123
   67MOL   H27022842   3.611   4.650   5.956 -2.5746 -0.8934  0.7630
   67MOL   H27122843   3.855   4.591   6.026 -0.3250  1.1471 -0.1202
   67MOL   H27222844   3.921   4.623   6.258 -0.9509 -1.9546  2.1226
   67MOL   H27322845   3.751   4.668   6.425  0.2360 -0.9783  0.2573
   67MOL   C27422846   3.499   4.969   6.403 -0.2516  0.0550  1.2603
   67MOL   C27522847   3.569   5.087   6.470  0.5030  0.2586 -0.1161
   67MOL   C27622848   3.713   5.058   6.494  0.2095 -0.5059  0.4791
   67MOL   C27722849   3.798   5.021   6.384  0.3761 -0.4658 -0.7989
   67MOL   C27822850   3.930   4.976   6.402  0.2607 -0.3904 -0.0945
   67MOL   C27922851   3.980   4.976   6.538 -0.9624  0.3559 -0.2443
   67MOL   C28022852   3.899   5.017   6.646 -0.1123  0.8363  0.3644
   67MOL   C28122853   3.771   5.071   6.622 -0.1842  0.4206  0.0156
   67MOL   O28222854   3.506   5.111   6.602  0.0999  0.5217 -0.6851
   67MOL   H28322855   3.554   4.950   6.311  3.0824 -4.4490  3.9411
   67MOL   H28422856   3.393   4.977   6.378 -0.5484  0.9988  2.7860
   67MOL   H28522857   3.574   5.177   6.409 -0.1078  0.9083  0.7776
   67MOL   H28622858   3.750   5.033   6.287  0.3370 -1.4670 -0.9029
   67MOL   H28722859   4.004   4.967   6.323  1.2186  1.6275  0.5548
   67MOL   H28822860   4.078   4.940   6.565 -0.6461  0.5597 -1.1040
   67MOL   H28922861   3.940   5.005   6.745  3.6073 -1.7412 -1.3820
   67MOL   H29022862   3.716   5.111   6.706  2.1288  2.9996  0.3696
   67MOL   C29122863   3.425   5.223   6.593  0.5701  0.1867 -0.6986
   67MOL   C29222864   3.340   5.245   6.722 -0.5353  0.0161 -0.1411
   67MOL   C29322865   3.249   5.371   6.724  0.3744 -0.1281 -0.0387
   67MOL   C29422866   3.264   5.470   6.826 -0.1656 -0.2779 -0.6573
   67MOL   C29522867   3.176   5.578   6.825  0.7199 -0.0376 -0.0334
   67MOL   C29622868   3.062   5.584   6.737  0.5917 -0.7944 -0.4848
   67MOL   C29722869   3.042   5.477   6.639  0.0646 -0.5594  0.3468
   67MOL   C29822870   3.137   5.374   6.627 -0.1071 -0.0043 -0.1680
   67MOL   O29922871   3.278   5.129   6.757  0.2760  0.2338  0.3769
   67MOL   H30022872   3.357   5.203   6.510 -0.8831 -0.0637  0.5249
   67MOL   H30122873   3.481   5.312   6.566  0.4982  0.6862  0.7156
   67MOL   H30222874   3.415   5.269   6.797  0.3521 -2.5469 -0.1417
   67MOL   H30322875   3.332   5.460   6.908  1.2106  4.0777 -1.1291
   67MOL   H30422876   3.184   5.655   6.900  1.4897  0.7549 -0.9310
   67MOL   H30522877   2.990   5.664   6.741  1.5257  0.0273  0.1167
   67MOL   H30622878   2.975   5.490   6.555  1.5010  2.1303 -0.4483
   67MOL   H30722879   3.130   5.296   6.554 -2.6346  0.2708 -0.2463
   67MOL   C30822880   3.240   5.113   6.894 -0.2333  0.5166 -0.7751
   67MOL   C30922881   3.362   5.076   6.970  0.4299 -0.5604  0.2243
   67MOL   C31022882   3.329   5.069   7.117  0.1608 -0.1546 -0.0659
   67MOL   C31122883   3.331   4.943   7.182 -0.4768 -0.3720  0.0419
   67MOL   C31222884   3.315   4.935   7.321  0.1952 -0.4217  0.4014
   67MOL   C31322885   3.294   5.045   7.401  0.0478 -0.3365 -0.0260
   67MOL   C31422886   3.281   5.171   7.336  0.1030 -0.1375 -0.3060
   67MOL   C31522887   3.297   5.181   7.196 -0.0712  0.1384  0.7444
   67MOL   O31622888   3.403   4.949   6.920  0.2293  0.7347  0.7553
   67MOL   H31722889   3.165   5.034   6.904 -0.4897  1.0515  1.8484
   67MOL   H31822890   3.202   5.204   6.940  0.7440  0.1674  0.7494
   67MOL   H31922891   3.451   5.138   6.960  1.3182 -1.7535  0.6089
   67MOL   H32022892   3.362   4.854   7.131 -0.2056 -0.9946  1.2743
   67MOL   H32122893   3.327   4.837   7.366  0.4505 -1.9071 -2.7553
   67MOL   H32222894   3.284   5.046   7.509  0.9573  1.3776  0.0539
   67MOL   H32322895   3.256   5.263   7.386  0.4198 -0.9575  1.3957
   67MOL   H32422896   3.298   5.278   7.149 -2.6327 -1.3143 -2.4396
   67MOL   C32522897   3.541   4.932   6.921  0.4619  0.3012 -0.3756
   67MOL   C32622898   3.578   4.784   6.913  0.5040  0.3107 -0.0859
   67MOL   C32722899   3.728   4.766   6.898  0.7540  0.3490  0.1743
   67MOL   C32822900   3.775   4.711   6.778  0.8018  0.1787 -0.2394
   67MOL   C32922901   3.916   4.701   6.752  0.0444 -0.6429 -0.0765
   67MOL   C33022902   4.007   4.748   6.847 -0.0015 -0.5890  0.1079
   67MOL   C33122903   3.961   4.809   6.961 -0.6544  0.4345  0.3150
   67MOL   C33222904   3.822   4.822   6.988 -0.3065 -0.5684 -0.4014
   67MOL   O33322905   3.528   4.720   7.027  0.0456  0.1809  0.0291
   67MOL   H33422906   3.590   4.976   7.009  0.2033 -0.1517 -0.0068
   67MOL   H33522907   3.585   4.998   6.846  1.5355  0.2945  0.2350
   67MOL   H33622908   3.530   4.739   6.827 -0.8207 -0.8817  1.2499
   67MOL   H33722909   3.709   4.690   6.695  0.4661 -1.0123  0.3203
   67MOL   H33822910   3.949   4.670   6.654 -0.3941 -0.0255 -0.4235
   67MOL   H33922911   4.115   4.742   6.846  0.0726  0.4920  1.0961
   67MOL   H34022912   4.028   4.855   7.032  0.8371  0.7040 -1.2443
   67MOL   H34122913   3.792   4.876   7.076  2.2496  0.7834 -0.3022
   67MOL   H34222914   3.448   4.759   7.058 -0.9344 -2.1782  0.5364
   68MOL     C122915   4.869   5.895   2.365 -0.0530 -0.1043 -0.3745
   68MOL     C222916   4.780   5.771   2.360 -0.4061 -0.2811  0.1639
   68MOL     C322917   4.880   5.649   2.372  0.2046 -0.2193 -0.1370
   68MOL     C422918   4.875   5.545   2.280  0.2100 -0.3053 -0.2716
   68MOL     C522919   4.962   5.439   2.281 -0.7600 -0.5309 -0.3054
   68MOL     C622920   5.065   5.433   2.379  0.6685  0.3309  0.5669
   68MOL     C722921   5.079   5.541   2.473 -0.2402  0.0982 -0.5473
   68MOL     C822922   4.989   5.649   2.464  0.4544 -0.0398  0.0542
   68MOL     O922923   4.716   5.774   2.239  0.0733  0.0003  0.2381
   68MOL    H1022924   4.900   5.913   2.468 -0.5973 -0.4925 -0.1382
   68MOL    H1122925   4.955   5.898   2.297 -0.1794 -2.7575 -0.6983
   68MOL    H1222926   4.703   5.787   2.436 -0.1112  1.8715  0.0190
   68MOL    H1322927   4.800   5.553   2.203  0.0327 -0.2252 -0.0906
   68MOL    H1422928   4.948   5.363   2.205 -0.4703 -0.0365 -0.8651
   68MOL    H1522929   5.142   5.358   2.372 -0.5013 -0.8244 -0.2322
   68MOL    H1622930   5.152   5.549   2.551 -0.5413  1.9273 -0.4359
   68MOL    H1722931   4.999   5.730   2.535  1.0010  1.0619 -1.2523
   68MOL    H1822932   4.812   5.985   2.340  4.0324  2.1726 -2.0333
   68MOL    C1922933   4.583   5.727   2.254  0.6364  0.2657 -0.0580
   68MOL    C2022934   4.474   5.835   2.303  0.7767 -0.0054 -0.1610
   68MOL    C2122935   4.452   5.956   2.207 -0.5899 -0.1653  0.2302
   68MOL    C2222936   4.322   5.990   2.172 -0.1768  0.5058  0.0201
   68MOL    C2322937   4.298   6.097   2.084  0.2514  0.5041  0.7408
   68MOL    C2422938   4.405   6.161   2.024 -0.5668 -0.6088 -0.3510
   68MOL    C2522939   4.538   6.130   2.060 -0.0287 -0.6062 -0.1417
   68MOL    C2622940   4.559   6.033   2.157 -1.2888 -0.0876 -0.2966
   68MOL    O2722941   4.474   5.890   2.442 -0.1209 -0.2275 -0.0421
   68MOL    H2822942   4.546   5.698   2.155 -0.1732 -0.3915  0.4273
   68MOL    H2922943   4.576   5.641   2.320  1.9791  3.2287  4.1524
   68MOL    H3022944   4.392   5.763   2.301  0.8241 -0.0311 -1.3105
   68MOL    H3122945   4.233   5.935   2.200 -0.1750  0.2817 -0.3982
   68MOL    H3222946   4.196   6.130   2.070  1.2089  3.0928 -0.3942
   68MOL    H3322947   4.386   6.241   1.954 -1.7749 -0.8549 -0.3100
   68MOL    H3422948   4.617   6.176   2.003  1.4632 -3.2627 -0.2703
   68MOL    H3522949   4.661   6.013   2.187 -1.2005  0.3171 -0.3249
   68MOL    C3622950   4.342   5.896   2.506  0.4118  0.0642 -0.1065
   68MOL    C3722951   4.342   5.939   2.652 -0.3034  0.0959  0.8573
   68MOL    C3822952   4.204   5.938   2.705  0.1680 -0.1862 -0.1824
   68MOL    C3922953   4.139   6.063   2.728 -0.4592 -0.2289 -0.7702
   68MOL    C4022954   4.006   6.061   2.772 -0.1077  0.0137  0.0605
   68MOL    C4122955   3.942   5.938   2.774  0.2430 -0.0236 -0.8746
   68MOL    C4222956   4.002   5.820   2.741  0.2171 -0.8762  0.7621
   68MOL    C4322957   4.137   5.812   2.717 -0.3080 -0.2785 -0.3995
   68MOL    O4422958   4.404   6.071   2.652  0.4389 -0.2546 -0.1914
   68MOL    H4522959   4.279   5.971   2.458 -1.8017 -2.0821 -0.6643
   68MOL    H4622960   4.302   5.796   2.490 -1.0871  0.4341  1.2347
   68MOL    H4722961   4.408   5.874   2.709 -0.0759  1.3750  2.0657
   68MOL    H4822962   4.178   6.163   2.718  2.0955 -1.2526 -1.2189
   68MOL    H4922963   3.958   6.155   2.793  0.2180  0.5307 -1.4968
   68MOL    H5022964   3.839   5.943   2.807  0.5530  0.4695  0.0298
   68MOL    H5122965   3.945   5.728   2.737 -1.3886  0.1022  0.3707
   68MOL    H5222966   4.190   5.723   2.687  1.0682  0.3846  0.0143
   68MOL    C5322967   4.468   6.080   2.781 -0.6670  0.2419 -0.3168
   68MOL    C5422968   4.511   6.223   2.823 -0.6352  0.1590 -0.1650
   68MOL    C5522969   4.400   6.323   2.838 -0.3404  0.7507  0.5476
   68MOL    C5622970   4.289   6.306   2.920 -0.3855 -0.5446 -0.4639
   68MOL    C5722971   4.194   6.412   2.923 -0.4268 -0.3583  0.2625
   68MOL    C5822972   4.206   6.522   2.839 -0.3668 -0.2899  0.1249
   68MOL    C5922973   4.308   6.534   2.742 -0.0637  0.0670  0.3910
   68MOL    C6022974   4.405   6.427   2.741  0.1418 -0.3818 -0.4404
   68MOL    O6122975   4.574   6.198   2.950  0.4522  0.1604  0.8783
   68MOL    H6222976   4.401   6.046   2.859  1.1554 -3.4342 -0.2250
   68MOL    H6322977   4.565   6.030   2.778  0.7462  2.7783  1.4436
   68MOL    H6422978   4.585   6.270   2.757 -1.6710  1.1023 -0.6917
   68MOL    H6522979   4.276   6.214   2.975 -1.3883 -0.6811 -0.9128
   68MOL    H6622980   4.103   6.396   2.981 -0.7884 -1.4099 -0.5822
   68MOL    H6722981   4.123   6.590   2.829  0.3585  0.8576  1.6530
   68MOL    H6822982   4.310   6.612   2.668  1.7518 -0.1473  0.1747
   68MOL    H6922983   4.473   6.427   2.657 -0.7284  0.1711 -1.1518
   68MOL    C7022984   4.637   6.313   3.004  0.4377  0.4669  0.5938
   68MOL    C7122985   4.691   6.280   3.151  0.3690  0.0676 -0.0348
   68MOL    C7222986   4.778   6.155   3.156 -0.1093 -1.1445  1.1952
   68MOL    C7322987   4.725   6.029   3.183  0.9171  0.1373  0.2180
   68MOL    C7422988   4.811   5.918   3.181  0.3632  0.3033 -0.6897
   68MOL    C7522989   4.945   5.921   3.150  0.5654  0.3019  0.1925
   68MOL    C7622990   4.994   6.052   3.134  0.3575  0.0868 -0.0187
   68MOL    C7722991   4.917   6.168   3.130  1.0786  0.3320  0.4141
   68MOL    O7822992   4.572   6.279   3.230 -0.5322 -0.5005 -0.2868
   68MOL    H7922993   4.717   6.352   2.941  0.3510  0.5964  0.5633
   68MOL    H8022994   4.565   6.393   3.024  0.9069  1.3712 -1.2102
   68MOL    H8122995   4.750   6.365   3.185  1.0918 -0.6291  0.4593
   68MOL    H8222996   4.620   6.013   3.203  0.7873  1.6202  0.8524
   68MOL    H8322997   4.758   5.826   3.199  0.8765  0.0199 -0.6266
   68MOL    H8422998   4.997   5.827   3.140 -2.6347 -1.4938 -0.0648
   68MOL    H8522999   5.100   6.062   3.114  0.1779  1.0506 -0.5503
   68MOL    H8623000   4.962   6.264   3.109  0.1837  1.0218  1.6589
   68MOL    C8723001   4.577   6.312   3.368  0.0840 -0.2627  0.1381
   68MOL    C8823002   4.440   6.312   3.436 -0.5400  0.2228  0.4436
   68MOL    C8923003   4.332   6.216   3.374 -0.5814 -0.2049  0.2729
   68MOL    C9023004   4.216   6.266   3.309  0.0582 -0.2216  0.2708
   68MOL    C9123005   4.124   6.178   3.244  0.1823  0.2391  0.7126
   68MOL    C9223006   4.144   6.039   3.243  0.4105  0.3055 -0.0384
   68MOL    C9323007   4.263   5.992   3.305  0.4654  0.0183  0.2642
   68MOL    C9423008   4.355   6.075   3.368 -0.1907 -0.3567  0.1596
   68MOL    O9523009   4.403   6.451   3.432 -0.4094 -0.3882  0.0990
   68MOL    H9623010   4.632   6.405   3.387 -2.2437  0.9837  1.1146
   68MOL    H9723011   4.640   6.233   3.409  1.2042 -0.2875 -1.6091
   68MOL    H9823012   4.460   6.278   3.537 -1.8964 -1.5570  0.1320
   68MOL    H9923013   4.198   6.373   3.307 -0.9006 -0.3849 -3.2024
   68MOL   H10023014   4.038   6.231   3.205  0.0947 -0.5771 -0.2248
   68MOL   H10123015   4.080   5.973   3.186  1.0124  0.0726 -0.4472
   68MOL   H10223016   4.294   5.889   3.301  1.3922  0.3252 -0.4090
   68MOL   H10323017   4.442   6.039   3.422  0.9473  0.4192 -1.1106
   68MOL   C10423018   4.359   6.505   3.555  0.2020  0.9722 -0.1571
   68MOL   C10523019   4.476   6.557   3.641 -0.1169  0.1688  0.7598
   68MOL   C10623020   4.428   6.627   3.766  1.0703  0.1353  0.4096
   68MOL   C10723021   4.464   6.591   3.900  1.1094  0.1420 -0.8094
   68MOL   C10823022   4.422   6.678   4.009 -0.1355 -0.1901  0.0995
   68MOL   C10923023   4.348   6.793   3.982 -0.7892 -0.1552  0.3387
   68MOL   C11023024   4.304   6.819   3.854 -0.8275  0.0799 -0.5152
   68MOL   C11123025   4.336   6.734   3.751  0.2302 -0.3553 -0.3643
   68MOL   O11223026   4.568   6.455   3.672 -0.3297 -0.1746  0.9907
   68MOL   H11323027   4.299   6.593   3.535 -1.3876 -0.2941 -1.0130
   68MOL   H11423028   4.300   6.444   3.624  3.0242  0.2704  1.7453
   68MOL   H11523029   4.519   6.636   3.580 -3.1096 -0.0755 -1.7853
   68MOL   H11623030   4.530   6.507   3.916 -1.2001 -1.4595  0.7848
   68MOL   H11723031   4.465   6.670   4.107  1.9367  0.5502 -0.7182
   68MOL   H11823032   4.332   6.865   4.061  3.3371  2.4213 -1.0165
   68MOL   H11923033   4.260   6.916   3.837  0.8324  0.9382 -0.0149
   68MOL   H12023034   4.305   6.756   3.650  0.2283 -0.0831 -0.3055
   68MOL   C12123035   4.702   6.497   3.676 -0.3034  0.4360 -0.4330
   68MOL   C12223036   4.793   6.390   3.738  0.3401  0.2125 -0.9889
   68MOL   C12323037   4.785   6.259   3.666  0.1079 -0.1126 -0.2080
   68MOL   C12423038   4.692   6.160   3.708  0.0827 -0.2624 -0.5948
   68MOL   C12523039   4.668   6.049   3.630 -0.0650 -0.1841  0.1294
   68MOL   C12623040   4.760   6.010   3.531 -1.0180 -0.2920 -0.2457
   68MOL   C12723041   4.865   6.099   3.494  0.2052  0.8687 -0.8385
   68MOL   C12823042   4.870   6.225   3.555 -0.5134  0.4751  0.0809
   68MOL   O12923043   4.926   6.442   3.754  0.3131  0.1949  0.0902
   68MOL   H13023044   4.707   6.576   3.751  0.5798 -2.0198  2.1913
   68MOL   H13123045   4.731   6.539   3.580 -0.0959 -0.2927 -0.6926
   68MOL   H13223046   4.748   6.383   3.837 -0.0920 -2.4242 -1.3389
   68MOL   H13323047   4.640   6.161   3.803  1.8390  0.7591  0.3820
   68MOL   H13423048   4.594   5.975   3.655 -1.2237  0.6049 -0.9553
   68MOL   H13523049   4.733   5.921   3.476 -2.0242  0.4167 -0.9020
   68MOL   H13623050   4.925   6.079   3.406 -0.2418  0.5970 -1.0811
   68MOL   H13723051   4.933   6.307   3.522 -1.6056  1.0390 -0.6670
   68MOL   C13823052   5.009   6.368   3.847  0.1592 -0.6636  0.1547
   68MOL   C13923053   5.156   6.394   3.820 -0.3439 -0.3223 -0.6448
   68MOL   C14023054   5.205   6.350   3.682  0.5316  0.6256 -0.1012
   68MOL   C14123055   5.202   6.211   3.651  0.1601 -0.2868  0.6685
   68MOL   C14223056   5.221   6.167   3.518  0.4967  0.6666  0.0749
   68MOL   C14323057   5.223   6.265   3.409  0.3431  0.3400  0.7390
   68MOL   C14423058   5.223   6.403   3.443  0.3376  0.0461 -0.0694
   68MOL   C14523059   5.206   6.445   3.577  0.9060 -0.4058 -0.1391
   68MOL   O14623060   5.189   6.530   3.859  0.1921  0.5627 -0.4713
   68MOL   H14723061   4.993   6.261   3.845  0.6538 -0.7212 -0.8229
   68MOL   H14823062   4.998   6.393   3.953  0.4567 -1.9467  0.4939
   68MOL   H14923063   5.217   6.332   3.886  0.4348  0.2862 -0.7939
   68MOL   H15023064   5.194   6.125   3.716  1.1830 -0.7802  0.1548
   68MOL   H15123065   5.216   6.060   3.503  0.9888  0.8800 -1.6935
   68MOL   H15223066   5.229   6.232   3.306  1.8571  2.4491  0.1276
   68MOL   H15323067   5.240   6.478   3.368  0.1445  0.0782 -0.0828
   68MOL   H15423068   5.173   6.545   3.603  2.5731  0.2986 -0.6447
   68MOL   C15523069   5.325   6.559   3.871 -0.4050  0.3193 -0.0068
   68MOL   C15623070   5.340   6.696   3.934  0.0987  0.5182 -0.2627
   68MOL   C15723071   5.265   6.804   3.865 -0.4774 -0.4767 -0.4071
   68MOL   C15823072   5.335   6.903   3.786 -0.2909 -0.2282  0.2039
   68MOL   C15923073   5.250   6.985   3.702 -0.4117  0.0208 -0.4183
   68MOL   C16023074   5.109   6.965   3.702  0.5005 -0.5684  0.0976
   68MOL   C16123075   5.044   6.874   3.784  0.1251 -0.6623  0.0952
   68MOL   C16223076   5.121   6.792   3.866 -0.5931  0.7269  0.2767
   68MOL   O16323077   5.293   6.677   4.066  0.1167  0.1429  0.2213
   68MOL   H16423078   5.387   6.558   3.781  1.3632  0.3037  1.1803
   68MOL   H16523079   5.366   6.487   3.943 -0.3048  1.8403  1.4849
   68MOL   H16623080   5.445   6.717   3.953  0.0856  1.1759 -0.8927
   68MOL   H16723081   5.442   6.903   3.769 -0.3265 -1.3059 -0.0598
   68MOL   H16823082   5.290   7.062   3.638 -0.3338 -1.1720 -1.8475
   68MOL   H16923083   5.056   7.042   3.648 -0.5908 -1.0154  0.5242
   68MOL   H17023084   4.937   6.859   3.788  0.3804 -2.5763  0.1312
   68MOL   H17123085   5.073   6.717   3.927  1.1241  0.3945  1.2604
   68MOL   C17223086   5.332   6.773   4.163 -0.1872  0.5883  0.3348
   68MOL   C17323087   5.290   6.723   4.297 -0.8219 -0.1817  0.0834
   68MOL   C17423088   5.144   6.695   4.291  0.9732 -0.2538 -0.0521
   68MOL   C17523089   5.100   6.569   4.243 -0.1987  0.2039 -1.2255
   68MOL   C17623090   4.959   6.550   4.231 -0.9166 -0.5933 -0.1684
   68MOL   C17723091   4.872   6.641   4.284  0.3934  0.1763  0.5177
   68MOL   C17823092   4.918   6.763   4.331 -0.7153  0.0316  0.5355
   68MOL   C17923093   5.055   6.793   4.332 -0.1603 -0.3515  0.5003
   68MOL   O18023094   5.318   6.817   4.408  0.0548  0.5515 -0.1142
   68MOL   H18123095   5.438   6.798   4.165  0.0243 -0.3158  0.5846
   68MOL   H18223096   5.286   6.871   4.145  0.4163  0.9512  0.7674
   68MOL   H18323097   5.330   6.624   4.316  0.1087  0.2714  0.5252
   68MOL   H18423098   5.159   6.486   4.206  2.2955 -0.0914  3.0813
   68MOL   H18523099   4.914   6.463   4.186  1.3303 -1.8724  0.0176
   68MOL   H18623100   4.764   6.638   4.270  0.3694  0.0176  0.7340
   68MOL   H18723101   4.846   6.836   4.363  0.1914  0.5666  1.4178
   68MOL   H18823102   5.081   6.888   4.377 -1.7532  0.7854 -0.9080
   68MOL   C18923103   5.306   6.755   4.536 -0.1959 -0.5725 -0.3348
   68MOL   C19023104   5.319   6.851   4.655 -0.5394 -0.8093  0.2122
   68MOL   C19123105   5.205   6.949   4.644  0.2321 -0.1242 -0.5902
   68MOL   C19223106   5.078   6.916   4.682  0.7795  0.3497  0.3964
   68MOL   C19323107   4.967   7.007   4.690  0.6697  0.1788 -0.2634
   68MOL   C19423108   4.996   7.131   4.639 -0.0455  0.2643 -0.2722
   68MOL   C19523109   5.121   7.161   4.579 -0.3906 -0.6320  0.1624
   68MOL   C19623110   5.227   7.069   4.579  0.3112  0.0513  0.1331
   68MOL   O19723111   5.447   6.917   4.628 -0.7376  0.3345 -0.2955
   68MOL   H19823112   5.210   6.705   4.545  0.4393 -1.4654  1.8539
   68MOL   H19923113   5.368   6.665   4.538 -0.4422 -0.7131  1.8175
   68MOL   H20023114   5.312   6.792   4.747  1.1719  1.7885  2.0934
   68MOL   H20123115   5.062   6.820   4.728  0.6388 -0.3065 -0.9863
   68MOL   H20223116   4.868   6.982   4.726  1.2757  0.6910  1.7686
   68MOL   H20323117   4.930   7.216   4.630  1.1245  1.2603  0.4668
   68MOL   H20423118   5.145   7.255   4.530 -1.5988 -1.0741 -1.3293
   68MOL   H20523119   5.324   7.097   4.542  1.1862 -1.8273  0.9094
   68MOL   C20623120   5.559   6.882   4.699 -0.5760 -0.0802  0.2331
   68MOL   C20723121   5.629   6.751   4.656  0.2245  0.4582  0.7424
   68MOL   C20823122   5.642   6.738   4.499 -0.2635 -0.0516  0.2192
   68MOL   C20923123   5.636   6.614   4.431 -0.1327 -0.5316  0.1692
   68MOL   C21023124   5.670   6.609   4.297 -0.3827 -0.1788 -0.3614
   68MOL   C21123125   5.696   6.730   4.223  0.6098  0.5511 -0.1470
   68MOL   C21223126   5.693   6.857   4.289  0.0076  0.0024  0.0773
   68MOL   C21323127   5.669   6.860   4.426  0.1906  0.2736 -0.1546
   68MOL   O21423128   5.570   6.633   4.699  0.8978 -0.6880 -0.4094
   68MOL   H21523129   5.623   6.970   4.694 -2.4980  1.3077 -0.5636
   68MOL   H21623130   5.535   6.868   4.804 -0.3586  0.0509  0.3009
   68MOL   H21723131   5.727   6.763   4.702  0.5276 -2.6683  1.0777
   68MOL   H21823132   5.617   6.523   4.485 -3.7752 -0.8953 -1.5551
   68MOL   H21923133   5.668   6.511   4.252 -0.6746  0.3036 -1.4288
   68MOL   H22023134   5.732   6.716   4.122 -0.6094 -0.9555 -0.4028
   68MOL   H22123135   5.724   6.939   4.225  1.8585  0.5156  1.6011
   68MOL   H22223136   5.694   6.950   4.480 -1.9624  0.6626  0.2419
   68MOL   C22323137   5.624   6.564   4.811 -0.2781  0.3193  0.4928
   68MOL   C22423138   5.593   6.414   4.802  0.6672 -0.1023 -0.1072
   68MOL   C22523139   5.450   6.379   4.853  0.1510 -0.7376  0.3292
   68MOL   C22623140   5.331   6.448   4.807 -0.1680  0.2169 -0.1187
   68MOL   C22723141   5.201   6.400   4.844  0.6385  0.2179 -0.0441
   68MOL   C22823142   5.189   6.293   4.928  0.5604 -0.0204 -0.5431
   68MOL   C22923143   5.303   6.233   4.983  0.3778 -1.1092 -0.3172
   68MOL   C23023144   5.434   6.277   4.946  0.7534  0.1882  0.9266
   68MOL   O23123145   5.605   6.372   4.665 -0.1489 -0.2750 -0.1415
   68MOL   H23223146   5.731   6.581   4.805 -0.1307 -0.5328  0.6429
   68MOL   H23323147   5.584   6.602   4.905  0.6339  1.5045  0.4232
   68MOL   H23423148   5.658   6.354   4.866 -2.4780 -0.8162  2.5802
   68MOL   H23523149   5.346   6.528   4.736  1.1912  1.2521  1.2926
   68MOL   H23623150   5.110   6.451   4.815  0.2180  0.1664  1.1503
   68MOL   H23723151   5.095   6.250   4.962  0.1740  1.2510  0.0004
   68MOL   H23823152   5.295   6.153   5.055 -1.1617 -0.6576  0.0200
   68MOL   H23923153   5.514   6.221   4.990 -2.0332 -1.8009  3.7108
   68MOL   C24023154   5.618   6.228   4.655 -0.5625  0.4871  0.0240
   68MOL   C24123155   5.756   6.164   4.677  0.1110  0.3845  0.4783
   68MOL   C24223156   5.745   6.010   4.680 -0.0886  0.0417  0.3703
   68MOL   C24323157   5.778   5.921   4.568  0.2131 -0.2775 -0.2288
   68MOL   C24423158   5.768   5.785   4.580 -0.7783  0.2679  0.3275
   68MOL   C24523159   5.713   5.733   4.698 -0.2410  0.3321  0.0214
   68MOL   C24623160   5.678   5.818   4.809  0.1112  0.3632 -0.2025
   68MOL   C24723161   5.691   5.955   4.800 -0.0777 -0.3582  0.4489
   68MOL   O24823162   5.836   6.203   4.562 -1.2866  0.4825 -0.2074
   68MOL   H24923163   5.548   6.180   4.724 -0.6607  1.5635  0.6955
   68MOL   H25023164   5.577   6.205   4.557 -0.3175  0.0477  0.0267
   68MOL   H25123165   5.819   6.201   4.758  0.7129  1.1063 -0.3101
   68MOL   H25223166   5.824   5.973   4.485 -0.7495 -0.7047 -1.0348
   68MOL   H25323167   5.813   5.724   4.503  1.3502  1.0533  0.9071
   68MOL   H25423168   5.694   5.629   4.720  0.3689  0.1479 -0.3047
   68MOL   H25523169   5.646   5.767   4.898  1.4941  1.4883  0.9646
   68MOL   H25623170   5.669   6.019   4.884  1.7648 -0.0407  0.7064
   68MOL   C25723171   5.902   6.332   4.574  0.0611  0.6726  0.4306
   68MOL   C25823172   6.052   6.303   4.605  0.2282  0.3582  0.4854
   68MOL   C25923173   6.104   6.188   4.523 -0.6454 -0.5605  0.5503
   68MOL   C26023174   6.125   6.061   4.592 -0.6043 -0.1219  0.1466
   68MOL   C26123175   6.180   5.953   4.522  0.2210 -0.2521  0.0577
   68MOL   C26223176   6.223   5.972   4.391 -0.1638  0.4515  1.1136
   68MOL   C26323177   6.199   6.091   4.321  0.1313 -0.0494 -0.2318
   68MOL   C26423178   6.132   6.196   4.381 -1.1327 -0.5537 -0.3099
   68MOL   O26523179   6.079   6.297   4.748  0.4013 -0.1589 -0.0512
   68MOL   H26623180   5.846   6.402   4.635 -0.7542 -0.0861  0.5718
   68MOL   H26723181   5.894   6.383   4.478 -0.0639 -1.4422 -0.7183
   68MOL   H26823182   6.114   6.387   4.573  2.5481 -1.5684 -0.1991
   68MOL   H26923183   6.113   6.057   4.699  2.1099  3.4009  0.6756
   68MOL   H27023184   6.190   5.857   4.570 -2.3187 -0.4722  0.2411
   68MOL   H27123185   6.261   5.884   4.341 -1.1145 -0.0379  1.2520
   68MOL   H27223186   6.210   6.091   4.214 -2.0832  0.9463 -0.4937
   68MOL   H27323187   6.109   6.284   4.322 -0.4817 -0.0392  0.1989
   68MOL   C27423188   6.076   6.422   4.817  0.5451  0.2057 -0.4073
   68MOL   C27523189   6.124   6.409   4.967 -0.1357  0.4692  0.6511
   68MOL   C27623190   6.014   6.349   5.050 -0.4796  0.6845  0.0158
   68MOL   C27723191   5.931   6.439   5.123  0.1516  0.1139  0.7232
   68MOL   C27823192   5.816   6.384   5.180 -0.8840  0.2683  0.1089
   68MOL   C27923193   5.786   6.246   5.171 -0.0829 -0.4098 -0.1968
   68MOL   C28023194   5.880   6.156   5.115  0.3733  0.2982 -0.0524
   68MOL   C28123195   5.996   6.208   5.059 -0.4878  0.5748 -0.1745
   68MOL   O28223196   6.163   6.534   5.016 -0.6633  0.1782 -0.0832
   68MOL   H28323197   6.129   6.497   4.757 -0.3075  2.2384  1.3096
   68MOL   H28423198   5.970   6.447   4.808  0.0755 -1.0356  1.5368
   68MOL   H28523199   6.202   6.333   4.968  1.1981  1.7386 -0.9949
   68MOL   H28623200   5.940   6.547   5.119 -0.6432  0.1343 -0.6124
   68MOL   H28723201   5.749   6.445   5.239  0.3659 -0.2710  2.1250
   68MOL   H28823202   5.700   6.220   5.231  1.0652 -1.3258  1.0805
   68MOL   H28923203   5.861   6.051   5.131 -1.0462  0.3328 -1.3215
   68MOL   H29023204   6.059   6.137   5.008  0.4812  1.0108  0.4106
   68MOL   C29123205   6.293   6.575   4.989 -0.0678 -0.2753  0.1724
   68MOL   C29223206   6.311   6.726   5.023 -1.0320 -0.8760  0.1449
   68MOL   C29323207   6.306   6.756   5.177  0.2698  0.3776  0.1686
   68MOL   C29423208   6.415   6.724   5.262  0.4431 -1.0587 -0.6896
   68MOL   C29523209   6.413   6.745   5.402 -0.0837  0.3381  0.0939
   68MOL   C29623210   6.300   6.807   5.460  0.0860 -0.1665  0.5815
   68MOL   C29723211   6.182   6.829   5.374 -0.0889  0.0285  0.0489
   68MOL   C29823212   6.185   6.806   5.237  0.1853  0.6495  0.5446
   68MOL   O29923213   6.435   6.772   4.963  0.4821  0.1598 -0.0973
   68MOL   H30023214   6.314   6.552   4.884  0.4873  3.1328 -0.5287
   68MOL   H30123215   6.350   6.514   5.058  0.1447 -0.6551 -0.3363
   68MOL   H30223216   6.222   6.773   4.984  0.2728 -0.4807 -2.4788
   68MOL   H30323217   6.504   6.687   5.212  0.6194 -1.3574 -0.1593
   68MOL   H30423218   6.493   6.699   5.458  0.3309  0.0893 -0.6883
   68MOL   H30523219   6.299   6.824   5.566  0.2446 -3.0694  1.0913
   68MOL   H30623220   6.095   6.881   5.411 -1.8072 -1.8822 -1.1915
   68MOL   H30723221   6.095   6.840   5.189 -0.6266  0.7147  2.0890
   68MOL   C30823222   6.443   6.911   4.944  0.0208  0.2384 -0.2911
   68MOL   C30923223   6.506   6.943   4.815 -0.5269  0.3865 -0.2414
   68MOL   C31023224   6.652   6.888   4.820 -0.3535 -0.5622  0.2910
   68MOL   C31123225   6.689   6.766   4.763 -0.5465 -0.6620 -0.6127
   68MOL   C31223226   6.825   6.738   4.747  1.0189  0.2784 -0.1481
   68MOL   C31323227   6.924   6.822   4.794 -0.3619  0.1702  0.3865
   68MOL   C31423228   6.890   6.940   4.866  0.0523 -0.7246 -0.3976
   68MOL   C31523229   6.754   6.971   4.872  0.2843 -0.6366 -0.9269
   68MOL   O31623230   6.430   6.896   4.708  0.3463  0.2047  0.4482
   68MOL   H31723231   6.493   6.966   5.024 -0.5282 -1.3811  1.2096
   68MOL   H31823232   6.351   6.968   4.931  0.5383  0.7275 -1.9505
   68MOL   H31923233   6.520   7.051   4.806  0.1881  0.2342 -1.1128
   68MOL   H32023234   6.601   6.707   4.739 -1.0784  0.5103 -1.6670
   68MOL   H32123235   6.857   6.647   4.700  1.0758  1.2696 -2.0631
   68MOL   H32223236   7.028   6.801   4.771  0.2108  2.2335  0.9604
   68MOL   H32323237   6.960   6.996   4.926 -0.8910 -1.6125  1.5807
   68MOL   H32423238   6.731   7.063   4.924  1.2556 -0.3591 -0.9867
   68MOL   C32523239   6.456   6.954   4.585  0.2968 -0.5709  0.6635
   68MOL   C32623240   6.401   6.858   4.478 -0.1094  0.1218  1.0980
   68MOL   C32723241   6.449   6.714   4.493  0.9385  0.3847  0.2043
   68MOL   C32823242   6.387   6.621   4.582 -0.5627 -0.3706  0.2107
   68MOL   C32923243   6.443   6.494   4.600  0.2663 -0.9802 -0.2113
   68MOL   C33023244   6.563   6.463   4.536  0.0303 -1.1003  0.4825
   68MOL   C33123245   6.627   6.558   4.443 -0.6219 -0.1184 -0.2298
   68MOL   C33223246   6.568   6.682   4.423  0.6363 -0.6712  0.0398
   68MOL   O33323247   6.260   6.881   4.469  0.0903 -0.0071 -0.4525
   68MOL   H33423248   6.557   6.985   4.556 -0.7883  1.1286 -1.4957
   68MOL   H33523249   6.404   7.050   4.588 -0.6148 -1.0151 -0.5054
   68MOL   H33623250   6.429   6.884   4.376  1.0336  2.8613  2.0651
   68MOL   H33723251   6.310   6.654   4.651  0.4552 -2.1328  2.2512
   68MOL   H33823252   6.403   6.433   4.680 -0.4416  1.6929  1.5257
   68MOL   H33923253   6.608   6.367   4.556  1.8810 -0.3356  0.0877
   68MOL   H34023254   6.714   6.533   4.385 -1.2418 -2.5938 -0.1696
   68MOL   H34123255   6.618   6.754   4.361 -0.2666 -0.1902 -0.1416
   68MOL   H34223256   6.227   6.828   4.398  3.0085 -1.2551 -0.9512
   69MOL     C123257   0.508   5.612   3.887  0.2008 -0.6822 -0.4961
   69MOL     C223258   0.564   5.486   3.814  0.1683 -0.1255 -0.1668
   69MOL     C323259   0.711   5.447   3.841 -0.2911 -0.6021  0.3791
   69MOL     C423260   0.816   5.509   3.772  0.7952 -0.3530 -0.0486
   69MOL     C523261   0.947   5.482   3.805 -0.0483  0.1932 -0.1214
   69MOL     C623262   0.978   5.398   3.918  0.2858 -0.3215  0.0607
   69MOL     C723263   0.874   5.341   3.994 -0.3880 -0.4065  0.7845
   69MOL     C823264   0.743   5.366   3.952  0.6029 -0.4401 -0.7710
   69MOL     O923265   0.536   5.515   3.681  0.8465  0.3602  0.4041
   69MOL    H1023266   0.514   5.603   3.995 -4.6196 -2.9884 -0.3110
   69MOL    H1123267   0.580   5.689   3.858  1.2619 -1.4992 -0.0671
   69MOL    H1223268   0.504   5.404   3.854  1.0882 -0.6550  0.1372
   69MOL    H1323269   0.792   5.582   3.696  2.6889 -0.6162 -0.9171
   69MOL    H1423270   1.031   5.514   3.746 -0.0010  1.6861  0.7318
   69MOL    H1523271   1.079   5.374   3.947  0.9894  3.1744  0.7257
   69MOL    H1623272   0.890   5.271   4.075 -2.0398  0.2030  1.6421
   69MOL    H1723273   0.669   5.321   4.016  1.1073  0.2230  0.2993
   69MOL    H1823274   0.411   5.636   3.843  0.1470  0.4268  0.2201
   69MOL    C1923275   0.532   5.398   3.601 -0.2424 -0.3939 -0.0959
   69MOL    C2023276   0.400   5.313   3.601 -0.7929  0.0847 -0.5881
   69MOL    C2123277   0.272   5.396   3.614  0.2047  0.2932  0.7812
   69MOL    C2223278   0.229   5.479   3.506 -0.2406 -0.1194  0.5026
   69MOL    C2323279   0.110   5.544   3.510  0.2594  0.2840 -0.5569
   69MOL    C2423280   0.037   5.541   3.630 -0.6086  0.1459  0.3819
   69MOL    C2523281   0.077   5.456   3.740 -0.8219 -0.4323  0.2170
   69MOL    C2623282   0.193   5.381   3.730 -0.0869  0.2274 -0.5925
   69MOL    O2723283   0.419   5.232   3.712  0.2677 -0.2022 -0.1932
   69MOL    H2823284   0.537   5.435   3.498 -0.8949  0.1161  0.0472
   69MOL    H2923285   0.618   5.332   3.610  0.1745  0.0268 -0.9086
   69MOL    H3023286   0.399   5.243   3.518  0.0942 -1.7721  0.9500
   69MOL    H3123287   0.286   5.496   3.416  1.5706  0.2136  1.6732
   69MOL    H3223288   0.084   5.610   3.429 -0.7217 -2.0192 -2.1695
   69MOL    H3323289   8.025   5.595   3.648 -0.3691  0.2219  1.4012
   69MOL    H3423290   0.014   5.442   3.826  0.3035  1.8228  1.4388
   69MOL    H3523291   0.218   5.322   3.818  0.3219  1.9671  0.4783
   69MOL    C3623292   0.374   5.090   3.701  0.3829  0.0953 -0.3852
   69MOL    C3723293   0.383   5.033   3.845 -0.6291 -0.0543 -0.0457
   69MOL    C3823294   0.402   4.874   3.838 -0.2577 -0.5266 -0.3209
   69MOL    C3923295   0.476   4.805   3.937  0.6996  0.3627 -0.3521
   69MOL    C4023296   0.487   4.664   3.936  0.1539  0.6313 -0.1535
   69MOL    C4123297   0.422   4.585   3.837  0.7549 -0.4021 -0.1411
   69MOL    C4223298   0.353   4.654   3.742  0.3693  0.4233  0.2657
   69MOL    C4323299   0.335   4.797   3.740 -0.1124 -0.4782  0.1003
   69MOL    O4423300   0.262   5.073   3.907  0.2332  0.4967 -0.0181
   69MOL    H4523301   0.273   5.076   3.663 -0.2087  1.6001  0.5662
   69MOL    H4623302   0.445   5.047   3.630 -0.1024 -2.3487  0.5889
   69MOL    H4723303   0.469   5.079   3.893 -0.2405  0.3611 -1.1302
   69MOL    H4823304   0.535   4.851   4.015  1.5375 -0.4246 -0.5193
   69MOL    H4923305   0.554   4.620   4.009  1.9155  2.2027 -0.7723
   69MOL    H5023306   0.422   4.477   3.830 -1.7628 -0.5160  1.0123
   69MOL    H5123307   0.295   4.594   3.673  3.4339 -0.7222 -1.4129
   69MOL    H5223308   0.263   4.843   3.674 -2.2590 -2.2856  1.1260
   69MOL    C5323309   0.253   5.061   4.048 -0.1165  0.0408  0.4627
   69MOL    C5423310   0.131   4.983   4.094  1.1586 -0.6803  0.2514
   69MOL    C5523311   0.119   4.988   4.241 -0.6463  0.3549 -0.1974
   69MOL    C5623312   8.079   5.030   4.301  0.8704  0.6455 -0.2818
   69MOL    C5723313   8.066   5.024   4.438 -0.3662  0.2762 -0.2234
   69MOL    C5823314   0.088   4.974   4.523 -0.0319  0.4832  0.0572
   69MOL    C5923315   0.214   4.942   4.467 -0.0231  0.3167 -0.8305
   69MOL    C6023316   0.231   4.961   4.324  0.5082 -0.3701  0.3165
   69MOL    O6123317   0.011   5.033   4.038 -0.4281  0.9074 -0.8269
   69MOL    H6223318   0.341   5.026   4.102 -1.0358  0.2629  2.1440
   69MOL    H6323319   0.243   5.166   4.076 -0.9577 -0.1740  0.9789
   69MOL    H6423320   0.143   4.880   4.063  1.0335 -0.2522 -1.2438
   69MOL    H6523321   7.995   5.070   4.248  0.4490 -2.2648 -1.9574
   69MOL    H6623322   7.978   5.057   4.491 -0.1587  1.5827 -0.6621
   69MOL    H6723323   0.062   4.956   4.627 -2.4077 -1.0945 -0.7625
   69MOL    H6823324   0.306   4.903   4.509 -0.4619  0.5022  0.3065
   69MOL    H6923325   0.325   4.931   4.280  1.0898 -0.0052  1.2759
   69MOL    C7023326   8.064   4.987   3.903  0.2180  0.4677 -0.5860
   69MOL    C7123327   7.994   5.088   3.809 -0.1877  0.2359  0.4506
   69MOL    C7223328   7.853   5.105   3.858 -0.0515 -0.3909  0.4151
   69MOL    C7323329   7.827   5.179   3.972  0.4042  0.3103  0.2314
   69MOL    C7423330   7.694   5.202   4.016 -0.0314 -0.6837 -0.3173
   69MOL    C7523331   7.588   5.151   3.942  0.0388 -0.0797  0.0650
   69MOL    C7623332   7.612   5.078   3.826  0.0561  1.0611 -0.0327
   69MOL    C7723333   7.747   5.050   3.786  0.4334  0.1134 -0.0966
   69MOL    O7823334   8.012   5.040   3.673  0.4952 -0.2615  0.3168
   69MOL    H7923335   0.074   4.936   3.869  0.8406  2.7534 -2.5211
   69MOL    H8023336   7.998   4.900   3.908 -1.3365  1.6328 -0.3883
   69MOL    H8123337   8.059   5.170   3.839 -0.9434  0.7972  0.5476
   69MOL    H8223338   7.905   5.230   4.027 -1.3474  2.4056  0.8462
   69MOL    H8323339   7.676   5.269   4.098 -1.1513 -0.6631 -0.5614
   69MOL    H8423340   7.489   5.175   3.977  0.2198  1.5028 -0.4495
   69MOL    H8523341   7.525   5.054   3.767 -0.6815  1.3975  0.8923
   69MOL    H8623342   7.760   4.986   3.700  0.7932  0.5200 -0.3458
   69MOL    C8723343   8.035   5.139   3.572 -0.0852 -0.6566 -0.0199
   69MOL    C8823344   8.050   5.069   3.427  0.3121 -0.2502 -0.2070
   69MOL    C8923345   0.097   4.985   3.416  0.6089 -0.1786 -0.2278
   69MOL    C9023346   0.224   5.044   3.392  0.4718  0.2617 -0.0604
   69MOL    C9123347   0.342   4.963   3.378  0.6243  0.0522 -0.5771
   69MOL    C9223348   0.329   4.825   3.383 -0.0632 -0.0480  0.4094
   69MOL    C9323349   0.205   4.762   3.410 -0.2669 -0.5398  0.1447
   69MOL    C9423350   0.091   4.845   3.423 -0.8717  1.1234 -0.2565
   69MOL    O9523351   8.040   5.172   3.324  0.7449 -0.0668 -0.2325
   69MOL    H9623352   0.041   5.200   3.600 -2.4477  3.1133 -0.6548
   69MOL    H9723353   7.949   5.205   3.568  0.8821  0.5593 -1.1921
   69MOL    H9823354   7.964   5.003   3.420 -0.1978  0.2999  0.7365
   69MOL    H9923355   0.239   5.151   3.398 -0.4861  0.5232 -1.7446
   69MOL   H10023356   0.439   5.010   3.374  1.1644 -1.0597 -0.5933
   69MOL   H10123357   0.412   4.758   3.370 -0.3632 -0.2432 -0.5699
   69MOL   H10223358   0.189   4.655   3.412  1.2716 -0.8304 -1.7035
   69MOL   H10323359   8.080   4.792   3.446 -0.2788 -0.2915 -1.1128
   69MOL   C10423360   7.942   5.145   3.222  0.2505 -0.2923 -0.4785
   69MOL   C10523361   7.950   5.240   3.105  0.6370 -0.1760  0.3938
   69MOL   C10623362   0.009   5.235   3.036  0.6037 -0.2931 -0.8790
   69MOL   C10723363   0.130   5.268   3.108 -0.1630 -0.7327 -0.3942
   69MOL   C10823364   0.256   5.272   3.042  0.0422  0.2376 -0.1039
   69MOL   C10923365   0.260   5.250   2.907 -0.2524 -0.4063  0.4067
   69MOL   C11023366   0.142   5.218   2.839  0.1447  0.3795  0.0071
   69MOL   C11123367   0.016   5.211   2.897  0.2865  0.0920  0.0222
   69MOL   O11223368   7.845   5.230   3.012  0.4281  0.3954  0.4212
   69MOL   H11323369   7.965   5.042   3.196 -1.1506 -1.0287  1.1268
   69MOL   H11423370   7.842   5.142   3.265 -0.0955 -1.4360 -1.3498
   69MOL   H11523371   7.955   5.343   3.139 -1.8478 -0.9012  3.1033
   69MOL   H11623372   0.119   5.284   3.214  0.0969 -0.5172 -0.3975
   69MOL   H11723373   0.352   5.282   3.090  0.1854 -2.6392  0.2929
   69MOL   H11823374   0.356   5.258   2.859 -0.4682  0.1419  0.0574
   69MOL   H11923375   0.139   5.217   2.731  1.9415  2.3812 -0.0873
   69MOL   H12023376   8.015   5.182   2.833  1.3607 -0.2148 -1.2273
   69MOL   C12123377   7.721   5.272   3.056 -0.7377 -1.3008  0.3133
   69MOL   C12223378   7.616   5.170   3.014 -0.3225 -0.0656  0.8823
   69MOL   C12323379   7.600   5.154   2.864  0.0075  0.5674 -0.1526
   69MOL   C12423380   7.496   5.227   2.801  0.9090 -0.6478  0.7150
   69MOL   C12523381   7.469   5.209   2.660 -0.2706  0.0176 -0.0565
   69MOL   C12623382   7.560   5.124   2.590 -0.1675  0.0673  0.2226
   69MOL   C12723383   7.665   5.049   2.651 -0.2781  0.4211  0.4333
   69MOL   C12823384   7.683   5.068   2.790 -0.2032 -0.3703  0.2082
   69MOL   O12923385   7.668   5.051   3.065  0.6254 -0.1667 -0.3135
   69MOL   H13023386   7.698   5.373   3.021 -1.8575 -1.7200 -0.1570
   69MOL   H13123387   7.711   5.291   3.163 -1.1267 -0.4240  0.1296
   69MOL   H13223388   7.521   5.198   3.060 -0.4731  0.4937  0.2312
   69MOL   H13323389   7.426   5.291   2.854 -1.2103 -0.4635 -2.1950
   69MOL   H13423390   7.396   5.259   2.599 -0.1410  1.8206  1.2283
   69MOL   H13523391   7.552   5.114   2.483 -0.3392 -1.2423  0.3471
   69MOL   H13623392   7.730   4.978   2.603  0.0891  0.7719  0.4099
   69MOL   H13723393   7.756   5.013   2.846  0.0025  1.3760  1.7073
   69MOL   C13823394   7.568   4.969   3.126 -0.0950 -0.2624  0.3463
   69MOL   C13923395   7.615   4.850   3.210  0.5063 -0.6506 -0.0339
   69MOL   C14023396   7.721   4.780   3.139  0.2705  0.1284  0.2707
   69MOL   C14123397   7.684   4.718   3.018  0.4649  0.1860  0.0280
   69MOL   C14223398   7.767   4.619   2.960  0.1526  0.3351 -0.1541
   69MOL   C14323399   7.897   4.599   3.018 -0.5673 -1.0364 -0.2122
   69MOL   C14423400   7.937   4.675   3.128 -0.2075  0.1047 -0.1496
   69MOL   C14523401   7.853   4.768   3.192 -0.7945  0.4404  0.6204
   69MOL   O14623402   7.636   4.902   3.339  0.2146 -0.1933  0.6715
   69MOL   H14723403   7.512   4.931   3.040  0.6580  1.2794 -0.8396
   69MOL   H14823404   7.500   5.031   3.184  0.8181  1.4148 -0.3535
   69MOL   H14923405   7.537   4.774   3.207  3.0084 -3.2510 -1.4469
   69MOL   H15023406   7.586   4.734   2.976  1.1248  1.7613 -0.9295
   69MOL   H15123407   7.735   4.565   2.872  2.7241 -0.1271 -0.8659
   69MOL   H15223408   7.969   4.536   2.968  0.4504  0.2521 -0.3933
   69MOL   H15323409   8.036   4.669   3.170 -0.1255 -0.2931 -0.3959
   69MOL   H15423410   7.892   4.831   3.271  3.9925 -1.7889  0.2226
   69MOL   C15523411   7.622   4.801   3.440 -0.2210  1.0212  1.0066
   69MOL   C15623412   7.483   4.739   3.480  0.2907 -0.7509  0.1872
   69MOL   C15723413   7.377   4.843   3.512  0.5255  0.0122 -0.5775
   69MOL   C15823414   7.411   4.977   3.534  0.1505 -0.0817  0.0985
   69MOL   C15923415   7.317   5.071   3.569 -0.8775 -0.0830  0.1741
   69MOL   C16023416   7.187   5.027   3.602 -0.1420  0.5453 -0.0986
   69MOL   C16123417   7.145   4.901   3.563 -0.4522  0.1960  0.3646
   69MOL   C16223418   7.243   4.807   3.521  0.1208 -0.5743 -0.3462
   69MOL   O16323419   7.441   4.645   3.373  0.3570  0.2607 -0.1941
   69MOL   H16423420   7.662   4.848   3.530  2.3414  0.7910  0.0138
   69MOL   H16523421   7.686   4.716   3.417  0.5882  1.3199  2.1105
   69MOL   H16623422   7.494   4.675   3.567  0.8736 -2.5426 -1.1561
   69MOL   H16723423   7.511   5.018   3.531  0.4858 -0.9224 -0.0934
   69MOL   H16823424   7.358   5.169   3.586  1.8385 -1.3020  0.8994
   69MOL   H16923425   7.119   5.101   3.641 -0.9652  1.0177 -2.2976
   69MOL   H17023426   7.039   4.883   3.561 -0.4062 -0.1861  1.1483
   69MOL   H17123427   7.222   4.703   3.500  0.0436 -1.0620  1.9497
   69MOL   C17223428   7.502   4.515   3.378  0.2337  0.1600 -0.7044
   69MOL   C17323429   7.457   4.421   3.493 -0.3089 -0.7424  0.4216
   69MOL   C17423430   7.309   4.412   3.513  0.1012  0.2500  0.1206
   69MOL   C17523431   7.226   4.344   3.422 -0.4469 -0.6088  0.6934
   69MOL   C17623432   7.088   4.345   3.441 -0.4142  1.0111 -0.6700
   69MOL   C17723433   7.033   4.396   3.557 -0.2738  0.0287 -0.3330
   69MOL   C17823434   7.114   4.469   3.654  0.1391  0.1798  0.3223
   69MOL   C17923435   7.253   4.471   3.634 -0.1512 -0.8134  0.2822
   69MOL   O18023436   7.524   4.452   3.614 -1.0090 -0.1940 -0.4884
   69MOL   H18123437   7.472   4.468   3.284  0.4787 -1.9840  0.2582
   69MOL   H18223438   7.610   4.516   3.392  0.0829  1.3084  0.4261
   69MOL   H18323439   7.489   4.323   3.457  0.9836  0.7687 -2.7641
   69MOL   H18423440   7.260   4.296   3.331 -0.8244  1.4892 -0.5899
   69MOL   H18523441   7.028   4.302   3.362 -0.3713 -1.2935  0.5086
   69MOL   H18623442   6.926   4.388   3.572  0.0048  1.6612  3.2005
   69MOL   H18723443   7.069   4.517   3.740 -0.6648 -1.2680  0.7186
   69MOL   H18823444   7.316   4.531   3.698  1.0182 -0.3758 -1.2449
   69MOL   C18923445   7.566   4.341   3.689  0.3358  0.0071  0.3864
   69MOL   C19023446   7.544   4.373   3.839  0.2602  0.3313 -0.2141
   69MOL   C19123447   7.604   4.510   3.897 -0.3540  0.0321  0.2472
   69MOL   C19223448   7.525   4.610   3.952  0.3692 -0.3593 -0.1046
   69MOL   C19323449   7.580   4.717   4.018 -0.0366 -0.2398  0.6825
   69MOL   C19423450   7.719   4.735   4.021  0.2999 -0.8914  0.3365
   69MOL   C19523451   7.803   4.638   3.962 -0.2983 -0.4783  0.7444
   69MOL   C19623452   7.750   4.524   3.898  0.7724 -0.6586  0.1027
   69MOL   O19723453   7.582   4.259   3.922  0.1264  0.0948 -0.1655
   69MOL   H19823454   7.499   4.255   3.688  1.5492 -0.9513 -1.8163
   69MOL   H19923455   7.667   4.307   3.666  0.4729  1.1041 -0.7246
   69MOL   H20023456   7.436   4.384   3.847  0.3452  0.0316  1.4765
   69MOL   H20123457   7.420   4.597   3.934  0.3179 -0.2817  0.1351
   69MOL   H20223458   7.516   4.798   4.048 -1.2023 -1.2173  0.8781
   69MOL   H20323459   7.768   4.819   4.068  0.7057 -0.1732 -1.3366
   69MOL   H20423460   7.911   4.631   3.963 -0.2014  0.7575 -0.7221
   69MOL   H20523461   7.822   4.456   3.854  0.1273 -0.2608 -1.5986
   69MOL   C20623462   7.525   4.251   4.039 -0.4541  0.0310 -0.1090
   69MOL   C20723463   7.615   4.199   4.156  0.1263 -0.1147  0.0918
   69MOL   C20823464   7.687   4.071   4.110 -0.2305  0.4126  0.3142
   69MOL   C20923465   7.802   4.080   4.022  0.3098 -0.4415 -0.6018
   69MOL   C21023466   7.874   3.968   3.992 -0.0863  0.0919  0.3402
   69MOL   C21123467   7.824   3.841   4.038  0.0404 -0.2546 -0.9591
   69MOL   C21223468   7.706   3.825   4.114 -0.5758 -0.3308  0.2181
   69MOL   C21323469   7.633   3.946   4.144  0.1349  0.4179 -0.2982
   69MOL   O21423470   7.538   4.169   4.270  0.0382  0.2100  0.1379
   69MOL   H21523471   7.467   4.337   4.070 -0.0485 -0.2691  1.5599
   69MOL   H21623472   7.444   4.178   4.034  1.2251 -1.8511 -0.8646
   69MOL   H21723473   7.688   4.279   4.167 -1.2022  1.0210  0.8027
   69MOL   H21823474   7.839   4.176   3.989  1.7201 -0.2859  1.3157
   69MOL   H21923475   7.956   3.973   3.922  1.2012 -1.0970  1.7348
   69MOL   H22023476   7.876   3.752   4.004 -0.2810 -0.6668 -0.3816
   69MOL   H22123477   7.667   3.727   4.137 -2.6473  0.1638 -1.0790
   69MOL   H22223478   7.543   3.936   4.205  1.1149  3.4780  1.8132
   69MOL   C22323479   7.624   4.178   4.385  0.2194 -0.3031  0.1283
   69MOL   C22423480   7.570   4.109   4.513  0.1882  0.5108  0.2073
   69MOL   C22523481   7.436   4.155   4.561 -0.4987  0.3746  0.2212
   69MOL   C22623482   7.417   4.202   4.691 -0.0957 -0.5046 -0.3109
   69MOL   C22723483   7.298   4.262   4.727  0.4269  1.1981 -0.7165
   69MOL   C22823484   7.189   4.271   4.636 -0.0401  0.2525  0.3069
   69MOL   C22923485   7.209   4.221   4.503 -0.1468  0.1907 -0.4806
   69MOL   C23023486   7.330   4.164   4.476 -0.7810  0.0062  0.2354
   69MOL   O23123487   7.578   3.968   4.480 -0.6455  0.8915 -0.3787
   69MOL   H23223488   7.716   4.124   4.364 -0.5285 -0.9419 -1.5499
   69MOL   H23323489   7.648   4.283   4.404  1.7428 -0.4875 -0.7669
   69MOL   H23423490   7.641   4.130   4.593  0.7337 -0.5317  0.0036
   69MOL   H23523491   7.496   4.193   4.764  1.2758  0.0469 -1.6850
   69MOL   H23623492   7.285   4.302   4.826 -0.1895 -0.6285 -0.0238
   69MOL   H23723493   7.087   4.283   4.668 -0.2364 -2.1457  0.5988
   69MOL   H23823494   7.130   4.218   4.431 -1.6186 -0.9212  1.1508
   69MOL   H23923495   7.342   4.128   4.375  1.6261  3.4626 -0.8179
   69MOL   C24023496   7.627   3.899   4.589  0.4916 -0.3867 -0.0828
   69MOL   C24123497   7.655   3.755   4.546  0.5537  0.5422  0.3739
   69MOL   C24223498   7.754   3.678   4.630 -0.1406 -0.3544 -0.0976
   69MOL   C24323499   7.712   3.590   4.733  0.0393 -1.0695  0.4751
   69MOL   C24423500   7.809   3.541   4.821 -0.3284  0.3639  0.0692
   69MOL   C24523501   7.949   3.562   4.804 -0.0301  0.0586 -0.0025
   69MOL   C24623502   7.987   3.637   4.692 -0.0871  0.0041 -0.0865
   69MOL   C24723503   7.888   3.688   4.604 -0.5157  0.3831 -0.1257
   69MOL   O24823504   7.524   3.693   4.524  0.4619 -0.5777 -0.3299
   69MOL   H24923505   7.726   3.936   4.617  0.3850  0.0330 -0.2609
   69MOL   H25023506   7.560   3.907   4.675 -0.4479 -0.8458 -0.7603
   69MOL   H25123507   7.696   3.753   4.445  1.7080  1.5443  0.8148
   69MOL   H25223508   7.605   3.580   4.749 -0.1375  0.3547  0.2866
   69MOL   H25323509   7.772   3.477   4.900 -1.5827  1.6724  0.5623
   69MOL   H25423510   8.021   3.525   4.875  1.1289  1.6067 -0.3604
   69MOL   H25523511   0.013   3.660   4.687 -0.2844  1.2991  1.4977
   69MOL   H25623512   7.927   3.735   4.515 -0.4468 -1.5396 -1.1486
   69MOL   C25723513   7.528   3.567   4.467 -0.0689 -0.3145 -0.6700
   69MOL   C25823514   7.386   3.524   4.423  0.0316  0.5927  0.2049
   69MOL   C25923515   7.320   3.629   4.327 -0.4881 -0.2850  0.7326
   69MOL   C26023516   7.285   3.761   4.372 -0.3926  0.4494  0.4696
   69MOL   C26123517   7.225   3.855   4.287 -0.1676 -0.1879 -0.1648
   69MOL   C26223518   7.208   3.820   4.150  0.1950 -0.1676 -0.4299
   69MOL   C26323519   7.257   3.699   4.104  0.1774 -0.0621 -0.2570
   69MOL   C26423520   7.308   3.602   4.189 -0.6726  0.3410 -0.4877
   69MOL   O26523521   7.303   3.507   4.544  0.2639  1.0144 -0.1333
   69MOL   H26623522   7.574   3.491   4.529  3.0059  1.4253 -0.7220
   69MOL   H26723523   7.590   3.578   4.377  1.1082  0.7032  0.2491
   69MOL   H26823524   7.409   3.431   4.372  0.5782  0.1182  1.2961
   69MOL   H26923525   7.293   3.782   4.478 -0.3695 -1.1895  0.8150
   69MOL   H27023526   7.197   3.952   4.325  0.0450  0.3783 -1.4001
   69MOL   H27123527   7.155   3.891   4.089 -2.0413 -0.2107  1.4109
   69MOL   H27223528   7.243   3.672   4.001 -1.3816 -1.3889  0.2720
   69MOL   H27323529   7.334   3.508   4.142  1.0635  0.4595  0.1890
   69MOL   C27423530   7.224   3.392   4.533 -0.6304  0.3415 -0.3949
   69MOL   C27523531   7.140   3.386   4.664 -0.7314 -0.4756 -0.0395
   69MOL   C27623532   7.224   3.338   4.783  0.1151  0.3192  0.3146
   69MOL   C27723533   7.285   3.214   4.782 -0.0402 -0.7351  0.4634
   69MOL   C27823534   7.361   3.173   4.891  0.4640 -0.1059  0.1064
   69MOL   C27923535   7.367   3.259   4.999  0.2833 -0.3087  0.2233
   69MOL   C28023536   7.300   3.388   5.001 -0.9290  0.1993 -0.3521
   69MOL   C28123537   7.231   3.423   4.892 -0.5573 -0.0561  0.1174
   69MOL   O28223538   7.027   3.307   4.639  0.2352 -0.0206  0.0114
   69MOL   H28323539   7.162   3.398   4.443 -0.8166  1.5787 -0.1849
   69MOL   H28423540   7.288   3.305   4.521  3.1727  2.5682  2.5393
   69MOL   H28523541   7.092   3.481   4.686 -2.0193 -1.1765  0.2072
   69MOL   H28623542   7.286   3.149   4.696 -1.0523  0.4952 -0.4859
   69MOL   H28723543   7.414   3.078   4.887  0.0551 -0.3256 -0.0865
   69MOL   H28823544   7.425   3.234   5.086 -1.0960 -1.1833  0.9067
   69MOL   H28923545   7.297   3.437   5.097 -0.7232  2.8192 -1.6512
   69MOL   H29023546   7.174   3.515   4.888  0.6770  0.7236  0.3192
   69MOL   C29123547   6.911   3.323   4.734  0.3347  0.3669  0.4215
   69MOL   C29223548   6.850   3.185   4.768  0.3694 -0.0348  0.0014
   69MOL   C29323549   6.753   3.194   4.883 -0.2283 -0.3366  0.5333
   69MOL   C29423550   6.808   3.227   5.008 -0.6176 -0.0494 -0.4186
   69MOL   C29523551   6.729   3.221   5.123  0.1747  1.3247 -0.7038
   69MOL   C29623552   6.596   3.172   5.112  0.2610 -0.1790  0.3148
   69MOL   C29723553   6.536   3.141   4.988  0.0315  0.3250  0.2867
   69MOL   C29823554   6.624   3.144   4.874  0.0781 -0.4916  0.3012
   69MOL   O29923555   6.787   3.113   4.657 -0.2056  0.1772  0.1499
   69MOL   H30023556   6.840   3.395   4.695  0.4645 -0.1261 -0.7345
   69MOL   H30123557   6.950   3.368   4.826  0.9768  0.4309  0.1196
   69MOL   H30223558   6.928   3.122   4.810 -0.0753 -0.7759 -0.2810
   69MOL   H30323559   6.909   3.267   5.014  0.7632 -3.4341  0.0820
   69MOL   H30423560   6.776   3.245   5.218 -2.2851 -2.6370  1.6825
   69MOL   H30523561   6.537   3.157   5.201  0.3667  0.4531  0.4974
   69MOL   H30623562   6.432   3.114   4.985  0.1224  0.0238 -0.3393
   69MOL   H30723563   6.588   3.113   4.777 -0.5703  2.0895 -0.3242
   69MOL   C30823564   6.869   3.066   4.549 -0.3345 -0.6880 -0.5015
   69MOL   C30923565   6.785   2.954   4.481 -0.3207  0.6596 -1.3065
   69MOL   C31023566   6.834   2.913   4.342  0.0287  0.5078 -0.6076
   69MOL   C31123567   6.768   2.944   4.221 -0.1886 -0.2101  0.2475
   69MOL   C31223568   6.813   2.894   4.097 -0.5912  0.5137  0.9882
   69MOL   C31323569   6.918   2.804   4.094  0.2203  0.8935  0.6990
   69MOL   C31423570   6.995   2.780   4.206 -0.5697 -0.2007  0.4227
   69MOL   C31523571   6.953   2.829   4.334 -0.4106  1.0609 -0.8000
   69MOL   O31623572   6.780   2.846   4.576 -0.4044  0.4122 -0.0123
   69MOL   H31723573   6.960   3.031   4.597  0.0870  0.8207 -0.1655
   69MOL   H31823574   6.903   3.137   4.473  0.5992  1.2056  1.6192
   69MOL   H31923575   6.683   2.990   4.471 -0.6687  0.0905  0.0709
   69MOL   H32023576   6.692   3.019   4.232  0.6708  0.4706  1.7919
   69MOL   H32123577   6.757   2.916   4.008  0.7696 -2.2856 -0.6114
   69MOL   H32223578   6.937   2.761   3.997 -1.7446 -1.0025  1.1339
   69MOL   H32323579   7.078   2.712   4.200 -0.0765  0.5002 -1.0076
   69MOL   H32423580   7.005   2.795   4.422 -0.3642  1.0686 -0.8244
   69MOL   C32523581   6.656   2.774   4.563 -0.5289 -0.4423 -0.2280
   69MOL   C32623582   6.678   2.639   4.633 -0.1894 -0.1625  0.7307
   69MOL   C32723583   6.561   2.545   4.631  0.3880 -0.0729  0.2968
   69MOL   C32823584   6.481   2.539   4.748 -0.1858 -0.0987 -0.1976
   69MOL   C32923585   6.377   2.443   4.757  0.0914  0.4889  0.7639
   69MOL   C33023586   6.349   2.355   4.650 -0.2274 -0.4800 -0.6164
   69MOL   C33123587   6.430   2.362   4.530  0.1722 -0.1475 -0.4063
   69MOL   C33223588   6.532   2.456   4.525 -0.2030  0.4054 -0.7199
   69MOL   O33323589   6.792   2.588   4.562  0.0006  0.0615  0.0578
   69MOL   H33423590   6.629   2.753   4.459  0.3367  2.4046 -1.0954
   69MOL   H33523591   6.572   2.838   4.589  0.6080  0.9878  0.0488
   69MOL   H33623592   6.713   2.660   4.734 -1.7872  0.9926  1.0695
   69MOL   H33723593   6.492   2.602   4.835 -1.8813 -1.8650  1.3242
   69MOL   H33823594   6.319   2.446   4.848  1.1663  0.8402  1.4398
   69MOL   H33923595   6.269   2.284   4.661 -0.6317  0.3202  1.9739
   69MOL   H34023596   6.407   2.300   4.444 -2.8566  0.4281 -0.0871
   69MOL   H34123597   6.596   2.459   4.438  2.0165  2.8633  0.8846
   69MOL   H34223598   6.843   2.659   4.526  0.7967 -1.8723 -2.8188
   70MOL     C123599   0.369   2.145   2.726 -0.5991 -0.6802  0.3897
   70MOL     C223600   0.451   2.073   2.623 -0.4424 -1.1006  0.2359
   70MOL     C323601   0.551   2.161   2.548 -1.2740 -0.9945 -0.5901
   70MOL     C423602   0.671   2.204   2.604 -0.2775 -0.3377  0.0187
   70MOL     C523603   0.757   2.284   2.528 -0.3780  0.4885  0.3605
   70MOL     C623604   0.724   2.329   2.398  0.2555  0.2975  0.4182
   70MOL     C723605   0.595   2.296   2.354 -0.5874 -0.1591 -0.1164
   70MOL     C823606   0.515   2.204   2.420 -0.3993 -0.2446 -0.7721
   70MOL     O923607   0.352   2.017   2.537  0.6204 -0.3130 -0.1199
   70MOL    H1023608   0.293   2.195   2.666  0.9698 -0.0630 -1.1366
   70MOL    H1123609   0.317   2.084   2.800  1.4671 -1.8861  0.9029
   70MOL    H1223610   0.511   1.989   2.658  1.4267 -0.0887 -0.4992
   70MOL    H1323611   0.701   2.160   2.699  0.5294 -0.2561 -0.1967
   70MOL    H1423612   0.850   2.296   2.582 -1.8481 -0.2771  3.1340
   70MOL    H1523613   0.786   2.400   2.346  1.0643 -1.2636 -0.8045
   70MOL    H1623614   0.559   2.337   2.260 -1.2205 -0.1341  0.1359
   70MOL    H1723615   0.428   2.169   2.366 -0.3451  0.3190 -1.2266
   70MOL    H1823616   0.428   2.224   2.771 -2.4140  1.0354 -0.1999
   70MOL    C1923617   0.406   1.896   2.477 -0.0439  0.1064  0.0016
   70MOL    C2023618   0.301   1.839   2.380 -0.1958 -0.5474 -0.4532
   70MOL    C2123619   0.262   1.943   2.275 -0.3558 -0.6954  0.1794
   70MOL    C2223620   0.332   1.950   2.152  0.8736  0.0395 -0.0200
   70MOL    C2323621   0.301   2.052   2.056 -0.3276 -0.3261 -0.2314
   70MOL    C2423622   0.218   2.154   2.087 -0.1633 -0.5143 -0.2064
   70MOL    C2523623   0.160   2.156   2.213 -0.3197 -0.2107  0.3403
   70MOL    C2623624   0.177   2.053   2.309  0.0100  0.0328 -0.2943
   70MOL    O2723625   0.190   1.799   2.461 -0.0932 -0.3753 -0.3066
   70MOL    H2823626   0.501   1.916   2.429  1.1392  2.6373  3.1797
   70MOL    H2923627   0.438   1.820   2.549 -1.3749  1.0440  1.6324
   70MOL    H3023628   0.342   1.759   2.317 -0.2456 -0.7391 -0.2411
   70MOL    H3123629   0.401   1.869   2.133  3.0227  1.3069  2.1138
   70MOL    H3223630   0.333   2.047   1.953  0.6589  1.3742 -0.0357
   70MOL    H3323631   0.212   2.233   2.013  0.9941 -1.5750 -1.4534
   70MOL    H3423632   0.088   2.236   2.228  1.0786  1.1141  0.0736
   70MOL    H3523633   0.129   2.069   2.404 -1.0795 -0.4518 -0.7476
   70MOL    C3623634   0.086   1.724   2.393 -0.0859 -0.1409 -0.2430
   70MOL    C3723635   8.043   1.712   2.483 -0.3469 -0.8064  0.6009
   70MOL    C3823636   7.999   1.847   2.526 -0.2840 -0.3734 -0.0548
   70MOL    C3923637   8.027   1.895   2.659 -0.3718 -0.0908  0.1079
   70MOL    C4023638   7.986   2.024   2.694 -0.0205  0.6464 -0.7707
   70MOL    C4123639   7.921   2.108   2.602  0.4226 -0.0573  0.5902
   70MOL    C4223640   7.889   2.057   2.470  0.1323 -0.0758  0.5106
   70MOL    C4323641   7.925   1.928   2.436  0.2068 -0.3217 -0.3062
   70MOL    O4423642   8.064   1.628   2.590  0.6051  0.0160 -0.1848
   70MOL    H4523643   0.065   1.778   2.300 -1.4052 -1.9173 -1.0091
   70MOL    H4623644   0.136   1.630   2.373  1.1449  0.0847  1.5843
   70MOL    H4723645   7.962   1.669   2.423 -2.4330  0.0527  2.7297
   70MOL    H4823646   0.010   1.839   2.727  1.2956  2.4772  0.7341
   70MOL    H4923647   8.017   2.056   2.793  0.5536  0.1795 -0.7946
   70MOL    H5023648   7.897   2.209   2.633  0.4276  0.1150  0.0269
   70MOL    H5123649   7.824   2.110   2.402  1.0572  0.3023 -0.0800
   70MOL    H5223650   7.900   1.897   2.335  2.3362 -1.5709 -0.4775
   70MOL    C5323651   7.941   1.587   2.654  0.0523  0.0163  0.0902
   70MOL    C5423652   7.964   1.479   2.762  0.0900 -0.3884  1.0205
   70MOL    C5523653   8.025   1.362   2.695 -0.0768  0.3230  0.4562
   70MOL    C5623654   0.087   1.357   2.671 -0.3784 -0.8005 -0.2368
   70MOL    C5723655   0.146   1.246   2.608  0.6810  0.8147  0.4638
   70MOL    C5823656   0.061   1.142   2.549 -0.6163 -0.1633  0.0009
   70MOL    C5923657   8.000   1.149   2.566 -0.0171 -0.2692  0.2637
   70MOL    C6023658   7.950   1.249   2.654  0.0282 -0.3674  0.1770
   70MOL    O6123659   8.041   1.517   2.871  0.2337 -0.1077 -0.5230
   70MOL    H6223660   7.889   1.675   2.692  0.5066  0.1131  0.5042
   70MOL    H6323661   7.868   1.553   2.581 -1.2378  0.7776  1.0143
   70MOL    H6423662   7.873   1.448   2.813  0.1948 -2.5699 -0.0166
   70MOL    H6523663   0.148   1.443   2.695 -3.2471  1.3328 -0.3630
   70MOL    H6623664   0.253   1.246   2.600  0.5993 -0.9534 -0.8305
   70MOL    H6723665   0.102   1.052   2.505 -1.1769 -0.9312  1.0278
   70MOL    H6823666   7.929   1.076   2.528 -0.5441 -0.0851  0.8808
   70MOL    H6923667   7.844   1.240   2.669 -0.0332 -0.5059 -0.3240
   70MOL    C7023668   7.996   1.623   2.956 -0.1530 -0.6286  0.1153
   70MOL    C7123669   0.022   1.683   3.049  0.3594 -0.4998 -0.6694
   70MOL    C7223670   8.049   1.806   3.124  0.2882 -0.5129  0.7304
   70MOL    C7323671   7.971   1.784   3.237  0.0002 -0.1684 -0.5826
   70MOL    C7423672   7.928   1.895   3.309  0.1563 -0.4208 -0.5864
   70MOL    C7523673   7.945   2.024   3.254 -0.1579 -0.2168 -1.3371
   70MOL    C7623674   8.026   2.050   3.143  0.1257 -0.0686 -0.1739
   70MOL    C7723675   0.001   1.937   3.080 -0.3425  0.3104 -1.0204
   70MOL    O7823676   0.141   1.726   2.981  0.2873 -0.2554 -0.4495
   70MOL    H7923677   7.966   1.710   2.898  2.0612  0.8092  1.0605
   70MOL    H8023678   7.909   1.596   3.016 -1.4603 -1.6524 -2.1750
   70MOL    H8123679   0.042   1.612   3.129 -0.4493 -0.3203 -0.3037
   70MOL    H8223680   7.951   1.683   3.268 -0.7932 -0.7238 -2.8017
   70MOL    H8323681   7.865   1.879   3.395 -0.8059 -0.7763 -1.3418
   70MOL    H8423682   7.901   2.111   3.301  1.7196 -0.3214  0.6944
   70MOL    H8523683   8.053   2.143   3.094 -0.5265 -0.7783 -1.8952
   70MOL    H8623684   0.082   1.942   3.008  1.3174 -0.9110  0.7117
   70MOL    C8723685   0.209   1.618   2.906  0.5884  0.1593 -0.4660
   70MOL    C8823686   0.354   1.652   2.869 -0.3615  0.4409 -0.4451
   70MOL    C8923687   0.417   1.571   2.758 -0.2245  0.6140  0.3445
   70MOL    C9023688   0.530   1.492   2.776 -0.4427  0.0937  0.6909
   70MOL    C9123689   0.571   1.410   2.672 -0.7402  0.4053  0.5570
   70MOL    C9223690   0.509   1.418   2.543  0.3672  0.1684  0.2165
   70MOL    C9323691   0.408   1.508   2.521 -0.4721  0.0404 -0.1966
   70MOL    C9423692   0.348   1.571   2.630 -0.2084  0.3849  0.2362
   70MOL    O9523693   0.422   1.638   2.996 -0.7193  0.0797  0.4675
   70MOL    H9623694   0.160   1.623   2.809  0.5391 -0.2826 -0.4646
   70MOL    H9723695   0.201   1.517   2.945 -0.1774  0.4147  0.0611
   70MOL    H9823696   0.357   1.751   2.824  1.9915 -0.6368 -2.7594
   70MOL    H9923697   0.583   1.488   2.870 -0.6193  1.4704  0.8578
   70MOL   H10023698   0.645   1.333   2.689 -1.2414 -0.4897 -1.1674
   70MOL   H10123699   0.556   1.366   2.461  0.8940  2.7509 -1.1990
   70MOL   H10223700   0.373   1.527   2.420 -3.3261 -0.2555  0.7228
   70MOL   H10323701   0.262   1.635   2.616 -0.2642  0.2819  0.0997
   70MOL   C10423702   0.433   1.763   3.065 -0.0591 -0.3646  0.5038
   70MOL   C10523703   0.470   1.750   3.212  0.6344  0.1498 -0.6094
   70MOL   C10623704   0.348   1.709   3.292  0.2298 -0.6984 -0.1408
   70MOL   C10723705   0.265   1.808   3.347 -0.2848 -0.2336  0.1662
   70MOL   C10823706   0.158   1.776   3.429 -0.5376  0.1410 -0.0709
   70MOL   C10923707   0.131   1.641   3.453 -0.3401  0.2689  0.0967
   70MOL   C11023708   0.200   1.542   3.383 -0.0380  0.9692  0.1368
   70MOL   C11123709   0.302   1.576   3.298 -0.1201  0.1602 -0.0078
   70MOL   O11223710   0.568   1.650   3.219 -0.2742  0.3145 -0.4586
   70MOL   H11323711   0.504   1.831   3.017 -0.9298  0.7425  0.7430
   70MOL   H11423712   0.337   1.814   3.054  0.2162 -0.4912 -2.9975
   70MOL   H11523713   0.513   1.842   3.252  1.4678 -0.0682 -0.9896
   70MOL   H11623714   0.283   1.914   3.338  1.9174 -0.8001 -2.9150
   70MOL   H11723715   0.097   1.854   3.472  1.1077  0.6791  1.3387
   70MOL   H11823716   0.055   1.613   3.524  0.0947 -1.2583 -0.0168
   70MOL   H11923717   0.185   1.438   3.408 -1.5312  1.1233 -0.0982
   70MOL   H12023718   0.366   1.505   3.248  2.8687  2.5697  0.2766
   70MOL   C12123719   0.699   1.693   3.212  0.9860  0.4547 -0.1957
   70MOL   C12223720   0.793   1.572   3.245  0.4713  0.4364 -0.1418
   70MOL   C12323721   0.815   1.462   3.134 -0.3191  0.1092 -0.5573
   70MOL   C12423722   0.873   1.488   3.007 -0.2367 -0.7496  0.7646
   70MOL   C12523723   0.899   1.389   2.911  0.5162  0.2965 -0.2105
   70MOL   C12623724   0.854   1.261   2.942 -0.0853 -0.2915 -0.3659
   70MOL   C12723725   0.801   1.229   3.071  0.3928 -0.3730 -0.0567
   70MOL   C12823726   0.776   1.332   3.166 -0.8531  0.5021  0.4082
   70MOL   O12923727   0.921   1.627   3.280  0.4578  0.1196 -0.2422
   70MOL   H13023728   0.712   1.775   3.282 -1.0577  0.0677  0.6951
   70MOL   H13123729   0.724   1.735   3.115  0.3823  0.8021 -0.2010
   70MOL   H13223730   0.745   1.517   3.325  0.4702 -0.5834 -0.8416
   70MOL   H13323731   0.914   1.586   2.988 -1.0733 -0.1516  1.9361
   70MOL   H13423732   0.946   1.400   2.815  1.5457  0.3715  0.2957
   70MOL   H13523733   0.870   1.181   2.871  0.8485  1.0195 -1.6428
   70MOL   H13623734   0.772   1.126   3.087  1.2294 -0.3148  1.9019
   70MOL   H13723735   0.729   1.303   3.259 -1.4039 -0.4541 -0.1605
   70MOL   C13823736   0.920   1.658   3.419  0.5019  0.0303 -0.2797
   70MOL   C13923737   1.022   1.567   3.493  0.2735 -0.1781  0.4986
   70MOL   C14023738   1.051   1.598   3.641  0.3021 -0.3105  0.4880
   70MOL   C14123739   1.109   1.715   3.675 -0.5260  0.1834 -0.1265
   70MOL   C14223740   1.120   1.765   3.804  0.1947  1.0703  0.3064
   70MOL   C14323741   1.076   1.684   3.913 -0.1302 -0.0233  0.0710
   70MOL   C14423742   1.015   1.561   3.882  0.4494 -0.3773  0.7715
   70MOL   C14523743   1.003   1.518   3.749 -0.3685 -0.4988  0.5956
   70MOL   O14623744   0.990   1.434   3.468  0.2626  0.6203 -0.4276
   70MOL   H14723745   0.821   1.653   3.464  1.2169  1.1435  1.5080
   70MOL   H14823746   0.944   1.764   3.432 -0.0678  0.4488 -2.6059
   70MOL   H14923747   1.109   1.595   3.433  0.8310  0.2388  1.4813
   70MOL   H15023748   1.141   1.793   3.608 -0.6243  1.6920  1.5391
   70MOL   H15123749   1.163   1.863   3.819  0.3979  0.9344  0.6308
   70MOL   H15223750   1.091   1.710   4.016  0.7792  2.5693 -0.6647
   70MOL   H15323751   0.966   1.503   3.959 -0.5238 -0.0350  0.4150
   70MOL   H15423752   0.969   1.416   3.742  0.2794 -0.6189 -0.9185
   70MOL   C15523753   1.097   1.348   3.449 -0.5279  0.1049  0.3064
   70MOL   C15623754   1.156   1.331   3.308 -0.1307 -0.3363  0.0771
   70MOL   C15723755   1.243   1.447   3.276 -0.0285 -0.8261  0.7525
   70MOL   C15823756   1.207   1.544   3.184  0.5666  0.1068 -1.3120
   70MOL   C15923757   1.292   1.649   3.149  0.5383 -0.2205 -0.8321
   70MOL   C16023758   1.408   1.669   3.226  0.2488 -0.5243  0.1473
   70MOL   C16123759   1.445   1.580   3.327  0.8959  0.1861  0.1797
   70MOL   C16223760   1.362   1.463   3.346 -0.4739 -0.5777 -0.0946
   70MOL   O16323761   1.233   1.212   3.301 -0.5389 -0.1191 -0.5851
   70MOL   H16423762   1.041   1.258   3.474 -0.7328 -0.3605 -1.6763
   70MOL   H16523763   1.177   1.357   3.522 -1.2569 -0.2028  1.1477
   70MOL   H16623764   1.076   1.324   3.234 -1.1084  2.0373  0.8847
   70MOL   H16723765   1.110   1.538   3.136  0.5787 -0.2103 -1.2931
   70MOL   H16823766   1.268   1.722   3.073 -0.5027  0.3486  0.0214
   70MOL   H16923767   1.471   1.756   3.215 -1.6175  1.0407  1.5658
   70MOL   H17023768   1.535   1.595   3.385  1.1085  1.1410 -0.3795
   70MOL   H17123769   1.402   1.391   3.416 -0.5287 -0.5898 -0.0756
   70MOL   C17223770   1.172   1.084   3.285  0.4103 -0.5163  0.7171
   70MOL   C17323771   1.272   0.965   3.298  0.5008 -0.2518 -0.0534
   70MOL   C17423772   1.201   0.836   3.264  0.4516 -0.8112  0.5068
   70MOL   C17523773   1.190   0.799   3.128  0.6215 -0.5038 -0.1363
   70MOL   C17623774   1.134   0.673   3.097 -0.4000  0.1983 -0.3578
   70MOL   C17723775   1.076   0.585   3.193  0.0979  0.6062  0.0203
   70MOL   C17823776   1.072   0.631   3.325  0.1267  0.2174  0.2688
   70MOL   C17923777   1.145   0.748   3.360 -0.0189 -0.1920  0.0785
   70MOL   O18023778   1.315   0.957   3.433 -0.0533  0.0853 -0.4341
   70MOL   H18123779   1.097   1.083   3.363  1.0581  0.8841  1.3654
   70MOL   H18223780   1.113   1.075   3.194 -4.0155  0.8694  3.3115
   70MOL   H18323781   1.350   0.991   3.227 -0.5250 -1.9847 -1.8529
   70MOL   H18423782   1.219   0.861   3.044  0.7592 -0.9148 -0.3940
   70MOL   H18523783   1.130   0.639   2.995  1.5401  2.3406 -1.2049
   70MOL   H18623784   1.031   0.490   3.171  2.2433 -0.8185  1.6404
   70MOL   H18723785   1.032   0.565   3.401 -0.0900  0.4158  0.3282
   70MOL   H18823786   1.165   0.764   3.465  0.5500  2.0677 -0.3501
   70MOL   C18923787   1.449   0.987   3.464 -0.2551  0.0646 -0.0249
   70MOL   C19023788   1.488   1.005   3.607  0.8619  0.6800  0.0353
   70MOL   C19123789   1.423   1.131   3.671 -0.3198 -0.6456  0.0767
   70MOL   C19223790   1.288   1.129   3.718  0.2765  0.1306 -0.0530
   70MOL   C19323791   1.237   1.240   3.785 -0.4773 -0.5726 -0.9588
   70MOL   C19423792   1.314   1.359   3.785  0.3366  0.1872  0.0363
   70MOL   C19523793   1.447   1.365   3.733  0.1225  0.0197 -0.5743
   70MOL   C19623794   1.499   1.250   3.670 -0.0466  0.1878 -0.5377
   70MOL   O19723795   1.630   1.007   3.601  0.1372  0.1705 -0.0926
   70MOL   H19823796   1.509   0.910   3.416 -1.3387 -0.5373 -0.4368
   70MOL   H19923797   1.469   1.083   3.416  0.8046  0.8987  2.0654
   70MOL   H20023798   1.460   0.920   3.670 -0.0043  1.0214  0.1053
   70MOL   H20123799   1.225   1.042   3.719  2.0946 -1.3661 -3.8693
   70MOL   H20223800   1.138   1.234   3.827  0.1294 -1.3273  0.3621
   70MOL   H20323801   1.273   1.452   3.824  1.0028  1.1258 -1.4438
   70MOL   H20423802   1.504   1.456   3.732 -2.8844  1.9484 -1.2058
   70MOL   H20523803   1.593   1.248   3.617  0.0931  0.8121 -0.3163
   70MOL   C20623804   1.696   0.958   3.716 -0.1227 -0.6150 -0.4151
   70MOL   C20723805   1.840   0.922   3.695 -0.6958  0.2083  0.3090
   70MOL   C20823806   1.891   0.821   3.800 -0.1916  0.0140 -0.0842
   70MOL   C20923807   1.986   0.862   3.900 -0.1055  0.1974  0.0171
   70MOL   C21023808   2.039   0.772   3.997  0.1556  0.1374  0.9065
   70MOL   C21123809   1.975   0.650   4.008 -0.2735  0.0470  0.3627
   70MOL   C21223810   1.867   0.615   3.921 -0.8131  0.3167  0.2226
   70MOL   C21323811   1.837   0.698   3.810 -0.0032 -0.1502 -0.4157
   70MOL   O21423812   1.926   1.035   3.707  0.3984  0.3299  0.3394
   70MOL   H21523813   1.674   1.024   3.799 -2.4157  0.1114 -1.5491
   70MOL   H21623814   1.648   0.863   3.742  0.6618 -0.5338  1.4083
   70MOL   H21723815   1.853   0.888   3.592  0.8058  1.3390  0.1001
   70MOL   H21823816   2.031   0.960   3.906 -0.9306  0.4949  1.3425
   70MOL   H21923817   2.113   0.804   4.069 -0.3558  0.0151  1.4958
   70MOL   H22023818   2.015   0.578   4.077  0.7148  0.8988  0.7085
   70MOL   H22123819   1.814   0.521   3.922  1.0248 -0.8061 -1.7792
   70MOL   H22223820   1.765   0.665   3.737 -0.1401  1.9129 -1.2649
   70MOL   C22323821   1.913   1.120   3.597  0.1789  0.4450  1.1254
   70MOL   C22423822   1.999   1.247   3.616 -0.1915  0.2286 -0.1412
   70MOL   C22523823   1.954   1.332   3.733  0.8017  0.3050 -0.1940
   70MOL   C22623824   1.972   1.282   3.868  0.3751 -0.8883  0.2453
   70MOL   C22723825   1.923   1.353   3.979 -0.0847  0.6280  0.7057
   70MOL   C22823826   1.855   1.469   3.957 -0.4404 -0.1575  0.0961
   70MOL   C22923827   1.839   1.522   3.829 -0.1585  0.1882  0.6729
   70MOL   C23023828   1.897   1.459   3.715  0.0845 -0.3925  0.6129
   70MOL   O23123829   2.137   1.210   3.629 -0.7068 -0.2788  0.5521
   70MOL   H23223830   1.942   1.072   3.503 -0.7530  0.4716  0.8183
   70MOL   H23323831   1.815   1.166   3.590 -0.3251 -0.4670  2.1068
   70MOL   H23423832   1.999   1.308   3.525  1.1553 -0.2769 -0.5032
   70MOL   H23523833   2.024   1.187   3.874  0.0056 -1.0578  0.7713
   70MOL   H23623834   1.922   1.308   4.077  0.2439  0.9151  0.8376
   70MOL   H23723835   1.803   1.503   4.046  1.3211  2.9993 -0.0253
   70MOL   H23823836   1.766   1.600   3.814 -2.1721 -2.0511 -1.6604
   70MOL   H23923837   1.871   1.498   3.618 -1.2742 -0.0549  1.0982
   70MOL   C24023838   2.220   1.325   3.615 -0.0719  0.6709 -0.4304
   70MOL   C24123839   2.368   1.296   3.642 -0.3586 -0.1440  0.5499
   70MOL   C24223840   2.452   1.408   3.588 -0.0165 -0.3487  0.4892
   70MOL   C24323841   2.495   1.517   3.668 -0.6244  0.5006 -0.3381
   70MOL   C24423842   2.569   1.623   3.607 -0.6201  0.3036 -0.0511
   70MOL   C24523843   2.595   1.612   3.468 -0.7158 -0.1153  0.1388
   70MOL   C24623844   2.537   1.519   3.391 -0.8472  1.5694 -0.1701
   70MOL   C24723845   2.467   1.411   3.447  0.4656  0.2771 -0.5135
   70MOL   O24823846   2.382   1.279   3.780 -0.0724  0.4628  1.0181
   70MOL   H24923847   2.205   1.339   3.508 -1.4495 -2.5586 -0.7150
   70MOL   H25023848   2.191   1.413   3.673  2.7403  0.9991  0.5867
   70MOL   H25123849   2.407   1.207   3.592 -1.3149  0.3263 -1.0660
   70MOL   H25223850   2.461   1.508   3.770  1.8088  3.0097  0.7654
   70MOL   H25323851   2.605   1.710   3.661 -0.9761 -0.4909  1.5063
   70MOL   H25423852   2.650   1.691   3.419 -2.2004  0.6776 -0.2848
   70MOL   H25523853   2.548   1.522   3.283 -0.3925  0.0104 -0.1823
   70MOL   H25623854   2.409   1.335   3.397  0.4730  0.2954 -0.5505
   70MOL   C25723855   2.376   1.142   3.825 -0.1214 -0.6685  0.3744
   70MOL   C25823856   2.465   1.133   3.946  1.0775  0.0214  0.1931
   70MOL   C25923857   2.615   1.147   3.913  0.8145  0.3203  0.4268
   70MOL   C26023858   2.673   1.277   3.893 -0.5626  0.2361 -0.1632
   70MOL   C26123859   2.802   1.289   3.855 -0.2020 -0.0570 -0.7427
   70MOL   C26223860   2.876   1.176   3.837 -0.4109  0.2408 -1.0455
   70MOL   C26323861   2.830   1.047   3.844 -0.6106 -0.0157 -0.4155
   70MOL   C26423862   2.697   1.030   3.884 -0.2962 -0.6643  0.1189
   70MOL   O26523863   2.427   1.020   4.026  0.2346 -0.0887 -0.3558
   70MOL   H26623864   2.414   1.060   3.764 -0.8270 -0.4386 -0.3799
   70MOL   H26723865   2.272   1.115   3.844  0.1515 -1.1624  1.2409
   70MOL   H26823866   2.454   1.225   4.004  0.8192  0.0390  0.1177
   70MOL   H26923867   2.617   1.368   3.904 -0.0917  0.4127  0.8568
   70MOL   H27023868   2.842   1.388   3.834  0.8018  0.2898  2.4746
   70MOL   H27123869   2.977   1.198   3.806 -0.2883 -0.8061 -1.3981
   70MOL   H27223870   2.886   0.959   3.816 -0.8914  0.1245 -1.4496
   70MOL   H27323871   2.652   0.932   3.893  1.0058 -1.1491  1.6133
   70MOL   C27423872   2.507   1.015   4.147 -0.6862  0.3574 -0.0351
   70MOL   C27523873   2.512   0.890   4.237 -0.3167 -0.1955  0.0967
   70MOL   C27623874   2.383   0.820   4.266 -0.3436  0.0749 -0.5411
   70MOL   C27723875   2.356   0.687   4.215  0.4295 -0.9431 -0.9740
   70MOL   C27823876   2.232   0.623   4.239 -0.6958  0.3389  0.1680
   70MOL   C27923877   2.141   0.690   4.316  0.0457  0.3148 -0.2519
   70MOL   C28023878   2.164   0.816   4.370 -0.1571 -0.3161  0.3438
   70MOL   C28123879   2.284   0.886   4.346 -0.1200  0.1425  0.2825
   70MOL   O28223880   2.573   0.923   4.360 -0.2996  1.1472 -0.0753
   70MOL   H28323881   2.614   1.024   4.130 -0.2456 -1.7700  1.3616
   70MOL   H28423882   2.482   1.103   4.207  0.6436 -1.5875  3.5617
   70MOL   H28523883   2.576   0.831   4.171  2.2804  1.0337  1.4289
   70MOL   H28623884   2.425   0.638   4.148 -0.4292 -0.4623 -2.2440
   70MOL   H28723885   2.208   0.530   4.190  2.6456  0.3912 -1.7299
   70MOL   H28823886   2.052   0.634   4.339  0.0607  0.4229  0.0745
   70MOL   H28923887   2.082   0.848   4.432  0.1676 -0.1318  0.6773
   70MOL   H29023888   2.290   0.980   4.399  0.2988  0.4139 -0.2407
   70MOL   C29123889   2.662   0.826   4.409 -0.0282 -0.8431  0.5550
   70MOL   C29223890   2.798   0.815   4.338  0.4030  0.4747 -0.4084
   70MOL   C29323891   2.869   0.949   4.342  0.1498  0.4733 -0.7512
   70MOL   C29423892   2.899   1.007   4.470 -0.0891 -0.0468  0.3763
   70MOL   C29523893   2.967   1.128   4.476  0.7974 -0.4199 -0.3231
   70MOL   C29623894   3.004   1.192   4.357  0.2470  0.0108 -0.6565
   70MOL   C29723895   2.979   1.142   4.230  0.4366 -0.3659 -0.2571
   70MOL   C29823896   2.904   1.020   4.220 -0.3241 -0.0996 -0.6546
   70MOL   O29923897   2.873   0.707   4.401 -0.6637  0.0912  0.0415
   70MOL   H30023898   2.618   0.726   4.419  0.3369 -0.8555  2.0393
   70MOL   H30123899   2.679   0.840   4.515  3.1784 -0.4551  0.0427
   70MOL   H30223900   2.792   0.790   4.232  3.7543  2.2972 -1.0986
   70MOL   H30323901   2.880   0.951   4.560  2.8431 -2.0298 -0.1660
   70MOL   H30423902   3.003   1.169   4.569 -1.0809  0.0676  0.2126
   70MOL   H30523903   3.056   1.286   4.367 -2.0267  1.1068  1.6437
   70MOL   H30623904   3.011   1.196   4.143  0.9659  0.5976  0.5246
   70MOL   H30723905   2.882   0.978   4.123 -0.5586 -1.2697 -0.1034
   70MOL   C30823906   2.981   0.660   4.322 -0.1918 -0.3857  0.4238
   70MOL   C30923907   3.065   0.565   4.408 -0.1201  0.3267  0.4803
   70MOL   C31023908   3.112   0.627   4.536  0.1957 -0.2528 -0.4531
   70MOL   C31123909   3.184   0.754   4.541 -0.0296 -0.7003  0.5495
   70MOL   C31223910   3.241   0.799   4.667  0.7640 -0.0257  0.2400
   70MOL   C31323911   3.233   0.720   4.782 -0.4306 -0.2671 -0.1127
   70MOL   C31423912   3.162   0.601   4.778  0.3185  0.5386 -0.3007
   70MOL   C31523913   3.091   0.558   4.665 -0.3858  0.0494 -0.4654
   70MOL   O31623914   2.988   0.447   4.434  0.4305 -0.4514  0.2698
   70MOL   H31723915   3.037   0.745   4.283  0.2972 -1.1573 -0.5854
   70MOL   H31823916   2.937   0.607   4.238 -0.5505  0.1246  0.2847
   70MOL   H31923917   3.155   0.541   4.351 -0.5961 -0.4230  0.0229
   70MOL   H32023918   3.208   0.815   4.455 -0.6250  2.0592  2.2685
   70MOL   H32123919   3.286   0.896   4.674  1.7844 -0.5054  0.3712
   70MOL   H32223920   3.287   0.750   4.870 -0.3651  2.1058 -0.9127
   70MOL   H32323921   3.159   0.540   4.868  0.4596 -1.4141 -1.5915
   70MOL   H32423922   3.039   0.464   4.666  1.8324 -1.1944  1.4125
   70MOL   C32523923   3.054   0.327   4.389  0.1820 -0.0280  0.3826
   70MOL   C32623924   2.986   0.210   4.463  0.2304  0.3392  0.2529
   70MOL   C32723925   3.054   0.075   4.446  0.2461 -0.3700 -0.0897
   70MOL   C32823926   3.106   0.012   4.559  0.5085 -0.1429  0.7633
   70MOL   C32923927   3.180   7.976   4.540  0.3269 -0.2105  0.2479
   70MOL   C33023928   3.205   7.916   4.415 -0.7285  0.4790  0.2244
   70MOL   C33123929   3.142   7.980   4.303 -0.8750  0.3904 -0.8947
   70MOL   C33223930   3.063   0.015   4.319 -0.3324 -0.5288 -0.2460
   70MOL   O33323931   2.966   0.248   4.597 -0.0217  0.4209  0.1098
   70MOL   H33423932   3.160   0.332   4.416  0.5046  0.8868 -1.0174
   70MOL   H33523933   3.054   0.309   4.282 -1.7869  0.3814  0.2954
   70MOL   H33623934   2.892   0.181   4.416  0.0908  2.0789 -0.5743
   70MOL   H33723935   3.093   0.056   4.657 -1.2042  0.7208  0.1724
   70MOL   H33823936   3.230   7.936   4.627  2.5670  1.2348 -0.3430
   70MOL   H33923937   3.263   7.826   4.400 -1.2903  0.5728 -2.9683
   70MOL   H34023938   3.163   7.962   4.199  0.1138 -0.4226 -0.5574
   70MOL   H34123939   3.023   0.055   4.227 -0.8471 -3.0128 -1.1492
   70MOL   H34223940   2.926   0.332   4.576  0.6216  0.7767  0.2847
   71MOL     C123941   2.618   3.410   5.034 -0.0549  0.0020  0.2249
   71MOL     C223942   2.483   3.426   5.097 -0.6700  0.6762  0.2658
   71MOL     C323943   2.377   3.360   5.007  0.7804  0.1198  0.3082
   71MOL     C423944   2.328   3.432   4.892  0.1107 -0.3399  0.4627
   71MOL     C523945   2.224   3.380   4.809 -0.5050 -0.0740 -0.4290
   71MOL     C623946   2.170   3.251   4.827 -0.2767  0.0903 -0.0298
   71MOL     C723947   2.224   3.174   4.932  0.1316  0.1601  0.1248
   71MOL     C823948   2.313   3.227   5.023  0.5073  0.3784 -0.2482
   71MOL     O923949   2.459   3.568   5.114 -0.0168  0.0457  0.5357
   71MOL    H1023950   2.702   3.471   5.068 -0.3426  0.7630 -0.4110
   71MOL    H1123951   2.646   3.304   5.036  4.1070  0.8830 -3.3413
   71MOL    H1223952   2.487   3.367   5.189  1.3789 -0.4339 -0.5008
   71MOL    H1323953   2.361   3.532   4.867  2.1132 -0.8375  1.0415
   71MOL    H1423954   2.185   3.438   4.727 -2.3714  0.5430  0.8581
   71MOL    H1523955   2.091   3.217   4.761 -0.7018 -1.6624  1.3348
   71MOL    H1623956   2.182   3.076   4.950 -1.4278  0.9100  0.7017
   71MOL    H1723957   2.342   3.155   5.098 -0.4180  0.0316 -0.2174
   71MOL    H1823958   2.619   3.438   4.928 -0.4619  0.0983  0.2477
   71MOL    C1923959   2.370   3.589   5.223  0.3656  0.4334  0.6309
   71MOL    C2023960   2.381   3.731   5.289  0.7154 -0.4866 -0.3116
   71MOL    C2123961   2.324   3.845   5.210  0.8022 -0.1150 -0.0247
   71MOL    C2223962   2.391   3.964   5.194 -0.0610 -0.4213 -0.4641
   71MOL    C2323963   2.342   4.074   5.116 -0.3388  0.2671  0.4313
   71MOL    C2423964   2.212   4.065   5.068  0.4606 -0.8170 -0.4305
   71MOL    C2523965   2.131   3.954   5.097  0.5825  0.2847 -0.5232
   71MOL    C2623966   2.188   3.844   5.160 -0.4043 -0.2241 -0.4254
   71MOL    O2723967   2.519   3.749   5.357  0.0338 -0.1122 -0.0191
   71MOL    H2823968   2.266   3.570   5.196  0.7059 -1.7432  0.7607
   71MOL    H2923969   2.388   3.518   5.304  1.6542  0.4829  0.3859
   71MOL    H3023970   2.319   3.732   5.379  0.4738 -1.0769 -0.4662
   71MOL    H3123971   2.484   3.979   5.247 -1.2466 -2.0278  2.1708
   71MOL    H3223972   2.389   4.170   5.107  0.0299  0.0411 -0.0382
   71MOL    H3323973   2.162   4.144   5.013 -2.1896 -2.1493 -0.0145
   71MOL    H3423974   2.032   3.939   5.058  0.5143  0.2986 -0.3562
   71MOL    H3523975   2.130   3.754   5.173  0.8481 -1.0502 -0.4259
   71MOL    C3623976   2.546   3.672   5.473  0.2235 -0.2133 -0.9349
   71MOL    C3723977   2.483   3.722   5.599 -0.4696  0.0794 -0.2124
   71MOL    C3823978   2.567   3.679   5.719  0.1011 -0.3931 -0.7755
   71MOL    C3923979   2.558   3.547   5.763  0.3986 -0.1765  0.0107
   71MOL    C4023980   2.623   3.507   5.881 -0.1419  0.4854 -0.5064
   71MOL    C4123981   2.694   3.604   5.949 -0.6585 -0.5434 -0.1823
   71MOL    C4223982   2.701   3.737   5.910 -0.5968 -0.5474 -0.2255
   71MOL    C4323983   2.633   3.776   5.797  0.0280  0.1355  0.0117
   71MOL    O4423984   2.364   3.657   5.593  0.5322  0.0661  0.3497
   71MOL    H4523985   2.521   3.568   5.452  0.5938 -0.5477  0.2243
   71MOL    H4623986   2.655   3.677   5.470  0.1885  1.7544  0.3157
   71MOL    H4723987   2.473   3.830   5.594 -2.9237 -0.1899 -2.8028
   71MOL    H4823988   2.500   3.479   5.702  0.4442  1.2829 -1.7127
   71MOL    H4923989   2.622   3.405   5.918  2.9498  0.8573  0.7270
   71MOL    H5023990   2.751   3.582   6.038  0.1721 -2.1101 -1.0824
   71MOL    H5123991   2.772   3.803   5.959 -1.5758  0.2265  0.1618
   71MOL    H5223992   2.622   3.878   5.764 -0.8136 -0.0681 -0.3704
   71MOL    C5323993   2.263   3.700   5.687  0.2107 -0.1912  0.2411
   71MOL    C5423994   2.162   3.802   5.627 -1.0476  0.1777  0.6532
   71MOL    C5523995   2.049   3.830   5.722 -0.5550  0.2076  0.6516
   71MOL    C5623996   2.072   3.917   5.830  0.3301 -0.1747 -0.5748
   71MOL    C5723997   1.975   3.934   5.931  0.1826 -0.3713 -0.4419
   71MOL    C5823998   1.848   3.870   5.912 -0.0990 -0.8549  0.3798
   71MOL    C5923999   1.827   3.787   5.809  0.0642  1.1246 -0.2176
   71MOL    C6024000   1.923   3.764   5.714  0.3647  0.3457  0.2593
   71MOL    O6124001   2.239   3.931   5.604  0.0100 -0.3224 -0.2814
   71MOL    H6224002   2.211   3.606   5.704 -2.4693  1.2797  0.3306
   71MOL    H6324003   2.307   3.729   5.783  2.3231 -0.0201 -0.7553
   71MOL    H6424004   2.126   3.765   5.530  1.4190 -1.0681  0.1811
   71MOL    H6524005   2.162   3.975   5.846 -1.5375  1.7909  3.5537
   71MOL    H6624006   1.984   3.993   6.020 -0.6982 -0.9627  0.0469
   71MOL    H6724007   1.768   3.874   5.984  0.2319  0.5877  0.6693
   71MOL    H6824008   1.738   3.727   5.803  0.9354 -0.4294  1.6874
   71MOL    H6924009   1.911   3.683   5.643 -0.8874 -1.0743  2.0257
   71MOL    C7024010   2.187   4.017   5.514 -0.3409  0.1966 -0.4441
   71MOL    C7124011   2.256   4.159   5.521 -0.4075 -0.0275  0.8290
   71MOL    C7224012   2.413   4.166   5.510 -0.1873 -0.8587  0.6168
   71MOL    C7324013   2.499   4.087   5.590  0.1005 -0.0901 -0.0789
   71MOL    C7424014   2.635   4.085   5.562 -0.0935  0.1038 -0.2002
   71MOL    C7524015   2.691   4.157   5.450  0.2938 -0.3022  0.5591
   71MOL    C7624016   2.601   4.243   5.379 -0.6607  0.7033  0.6440
   71MOL    C7724017   2.464   4.244   5.407 -0.8154 -0.0187 -0.7469
   71MOL    O7824018   2.207   4.228   5.639  0.0067  0.4639  0.1325
   71MOL    H7924019   2.197   3.968   5.417  2.6072 -0.2707  0.0561
   71MOL    H8024020   2.081   4.032   5.535 -0.4188 -0.2390 -0.5187
   71MOL    H8124021   2.222   4.215   5.433  1.9806 -1.2807 -0.9233
   71MOL    H8224022   2.462   4.013   5.659  1.4195  0.5583  1.3514
   71MOL    H8324023   2.690   4.033   5.639 -0.9630 -1.8756 -0.8776
   71MOL    H8424024   2.795   4.153   5.422 -0.3047 -2.5587 -1.5279
   71MOL    H8524025   2.636   4.309   5.301 -1.6440  0.3113 -0.1399
   71MOL    H8624026   2.410   4.308   5.340  1.6811  3.6931  0.6478
   71MOL    C8724027   2.229   4.369   5.648 -0.6757  0.8855  0.3214
   71MOL    C8824028   2.137   4.428   5.756  0.2514 -0.6112  0.0344
   71MOL    C8924029   2.185   4.399   5.898  0.0058  0.1824  1.3466
   71MOL    C9024030   2.167   4.264   5.940 -0.3939  0.6393  0.0945
   71MOL    C9124031   2.210   4.223   6.063  0.5891  0.3022 -0.7698
   71MOL    C9224032   2.264   4.319   6.151 -0.2719  0.5194  0.6951
   71MOL    C9324033   2.263   4.454   6.118  0.2278  0.4930  0.9348
   71MOL    C9424034   2.231   4.498   5.988 -0.5490  0.5011  0.5119
   71MOL    O9524035   1.999   4.387   5.746 -1.0078 -0.1042  0.5066
   71MOL    H9624036   2.219   4.410   5.548  1.2365  0.6536  0.0229
   71MOL    H9724037   2.332   4.379   5.680 -1.2352  0.6881  2.2212
   71MOL    H9824038   2.154   4.533   5.730  0.1868 -1.3925 -3.4562
   71MOL    H9924039   2.117   4.189   5.880  0.2574 -1.3122  1.9221
   71MOL   H10024040   2.205   4.122   6.101 -0.5425  1.1690  1.4601
   71MOL   H10124041   2.303   4.299   6.250  2.2662  0.5848 -0.2543
   71MOL   H10224042   2.291   4.527   6.192  1.2894  2.1975 -1.1066
   71MOL   H10324043   2.243   4.598   5.949 -0.7097  0.9622  1.6206
   71MOL   C10424044   1.903   4.485   5.788 -0.4667 -0.0764  0.3659
   71MOL   C10524045   1.783   4.414   5.853  0.5228  0.2968 -0.1001
   71MOL   C10624046   1.717   4.315   5.756 -0.2060  0.4391 -0.4545
   71MOL   C10724047   1.775   4.191   5.723  0.5811  0.0930 -0.1146
   71MOL   C10824048   1.701   4.103   5.638 -0.6167 -0.0323 -0.8822
   71MOL   C10924049   1.574   4.140   5.592  0.4899 -0.5456 -0.1056
   71MOL   C11024050   1.523   4.271   5.610 -0.2146  0.5353 -0.2235
   71MOL   C11124051   1.598   4.353   5.696 -0.4941  0.4358  0.3053
   71MOL   O11224052   1.843   4.338   5.962 -0.2754  0.8835 -0.1734
   71MOL   H11324053   1.940   4.564   5.853 -0.3862  1.4642 -1.4998
   71MOL   H11424054   1.869   4.527   5.693 -0.5643 -0.8457  0.0588
   71MOL   H11524055   1.713   4.492   5.882  0.1755 -0.1735  0.3191
   71MOL   H11624056   1.866   4.156   5.771 -0.4283 -0.8977  1.0926
   71MOL   H11724057   1.733   4.003   5.613  2.9262  0.2117  2.2463
   71MOL   H11824058   1.515   4.065   5.540 -0.4239 -0.4928  0.8296
   71MOL   H11924059   1.431   4.305   5.565 -1.3195 -2.9315 -0.7285
   71MOL   H12024060   1.564   4.451   5.723  2.3545  1.5836 -0.0588
   71MOL   C12124061   1.848   4.406   6.089  0.6273  0.1805 -0.3984
   71MOL   C12224062   1.882   4.302   6.200  0.0865 -0.0162 -0.4102
   71MOL   C12324063   1.944   4.361   6.328 -0.1938  0.6508  0.0669
   71MOL   C12424064   1.969   4.500   6.342 -0.4039  0.4026 -0.2943
   71MOL   C12524065   2.020   4.546   6.469 -0.1332  0.1751  0.7381
   71MOL   C12624066   2.050   4.457   6.573 -0.5585 -0.9560  0.5291
   71MOL   C12724067   2.034   4.319   6.553  0.1429  0.0395 -0.2781
   71MOL   C12824068   1.974   4.269   6.431  0.0187  0.5199 -0.0192
   71MOL   O12924069   1.773   4.229   6.237  0.0618  0.1075 -0.3016
   71MOL   H13024070   1.751   4.453   6.107  0.5221  0.0711 -0.6715
   71MOL   H13124071   1.919   4.487   6.076  4.5175 -2.6544  2.1623
   71MOL   H13224072   1.955   4.224   6.176 -1.4640 -1.9376  0.8922
   71MOL   H13324073   1.954   4.575   6.266 -3.0863  0.7974  0.5800
   71MOL   H13424074   2.027   4.653   6.476  0.8832  0.2566 -1.1488
   71MOL   H13524075   2.083   4.493   6.669 -1.2786 -0.2470  0.5205
   71MOL   H13624076   2.056   4.251   6.634  0.0225  2.2451  1.6563
   71MOL   H13724077   1.955   4.163   6.421 -0.9565  0.6282  0.7164
   71MOL   C13824078   1.737   4.119   6.158  0.9754 -0.1923  0.1135
   71MOL   C13924079   1.600   4.070   6.190  0.3972  0.3033 -0.3376
   71MOL   C14024080   1.491   4.166   6.154  0.1738 -0.7390  0.0610
   71MOL   C14124081   1.465   4.281   6.237  0.0258  0.5444  0.0552
   71MOL   C14224082   1.371   4.377   6.195  0.3108  0.2285 -0.5423
   71MOL   C14324083   1.306   4.366   6.069 -0.4866  0.3027 -0.3739
   71MOL   C14424084   1.329   4.253   5.992  0.4571 -0.2560 -0.6670
   71MOL   C14524085   1.428   4.156   6.031 -0.2481  0.0792  0.7199
   71MOL   O14624086   1.579   3.942   6.137  0.1956  0.1174  0.2694
   71MOL   H14724087   1.810   4.041   6.176 -0.0939 -1.0864  0.6171
   71MOL   H14824088   1.746   4.126   6.049 -1.5594 -1.0847 -0.1820
   71MOL   H14924089   1.604   4.056   6.298 -1.4735 -1.2995 -0.4333
   71MOL   H15024090   1.520   4.309   6.325  1.7572 -0.7649 -0.5681
   71MOL   H15124091   1.354   4.465   6.256  2.3426  1.8968 -2.2868
   71MOL   H15224092   1.231   4.440   6.045 -1.8800 -0.4795  1.4243
   71MOL   H15324093   1.272   4.236   5.902 -0.8098 -1.7174  0.3833
   71MOL   H15424094   1.460   4.074   5.968 -1.8199  0.0515 -0.0483
   71MOL   C15524095   1.476   3.865   6.202  0.8382 -0.2361  0.2348
   71MOL   C15624096   1.440   3.740   6.109  0.3689  0.3632 -0.0463
   71MOL   C15724097   1.325   3.658   6.166  0.0161 -0.0965 -0.3656
   71MOL   C15824098   1.355   3.537   6.233  0.0412  0.4298 -0.0901
   71MOL   C15924099   1.246   3.463   6.287 -0.3840 -0.1758  0.7284
   71MOL   C16024100   1.115   3.512   6.273  0.5995 -0.6678 -0.1070
   71MOL   C16124101   1.090   3.638   6.213 -0.3396  0.6002  0.2632
   71MOL   C16224102   1.195   3.707   6.151 -0.5163 -0.3197  0.2522
   71MOL   O16324103   1.402   3.792   5.981 -0.9732 -0.1826  0.3382
   71MOL   H16424104   1.387   3.925   6.219  1.2640  0.4595  0.0589
   71MOL   H16524105   1.508   3.842   6.304  0.5038 -0.4039  0.3003
   71MOL   H16624106   1.523   3.669   6.105  1.0660  1.0060  2.1825
   71MOL   H16724107   1.459   3.506   6.233  0.1230  0.5434  3.2385
   71MOL   H16824108   1.270   3.369   6.335  5.7793  0.2434 -1.0347
   71MOL   H16924109   1.040   3.445   6.312  0.9521 -1.1457 -0.2333
   71MOL   H17024110   0.990   3.678   6.209 -1.5647 -2.0629  2.5798
   71MOL   H17124111   1.175   3.800   6.100 -4.0037 -1.4156 -0.5229
   71MOL   C17224112   1.410   3.703   5.876  0.1527 -0.4689  0.3638
   71MOL   C17324113   1.410   3.776   5.743 -0.4075  0.3929  0.3919
   71MOL   C17424114   1.287   3.859   5.723  0.2101  0.4242 -0.1096
   71MOL   C17524115   1.163   3.798   5.698 -0.5426  0.1989 -0.2958
   71MOL   C17624116   1.048   3.879   5.670 -0.8922  0.1715  0.3025
   71MOL   C17724117   1.069   4.021   5.648 -0.5280  0.5914  0.3834
   71MOL   C17824118   1.191   4.077   5.689  0.3304  0.3486  0.3063
   71MOL   C17924119   1.298   3.999   5.721 -0.8128  0.0592 -0.3660
   71MOL   O18024120   1.448   3.689   5.628 -0.0591 -0.1219 -0.1454
   71MOL   H18124121   1.493   3.633   5.887 -0.7155 -1.6017 -0.0931
   71MOL   H18224122   1.318   3.643   5.876 -0.4184  0.4039  0.6172
   71MOL   H18324123   1.492   3.845   5.763  0.7669 -0.6826 -0.6607
   71MOL   H18424124   1.155   3.692   5.711 -0.8807  0.4303  1.5311
   71MOL   H18524125   0.956   3.832   5.639  0.2884 -2.0410  0.0893
   71MOL   H18624126   0.994   4.082   5.599 -2.6102 -2.3630 -0.2604
   71MOL   H18724127   1.197   4.183   5.673  2.4707  0.1094 -0.5394
   71MOL   H18824128   1.391   4.048   5.747  0.5608 -1.8486 -1.5431
   71MOL   C18924129   1.522   3.760   5.533  0.3693 -0.5763 -0.6361
   71MOL   C19024130   1.553   3.691   5.394  0.3306 -0.5582 -0.2123
   71MOL   C19124131   1.696   3.658   5.375 -0.4658 -0.1899 -0.0782
   71MOL   C19224132   1.736   3.525   5.346  0.0721  0.1757 -0.3311
   71MOL   C19324133   1.877   3.499   5.351 -0.1455 -0.9362  0.5442
   71MOL   C19424134   1.970   3.601   5.366 -0.2218 -0.4513  0.7026
   71MOL   C19524135   1.930   3.733   5.369  0.1119  0.2572 -0.4606
   71MOL   C19624136   1.794   3.763   5.377  0.0286 -0.1313  0.0532
   71MOL   O19724137   1.509   3.799   5.299 -0.6372  0.1618  0.3051
   71MOL   H19824138   1.469   3.854   5.517 -1.1664 -1.5692 -1.5054
   71MOL   H19924139   1.611   3.779   5.592 -0.6015  1.7259  0.1650
   71MOL   H20024140   1.487   3.609   5.364 -0.2389 -0.1381 -0.1256
   71MOL   H20124141   1.663   3.448   5.329 -1.4083  1.7111 -1.0663
   71MOL   H20224142   1.900   3.394   5.339  0.1360 -0.7257 -0.8170
   71MOL   H20324143   2.071   3.565   5.356 -0.4616 -1.2140  1.0185
   71MOL   H20424144   1.996   3.818   5.359 -1.0073  1.1356 -0.4584
   71MOL   H20524145   1.752   3.862   5.369 -0.0148 -0.0054  1.6745
   71MOL   C20624146   1.501   3.741   5.171  0.5305 -0.0025  0.0686
   71MOL   C20724147   1.444   3.840   5.070  0.1141 -0.7184 -0.7064
   71MOL   C20824148   1.357   3.761   4.965  0.3532 -1.2389  0.2953
   71MOL   C20924149   1.215   3.752   4.995  0.4241 -0.1366  0.4803
   71MOL   C21024150   1.130   3.680   4.911  0.1894 -0.0188 -1.2042
   71MOL   C21124151   1.179   3.635   4.791  0.8620 -0.1548  0.1803
   71MOL   C21224152   1.314   3.634   4.764 -0.9928 -0.1116 -0.5839
   71MOL   C21324153   1.404   3.699   4.849  0.4143 -0.5124  0.1650
   71MOL   O21424154   1.551   3.899   4.998  0.7904 -0.1143  0.2493
   71MOL   H21524155   1.592   3.693   5.134  0.5162 -0.7257  0.9518
   71MOL   H21624156   1.424   3.664   5.178  2.1715 -1.7894 -0.8708
   71MOL   H21724157   1.387   3.916   5.121 -1.5203  1.0558 -4.9170
   71MOL   H21824158   1.182   3.796   5.088 -0.2337  1.7370 -0.6039
   71MOL   H21924159   1.026   3.671   4.937 -0.3105  2.3415 -2.3188
   71MOL   H22024160   1.118   3.569   4.731  1.8260 -0.6703 -0.2585
   71MOL   H22124161   1.348   3.582   4.676 -0.5512 -1.4508  0.3553
   71MOL   H22224162   1.511   3.703   4.840  0.3718 -0.3139 -0.2580
   71MOL   C22324163   1.642   3.980   5.074  0.1808 -0.3039 -0.4260
   71MOL   C22424164   1.726   4.078   4.985  0.3462  0.2129 -0.7994
   71MOL   C22524165   1.822   4.175   5.067 -0.9801  0.2547  0.2379
   71MOL   C22624166   1.891   4.278   4.992  0.2974 -0.4249 -0.4394
   71MOL   C22724167   1.983   4.362   5.056 -0.1062  0.2691  0.1638
   71MOL   C22824168   1.999   4.364   5.197  0.0668 -0.4629  0.1234
   71MOL   C22924169   1.932   4.267   5.269  0.0483  0.2283 -0.7850
   71MOL   C23024170   1.843   4.169   5.209  0.4603 -0.5756  0.1700
   71MOL   O23124171   1.793   4.014   4.882 -0.0410 -0.0277  0.1846
   71MOL   H23224172   1.594   4.040   5.151  3.9039  0.9021  1.0549
   71MOL   H23324173   1.700   3.917   5.141  2.3479  0.5412 -1.4659
   71MOL   H23424174   1.657   4.151   4.942  0.7193  1.0704  0.0411
   71MOL   H23524175   1.884   4.289   4.884  2.0748  0.5780 -0.4636
   71MOL   H23624176   2.044   4.421   4.988 -1.0286 -0.1084 -1.0150
   71MOL   H23724177   2.070   4.424   5.252  0.7809 -0.2190 -1.0418
   71MOL   H23824178   1.944   4.266   5.376  0.9978 -0.8327 -0.8942
   71MOL   H23924179   1.787   4.102   5.273 -0.2845 -1.2205 -1.1270
   71MOL   C24024180   1.728   4.016   4.759 -0.0987  0.1185 -0.3313
   71MOL   C24124181   1.793   3.906   4.669  0.5290 -0.2009  0.4645
   71MOL   C24224182   1.699   3.871   4.547 -0.0005 -0.0818 -0.0885
   71MOL   C24324183   1.628   3.756   4.557 -0.2033 -0.4150  0.4022
   71MOL   C24424184   1.539   3.722   4.454 -0.2341 -0.1072 -0.4014
   71MOL   C24524185   1.534   3.794   4.337  0.1281 -0.1862  0.6375
   71MOL   C24624186   1.619   3.901   4.320 -0.0250 -0.4540 -0.1392
   71MOL   C24724187   1.695   3.949   4.431  0.6223 -0.0262 -0.4132
   71MOL   O24824188   1.921   3.955   4.622 -0.0900 -0.1372  0.0702
   71MOL   H24924189   1.624   3.990   4.781 -0.8660  1.6385 -2.0052
   71MOL   H25024190   1.723   4.115   4.713 -0.8939  0.1473 -0.2018
   71MOL   H25124191   1.812   3.811   4.719 -1.0022 -0.5234  0.4368
   71MOL   H25224192   1.633   3.694   4.646 -2.1817 -2.0655 -0.5925
   71MOL   H25324193   1.490   3.626   4.462 -0.0595 -0.1330  0.4053
   71MOL   H25424194   1.472   3.751   4.259  0.0132  0.8357  0.1617
   71MOL   H25524195   1.628   3.958   4.229  0.6888 -0.0255  0.1938
   71MOL   H25624196   1.766   4.029   4.420 -1.7171  2.0427 -0.9616
   71MOL   C25724197   2.033   3.925   4.706  0.3054 -0.0751  0.3379
   71MOL   C25824198   2.152   3.987   4.633  0.5706  0.6276  0.2416
   71MOL   C25924199   2.157   4.146   4.623  0.0548  0.1134  0.1842
   71MOL   C26024200   2.056   4.229   4.678  0.1058 -0.0664 -0.0712
   71MOL   C26124201   2.070   4.371   4.671 -0.6171 -1.1299  0.4477
   71MOL   C26224202   2.176   4.421   4.600 -0.8157  0.3135  0.2447
   71MOL   C26324203   2.275   4.336   4.549  0.1252 -0.6375  0.2446
   71MOL   C26424204   2.268   4.201   4.553 -0.4076  0.3431  0.2500
   71MOL   O26524205   2.183   3.919   4.510  0.3205  0.4470 -0.2879
   71MOL   H26624206   2.046   3.818   4.721  1.0750  0.1911  1.6573
   71MOL   H26724207   2.029   3.972   4.805 -2.5045 -0.9718  0.6998
   71MOL   H26824208   2.234   3.970   4.703  0.5035 -0.4889  0.0529
   71MOL   H26924209   1.981   4.179   4.738 -1.8962  1.6040 -1.1326
   71MOL   H27024210   2.003   4.439   4.721 -0.3513  0.0354 -0.7611
   71MOL   H27124211   2.184   4.529   4.594  0.1675  0.1991 -0.6695
   71MOL   H27224212   2.363   4.380   4.503  0.2636 -1.6056 -0.4290
   71MOL   H27324213   2.343   4.134   4.513 -0.0246  0.6122  0.5214
   71MOL   C27424214   2.271   3.808   4.515 -0.4493 -0.0715 -0.6818
   71MOL   C27524215   2.258   3.736   4.376  0.1710  0.3239  0.5615
   71MOL   C27624216   2.131   3.643   4.370  0.0271 -0.4248 -0.1442
   71MOL   C27724217   2.007   3.693   4.315 -0.3611  0.2424  0.4191
   71MOL   C27824218   1.888   3.616   4.310 -0.6368 -0.8711 -0.1622
   71MOL   C27924219   1.895   3.484   4.363  0.4242 -0.0884  0.5905
   71MOL   C28024220   2.015   3.427   4.402 -0.4423  1.0358 -0.0509
   71MOL   C28124221   2.133   3.505   4.406 -0.0145  0.0187  0.8897
   71MOL   O28224222   2.367   3.655   4.375  0.2941 -0.2093  0.4932
   71MOL   H28324223   2.374   3.843   4.524  0.1042 -1.8799  0.0844
   71MOL   H28424224   2.256   3.743   4.601 -0.0067 -0.1909 -0.6948
   71MOL   H28524225   2.254   3.810   4.297  1.0717  0.1402  0.3309
   71MOL   H28624226   2.005   3.792   4.272 -1.0692 -0.2378 -0.7075
   71MOL   H28724227   1.797   3.660   4.272 -0.9245 -2.8750 -1.8685
   71MOL   H28824228   1.804   3.426   4.373  1.6008 -2.3562 -1.4523
   71MOL   H28924229   2.014   3.322   4.427  1.8404  0.5992 -1.6198
   71MOL   H29024230   2.224   3.465   4.447  0.1258  0.5195  1.0731
   71MOL   C29124231   2.396   3.602   4.245 -0.2612  0.3865  0.4776
   71MOL   C29224232   2.509   3.499   4.247 -0.2521  0.0048  0.2082
   71MOL   C29324233   2.519   3.401   4.368 -0.6178 -0.7522  0.4095
   71MOL   C29424234   2.576   3.453   4.488  0.0622  0.3914  0.0781
   71MOL   C29524235   2.593   3.371   4.605 -0.2315  0.1681  0.1401
   71MOL   C29624236   2.547   3.237   4.595 -0.0485 -0.3615 -0.6930
   71MOL   C29724237   2.489   3.185   4.480 -0.1899  0.8510 -0.1974
   71MOL   C29824238   2.475   3.270   4.368 -0.9510  0.5823  0.4786
   71MOL   O29924239   2.526   3.432   4.124  0.6479 -0.2220  0.3589
   71MOL   H30024240   2.424   3.688   4.185  0.5741  0.0071  0.3182
   71MOL   H30124241   2.317   3.548   4.193 -0.2862 -0.5773  1.4935
   71MOL   H30224242   2.589   3.569   4.270 -0.5589 -0.2923  2.2759
   71MOL   H30324243   2.589   3.560   4.492  0.8964  0.3594 -1.3649
   71MOL   H30424244   2.619   3.411   4.702  2.2251 -1.1470  0.0380
   71MOL   H30524245   2.558   3.180   4.685  0.5440  0.5937 -0.1475
   71MOL   H30624246   2.439   3.090   4.488 -2.0465  1.7307 -1.1846
   71MOL   H30724247   2.416   3.235   4.285 -0.7767  0.7123  0.3010
   71MOL   C30824248   2.545   3.508   4.010  0.4542  0.4028  0.5722
   71MOL   C30924249   2.546   3.410   3.887 -0.0368  0.6522  0.1306
   71MOL   C31024250   2.430   3.315   3.873  0.2323  0.4677  0.3158
   71MOL   C31124251   2.309   3.350   3.810 -0.7904 -0.1052 -0.5275
   71MOL   C31224252   2.205   3.263   3.790  0.6984  0.1497  0.5032
   71MOL   C31324253   2.217   3.127   3.840 -0.6619  0.2044 -0.2877
   71MOL   C31424254   2.329   3.092   3.919  0.5708 -0.2553  0.2398
   71MOL   C31524255   2.429   3.188   3.941  0.2351 -0.0131  0.9170
   71MOL   O31624256   2.556   3.499   3.770  0.0529 -0.6436 -0.4393
   71MOL   H31724257   2.640   3.561   4.008  0.9369 -0.3565  2.1103
   71MOL   H31824258   2.463   3.577   3.988 -0.5216 -1.1498 -0.7271
   71MOL   H31924259   2.640   3.356   3.902 -0.2954 -0.1824 -1.1541
   71MOL   H32024260   2.308   3.451   3.773  0.8068  0.1309  0.0847
   71MOL   H32124261   2.120   3.303   3.736  1.7788  0.0738 -1.2977
   71MOL   H32224262   2.139   3.054   3.827  1.6057 -1.9130 -2.4475
   71MOL   H32324263   2.337   2.990   3.954  2.3512 -0.3030 -0.2664
   71MOL   H32424264   2.519   3.168   3.998  0.3522  2.1201  1.5139
   71MOL   C32524265   2.607   3.436   3.653 -0.4455  0.5175  0.2540
   71MOL   C32624266   2.586   3.515   3.521  0.2656 -0.0190 -0.2262
   71MOL   C32724267   2.443   3.558   3.498 -0.1718 -0.6452 -0.1784
   71MOL   C32824268   2.415   3.694   3.498  0.2918 -0.6627  0.3179
   71MOL   C32924269   2.284   3.734   3.482 -0.3120  0.0687  0.4180
   71MOL   C33024270   2.181   3.640   3.470  0.7110 -0.1353 -0.1918
   71MOL   C33124271   2.204   3.498   3.467  0.6312 -0.2051 -0.6754
   71MOL   C33224272   2.341   3.458   3.492 -0.0545 -1.2310 -0.3016
   71MOL   O33324273   2.688   3.614   3.508  0.2465  0.5928 -0.4942
   71MOL   H33424274   2.543   3.349   3.639 -1.0114  1.2073 -1.5656
   71MOL   H33524275   2.711   3.407   3.663 -0.6024 -0.0708  0.1669
   71MOL   H33624276   2.605   3.437   3.448  0.7701  1.2811 -1.5120
   71MOL   H33724277   2.494   3.767   3.501 -1.1046  0.8356  2.8857
   71MOL   H33824278   2.260   3.838   3.494 -1.9279 -0.1544 -0.7685
   71MOL   H33924279   2.082   3.680   3.458 -0.1395 -1.6694  1.4274
   71MOL   H34024280   2.125   3.426   3.455  0.0527  0.3406 -0.1745
   71MOL   H34124281   2.361   3.352   3.490  1.0796 -1.0027 -1.5318
   71MOL   H34224282   2.675   3.684   3.570 -2.2367 -0.1796 -0.0773
   72MOL     C124283   2.143   8.072   4.292  0.2763 -0.7006 -0.0344
   72MOL     C224284   2.161   7.936   4.359 -0.4192  0.0193  0.3881
   72MOL     C324285   2.161   7.944   4.511  0.4893 -0.1907 -0.2686
   72MOL     C424286   2.034   7.955   4.577 -0.6298  0.3444  0.3711
   72MOL     C524287   2.026   7.949   4.717  0.3566 -0.1431 -0.0146
   72MOL     C624288   2.144   7.941   4.790 -0.7041  0.6580  0.6309
   72MOL     C724289   2.270   7.936   4.728 -0.1631 -0.6354  0.3321
   72MOL     C824290   2.280   7.934   4.587  0.3378 -0.4194 -0.0095
   72MOL     O924291   2.283   7.876   4.312 -0.5874  0.5330 -0.6656
   72MOL    H1024292   2.057   0.039   4.339 -0.8480 -1.2247 -1.5421
   72MOL    H1124293   2.225   0.060   4.317  0.8701 -1.4398  0.0554
   72MOL    H1224294   2.080   7.865   4.340 -0.2417 -0.4363  1.2940
   72MOL    H1324295   1.942   7.963   4.520 -1.4506 -0.0179  1.6215
   72MOL    H1424296   1.934   7.960   4.773  0.5744  0.1399  0.2874
   72MOL    H1524297   2.134   7.946   4.897 -1.0735  1.4883  0.5632
   72MOL    H1624298   2.356   7.914   4.789 -0.7643  1.6021  2.0816
   72MOL    H1724299   2.378   7.920   4.544  0.2208  2.0032 -1.1331
   72MOL    H1824300   2.124   8.070   4.185 -1.5904 -0.0165  0.2716
   72MOL    C1924301   2.285   7.733   4.326  0.0534 -0.3938 -0.2653
   72MOL    C2024302   2.248   7.649   4.203 -0.5325  0.3317  0.2265
   72MOL    C2124303   2.361   7.642   4.093  0.4125  0.2022  0.0763
   72MOL    C2224304   2.431   7.523   4.065  0.1934 -0.2027 -0.4467
   72MOL    C2324305   2.531   7.517   3.964  0.4473  0.0629 -0.4908
   72MOL    C2424306   2.575   7.637   3.903 -0.4526 -0.1641  0.0049
   72MOL    C2524307   2.509   7.758   3.934 -0.3043 -0.4131  0.4007
   72MOL    C2624308   2.407   7.759   4.030 -0.5881  0.3018 -0.7165
   72MOL    O2724309   2.131   7.705   4.139 -0.4080  0.4747  0.1078
   72MOL    H2824310   2.388   7.712   4.354 -0.1307 -1.7592 -0.5882
   72MOL    H2924311   2.221   7.710   4.412 -0.1388 -2.6664 -0.9894
   72MOL    H3024312   2.228   7.547   4.234 -1.5043  0.6214  0.5652
   72MOL    H3124313   2.415   7.430   4.117 -1.1230  0.7629  0.9182
   72MOL    H3224314   2.583   7.427   3.935 -2.1658 -1.5413 -0.3777
   72MOL    H3324315   2.657   7.630   3.833  0.0923 -1.2469  0.7269
   72MOL    H3424316   2.534   7.851   3.884  0.8809 -0.9526 -0.0268
   72MOL    H3524317   2.355   7.852   4.047 -0.3553  0.4435 -0.7826
   72MOL    C3624318   2.068   7.610   4.068  0.6698 -0.0040 -0.1210
   72MOL    C3724319   1.974   7.687   3.976  0.4603  0.1475  0.5533
   72MOL    C3824320   1.900   7.806   4.034 -0.0694 -0.0062 -0.2569
   72MOL    C3924321   1.787   7.783   4.108  0.2158 -0.3294 -0.0212
   72MOL    C4024322   1.729   7.879   4.191 -0.3220  0.5856  0.1664
   72MOL    C4124323   1.774   8.011   4.183 -0.0318 -0.0938 -0.0514
   72MOL    C4224324   1.882   8.042   4.096 -0.5470  0.2176 -0.2052
   72MOL    C4324325   1.950   7.938   4.027  0.5039 -0.8183  0.4738
   72MOL    O4424326   1.885   7.586   3.923  0.4708 -1.1428  0.6959
   72MOL    H4524327   2.135   7.550   4.006  0.2945 -0.6940  0.1264
   72MOL    H4624328   2.008   7.544   4.131  1.0164  0.2377  0.4607
   72MOL    H4724329   2.034   7.732   3.897 -2.0464  0.6567 -1.1092
   72MOL    H4824330   1.747   7.683   4.119 -0.1222  0.1304  3.8300
   72MOL    H4924331   1.643   7.856   4.252  0.3565  0.8365  1.2265
   72MOL    H5024332   1.723   0.010   4.237 -0.6449  0.2311 -1.0805
   72MOL    H5124333   1.926   0.060   4.092 -1.0247  0.3695 -2.3227
   72MOL    H5224334   2.042   7.972   3.981 -1.0233  2.2576 -0.4175
   72MOL    C5324335   1.821   7.627   3.805  1.1244  0.1549  1.2984
   72MOL    C5424336   1.725   7.525   3.748  0.2807  0.2111 -0.2120
   72MOL    C5524337   1.802   7.410   3.694  0.3035  0.4471 -0.5232
   72MOL    C5624338   1.800   7.284   3.752  0.0952 -0.1778  0.1087
   72MOL    C5724339   1.865   7.174   3.698 -0.4305  0.1768  0.2356
   72MOL    C5824340   1.939   7.190   3.579  0.6247  0.2140  0.4121
   72MOL    C5924341   1.943   7.314   3.509  0.3641 -0.0514 -0.2078
   72MOL    C6024342   1.867   7.422   3.570  0.2002  0.3593  0.5554
   72MOL    O6124343   1.639   7.497   3.863 -0.7811 -0.2661  0.0671
   72MOL    H6224344   1.762   7.719   3.811 -2.3134 -1.9018  0.3257
   72MOL    H6324345   1.892   7.651   3.726  0.5861  0.1365  0.8069
   72MOL    H6424346   1.663   7.568   3.670 -0.5959 -1.9664 -0.7434
   72MOL    H6524347   1.738   7.267   3.839 -1.0933 -0.5552 -0.8066
   72MOL    H6624348   1.866   7.082   3.754 -1.2156  0.5043  0.7904
   72MOL    H6724349   2.001   7.111   3.538 -1.2212  0.0383 -2.1947
   72MOL    H6824350   1.984   7.323   3.410 -0.8826  1.4177 -0.6189
   72MOL    H6924351   1.857   7.517   3.519  1.7951 -0.1792 -0.8073
   72MOL    C7024352   1.499   7.505   3.843  0.0806  0.2707  0.0016
   72MOL    C7124353   1.414   7.471   3.963  0.2091 -0.9640 -0.3006
   72MOL    C7224354   1.453   7.342   4.029 -0.1081  0.9604  0.0106
   72MOL    C7324355   1.436   7.222   3.951 -0.9523 -0.4775 -0.6286
   72MOL    C7424356   1.498   7.103   4.002 -0.2911  0.4694  0.2159
   72MOL    C7524357   1.575   7.103   4.119  0.2046 -0.1996  0.1807
   72MOL    C7624358   1.583   7.217   4.200  0.3513 -0.2025  0.4841
   72MOL    C7724359   1.520   7.337   4.155 -0.1489  0.4092  0.0774
   72MOL    O7824360   1.285   7.468   3.898  0.2730  0.2260 -0.0699
   72MOL    H7924361   1.478   7.602   3.800  0.3540  0.3972  0.1509
   72MOL    H8024362   1.472   7.427   3.772  1.4462 -1.7956  1.6779
   72MOL    H8124363   1.419   7.557   4.031 -0.0155  1.6597 -3.4799
   72MOL    H8224364   1.387   7.229   3.855 -1.0612 -0.6643 -0.5863
   72MOL    H8324365   1.484   7.014   3.942 -0.8942  0.4662  0.3499
   72MOL    H8424366   1.634   7.016   4.146 -1.1201 -1.4113 -0.7558
   72MOL    H8524367   1.641   7.213   4.291 -0.2934 -0.7308  0.8733
   72MOL    H8624368   1.516   7.424   4.219 -0.5284  0.5570 -0.1446
   72MOL    C8724369   1.175   7.448   3.989 -0.2185 -0.3357  0.0215
   72MOL    C8824370   1.103   7.570   4.045  0.8059  0.7060  0.9248
   72MOL    C8924371   1.038   7.645   3.924 -0.8023 -0.2875  0.5533
   72MOL    C9024372   0.921   7.604   3.862 -0.2800  0.1159 -0.4719
   72MOL    C9124373   0.869   7.674   3.751 -0.0557  0.4904  0.2985
   72MOL    C9224374   0.941   7.783   3.690  0.6972 -0.4280  0.2055
   72MOL    C9324375   1.055   7.824   3.764 -0.3119 -0.1068  0.6870
   72MOL    C9424376   1.101   7.758   3.872 -0.3060  0.4087 -0.8223
   72MOL    O9524377   1.190   7.643   4.132 -0.0973  0.2606  0.0042
   72MOL    H9624378   1.221   7.390   4.069  0.5280 -0.5576 -0.5638
   72MOL    H9724379   1.111   7.384   3.928  0.7100 -1.6100  0.3739
   72MOL    H9824380   1.015   7.541   4.101 -0.2381  2.9241  0.5155
   72MOL    H9924381   0.860   7.526   3.904  2.0638 -1.7556 -0.4652
   72MOL   H10024382   0.788   7.628   3.695 -0.4891 -1.0877  2.1822
   72MOL   H10124383   0.913   7.818   3.592 -1.2668  0.5583  1.0844
   72MOL   H10224384   1.106   7.906   3.716  0.2183 -1.5182 -1.2030
   72MOL   H10324385   1.199   7.779   3.915 -0.7453 -1.2309  1.0629
   72MOL   C10424386   1.129   7.744   4.210  0.5157 -0.3975 -0.1856
   72MOL   C10524387   1.228   7.849   4.253  0.1033  0.5665 -0.6263
   72MOL   C10624388   1.283   7.922   4.135 -0.0773  0.2497  0.0718
   72MOL   C10724389   1.232   8.052   4.094  0.3407 -0.4002 -0.0240
   72MOL   C10824390   1.288   0.032   3.984 -0.9224  0.0151 -0.5745
   72MOL   C10924391   1.387   8.046   3.911 -0.0903 -0.6644 -0.1508
   72MOL   C11024392   1.454   7.934   3.966 -0.4579 -0.1281 -0.1339
   72MOL   C11124393   1.398   7.869   4.074 -0.3065  0.5551  0.3031
   72MOL   O11224394   1.168   7.937   4.340  0.0595 -0.3352  0.2634
   72MOL   H11324395   1.043   7.788   4.159 -1.0557 -1.4960  1.4645
   72MOL   H11424396   1.088   7.701   4.302 -3.0739  0.6717 -1.1765
   72MOL   H11524397   1.304   7.791   4.306  0.4701  1.0021 -0.6680
   72MOL   H11624398   1.149   0.016   4.147  1.2673 -0.3086  1.3781
   72MOL   H11724399   1.249   0.122   3.939 -0.8933  0.7146  0.7858
   72MOL   H11824400   1.429   8.078   3.817  0.9970 -3.9379 -0.8500
   72MOL   H11924401   1.541   7.890   3.919 -0.9006 -0.7282 -0.3949
   72MOL   H12024402   1.440   7.775   4.109 -2.5737 -0.8924 -0.7686
   72MOL   C12124403   1.265   8.007   4.415  0.3147 -0.0196 -0.5667
   72MOL   C12224404   1.213   0.021   4.519  0.2646  0.5605  0.2741
   72MOL   C12324405   1.128   0.134   4.457  0.4226 -0.2815  0.4457
   72MOL   C12424406   0.988   0.129   4.452 -0.1955  0.1395  0.0442
   72MOL   C12524407   0.910   0.248   4.416  0.4863 -0.0378 -0.4324
   72MOL   C12624408   0.977   0.369   4.392 -0.1967 -0.8035 -0.6957
   72MOL   C12724409   1.116   0.373   4.385  0.0442 -0.0507  0.0825
   72MOL   C12824410   1.191   0.258   4.418 -0.2056  0.5602 -0.4632
   72MOL   O12924411   1.134   8.027   4.608  0.3084 -0.1227  0.0185
   72MOL   H13024412   1.315   8.068   4.341  0.4690 -0.2604 -0.6617
   72MOL   H13124413   1.324   7.936   4.473 -1.1336 -0.2962  0.6353
   72MOL   H13224414   1.301   0.067   4.564  0.4828  1.2960 -0.9094
   72MOL   H13324415   0.944   0.033   4.473  3.6479 -1.5179  0.9134
   72MOL   H13424416   0.802   0.246   4.417  0.4948 -1.2167 -0.8119
   72MOL   H13524417   0.929   0.465   4.380  1.4806  0.2710  0.8192
   72MOL   H13624418   1.161   0.463   4.347 -1.3997  1.2156  1.2711
   72MOL   H13724419   1.298   0.270   4.423 -0.4416  2.8747 -0.3799
   72MOL   C13824420   1.089   8.079   4.730 -0.5802  0.1228 -0.0316
   72MOL   C13924421   1.174   8.013   4.841 -0.5890  0.5263  0.5499
   72MOL   C14024422   1.166   7.864   4.850 -0.1240  0.2480  0.3306
   72MOL   C14124423   1.073   7.794   4.940 -0.4542  0.8124  1.1098
   72MOL   C14224424   1.051   7.660   4.922 -0.0627  0.2256  0.0517
   72MOL   C14324425   1.127   7.582   4.838 -0.2304  0.6938 -0.0923
   72MOL   C14424426   1.224   7.644   4.763 -0.0069 -0.3926  0.1253
   72MOL   C14524427   1.237   7.787   4.765 -0.7806 -0.5438  0.4538
   72MOL   O14624428   1.309   8.057   4.820 -0.4475  0.3829  0.0044
   72MOL   H14724429   0.984   8.052   4.744 -0.4691  0.0032  0.5828
   72MOL   H14824430   1.111   0.105   4.717  0.4350 -0.2125 -1.0981
   72MOL   H14924431   1.145   8.053   4.938  2.4847  2.2189  0.8377
   72MOL   H15024432   0.996   7.850   4.991 -2.0714  2.2054 -2.6359
   72MOL   H15124433   0.979   7.598   4.973  1.0577 -1.1153  0.0294
   72MOL   H15224434   1.130   7.474   4.838  1.2388  0.7145 -1.0599
   72MOL   H15324435   1.295   7.586   4.706  0.3701  2.1475 -2.0929
   72MOL   H15424436   1.311   7.840   4.707 -0.1515 -0.9074  0.9185
   72MOL   C15524437   1.397   8.050   4.931 -0.8798 -0.5621  0.8529
   72MOL   C15624438   1.542   8.079   4.891  0.5293 -0.0328 -0.1753
   72MOL   C15724439   1.587   7.990   4.775  0.3984 -0.5185  0.0557
   72MOL   C15824440   1.580   8.034   4.642 -0.4937 -0.7294 -0.2524
   72MOL   C15924441   1.638   7.958   4.542 -0.3470 -1.1521  0.2891
   72MOL   C16024442   1.684   7.824   4.572 -0.5943  0.2635  0.6950
   72MOL   C16124443   1.688   7.777   4.704  0.9167  0.3563  0.1584
   72MOL   C16224444   1.636   7.860   4.805  0.2484 -0.1233 -0.1110
   72MOL   O16324445   1.543   0.133   4.857  0.8142 -0.3824  0.1740
   72MOL   H16424446   1.388   7.950   4.973  0.3717 -1.1402 -0.2244
   72MOL   H16524447   1.375   0.038   5.013  1.1050 -0.9886  1.7537
   72MOL   H16624448   1.611   8.061   4.973  0.7262  3.4080  0.4676
   72MOL   H16724449   1.542   0.053   4.619  1.6206  0.0879 -0.2712
   72MOL   H16824450   1.641   7.991   4.439 -1.2439  0.3999  0.7462
   72MOL   H16924451   1.719   7.761   4.491  0.1872  0.0797  1.1745
   72MOL   H17024452   1.722   7.677   4.727 -0.8734 -0.2107  0.4266
   72MOL   H17124453   1.624   7.831   4.908 -2.0867  0.9248 -0.0567
   72MOL   C17224454   1.661   0.203   4.837 -0.3073  0.4977  0.4714
   72MOL   C17324455   1.652   0.353   4.849 -0.4431  0.0583 -0.0138
   72MOL   C17424456   1.595   0.387   4.982 -0.8991  0.2182 -0.1507
   72MOL   C17524457   1.457   0.358   5.023  0.1360 -0.4557  0.1292
   72MOL   C17624458   1.399   0.411   5.136  0.6491  0.7353 -0.1811
   72MOL   C17724459   1.486   0.474   5.225 -0.1857  0.7539 -0.0133
   72MOL   C17824460   1.619   0.495   5.194 -0.1598  0.9744 -0.0254
   72MOL   C17924461   1.672   0.459   5.075  0.1038  0.6405  0.2499
   72MOL   O18024462   1.573   0.400   4.741  0.3887  0.1150  0.2630
   72MOL   H18124463   1.734   0.166   4.909  0.0238  0.8975  0.3450
   72MOL   H18224464   1.712   0.191   4.741 -1.7064 -0.5671 -0.1437
   72MOL   H18324465   1.758   0.377   4.837 -0.1759 -1.5711 -1.0642
   72MOL   H18424466   1.393   0.308   4.952  1.4851  1.0254 -2.2075
   72MOL   H18524467   1.293   0.392   5.147  0.6141  1.8862  1.6264
   72MOL   H18624468   1.446   0.515   5.316  0.4644  2.0516 -0.3037
   72MOL   H18724469   1.684   0.545   5.264  1.2734 -1.0223  0.1378
   72MOL   H18824470   1.775   0.480   5.051  0.0027  2.4265  1.2880
   72MOL   C18924471   1.587   0.538   4.702 -0.4244  0.0332  0.1855
   72MOL   C19024472   1.492   0.546   4.578 -0.1660 -0.9400  0.3836
   72MOL   C19124473   1.342   0.537   4.608  0.3471  0.1804  0.2731
   72MOL   C19224474   1.251   0.642   4.567 -1.2198  0.1617  0.1276
   72MOL   C19324475   1.116   0.649   4.594  0.2672 -0.2779  0.4635
   72MOL   C19424476   1.062   0.547   4.673 -0.2045 -0.0962  0.3835
   72MOL   C19524477   1.145   0.439   4.714  0.3926 -0.6720  0.2195
   72MOL   C19624478   1.280   0.431   4.683 -0.3732  0.1769 -0.2837
   72MOL   O19724479   1.529   0.446   4.484 -0.0954 -0.1311 -0.0368
   72MOL   H19824480   1.561   0.606   4.783 -1.1422  0.9380 -0.7859
   72MOL   H19924481   1.692   0.549   4.677 -1.0587  1.0134 -2.2098
   72MOL   H20024482   1.518   0.645   4.542  0.3757 -1.4726 -0.7235
   72MOL   H20124483   1.290   0.718   4.502 -2.8726 -0.0083 -1.1064
   72MOL   H20224484   1.047   0.729   4.572  0.0616 -0.6934 -0.4225
   72MOL   H20324485   0.957   0.552   4.695  0.0677  0.8212  1.5299
   72MOL   H20424486   1.102   0.348   4.752 -0.4599 -1.7974 -3.2565
   72MOL   H20524487   1.335   0.343   4.715  1.1516  1.1010 -0.3309
   72MOL   C20624488   1.512   0.481   4.344 -0.1971  0.5423 -0.1692
   72MOL   C20724489   1.562   0.357   4.266 -0.0087  0.7273  0.2030
   72MOL   C20824490   1.704   0.315   4.302  0.1310 -0.3513 -0.1639
   72MOL   C20924491   1.814   0.354   4.224  0.1662  0.1711  0.0754
   72MOL   C21024492   1.944   0.336   4.270  0.1892  0.3572  0.4646
   72MOL   C21124493   1.967   0.272   4.394  0.5131 -0.4478  0.0415
   72MOL   C21224494   1.864   0.210   4.461  0.2460  0.7055 -0.2014
   72MOL   C21324495   1.732   0.235   4.419  0.2613  0.1390 -0.1213
   72MOL   O21424496   1.552   0.388   4.125 -0.2528  0.1084  0.0305
   72MOL   H21524497   1.407   0.502   4.325 -0.6419 -2.5260 -1.3356
   72MOL   H21624498   1.573   0.571   4.335  0.1784  0.4402  1.3104
   72MOL   H21724499   1.502   0.275   4.306  1.0646 -0.1919 -0.0677
   72MOL   H21824500   1.793   0.397   4.127  0.2350  0.4350  0.1774
   72MOL   H21924501   2.035   0.350   4.213  1.4370 -0.9355  2.0860
   72MOL   H22024502   2.065   0.261   4.438  0.6296 -1.8724 -0.5824
   72MOL   H22124503   1.882   0.150   4.549 -1.4237  0.6453  0.1157
   72MOL   H22224504   1.652   0.187   4.472  1.5660 -2.0738 -0.1110
   72MOL   C22324505   1.523   0.277   4.051 -0.2636  0.3907  0.6538
   72MOL   C22424506   1.527   0.300   3.895 -0.8048  0.9552 -0.4730
   72MOL   C22524507   1.432   0.410   3.838  0.1568 -0.1615  0.4626
   72MOL   C22624508   1.470   0.481   3.719 -0.5491 -0.3379 -0.0029
   72MOL   C22724509   1.390   0.585   3.670  0.4088 -0.4669  0.6503
   72MOL   C22824510   1.274   0.614   3.740  0.0868  0.5143 -0.0241
   72MOL   C22924511   1.231   0.537   3.844  0.1890 -0.6543  0.0496
   72MOL   C23024512   1.311   0.433   3.899 -0.1972  0.6320 -0.4416
   72MOL   O23124513   1.662   0.310   3.850 -0.0080  0.0234 -0.1887
   72MOL   H23224514   1.596   0.203   4.083  0.3806  1.2909  1.2839
   72MOL   H23324515   1.429   0.229   4.079  0.5620 -1.1116  0.9115
   72MOL   H23424516   1.481   0.208   3.860 -0.6144  0.6799  0.0109
   72MOL   H23524517   1.554   0.447   3.660 -1.4325 -1.9788 -0.3560
   72MOL   H23624518   1.414   0.630   3.575 -1.4303  1.7690  1.1908
   72MOL   H23724519   1.229   0.702   3.696 -1.4083 -0.1034  0.2234
   72MOL   H23824520   1.147   0.567   3.905  1.6736  0.8954  1.3914
   72MOL   H23924521   1.272   0.385   3.988 -0.6794 -1.5650 -1.8148
   72MOL   C24024522   1.724   0.187   3.828 -0.3751 -0.4108 -0.0479
   72MOL   C24124523   1.727   0.163   3.677 -0.5596  0.0937 -0.7922
   72MOL   C24224524   1.809   0.037   3.645 -0.2698 -0.1987  0.5089
   72MOL   C24324525   1.748   8.005   3.594  0.3743 -0.5465 -0.5284
   72MOL   C24424526   1.821   7.884   3.569 -0.1100  0.0836 -0.5480
   72MOL   C24524527   1.958   7.883   3.593 -0.4884  0.1812  0.2319
   72MOL   C24624528   2.020   8.006   3.620  0.2425  0.2106  0.0075
   72MOL   C24724529   1.946   0.038   3.651  0.0498 -0.0588  0.7380
   72MOL   O24824530   1.591   0.146   3.630 -0.2269 -0.2811 -0.1662
   72MOL   H24924531   1.821   0.195   3.878 -0.6115  0.0887  0.3279
   72MOL   H25024532   1.668   0.107   3.877 -0.8610 -1.0082 -1.5231
   72MOL   H25124533   1.778   0.251   3.637  2.5893 -1.7773 -1.0576
   72MOL   H25224534   1.642   8.009   3.577  0.3184 -2.8053 -0.9329
   72MOL   H25324535   1.763   7.796   3.547 -0.9982  0.0575  1.7268
   72MOL   H25424536   2.009   7.789   3.602 -0.6399  0.0745 -0.0411
   72MOL   H25524537   2.125   8.003   3.645  0.0276 -0.8690  0.8281
   72MOL   H25624538   1.992   0.135   3.668 -1.1168  0.5224  0.6291
   72MOL   C25724539   1.578   0.179   3.494  0.0329  0.6352 -0.2497
   72MOL   C25824540   1.446   0.118   3.438  0.2993 -0.7012 -0.3274
   72MOL   C25924541   1.445   8.053   3.431  0.4520  0.3709 -0.4087
   72MOL   C26024542   1.375   7.977   3.531 -0.7552 -0.2348  0.5151
   72MOL   C26124543   1.369   7.835   3.519  0.8912 -0.6321 -0.1259
   72MOL   C26224544   1.433   7.775   3.406 -0.5671 -0.3349 -0.2028
   72MOL   C26324545   1.503   7.851   3.311  0.0766 -0.1810 -0.0444
   72MOL   C26424546   1.509   7.990   3.319 -0.2445  0.1618  0.2876
   72MOL   O26524547   1.426   0.177   3.311  0.3740  0.0320 -0.2360
   72MOL   H26624548   1.665   0.154   3.434 -0.1955 -0.1206 -0.2801
   72MOL   H26724549   1.565   0.287   3.491 -0.9220  0.5588  0.5098
   72MOL   H26824550   1.359   0.145   3.498 -0.2399 -1.4896 -0.7429
   72MOL   H26924551   1.335   8.024   3.620  2.0874  3.5253 -0.0826
   72MOL   H27024552   1.310   7.772   3.585 -0.5527 -0.2602 -1.0429
   72MOL   H27124553   1.437   7.671   3.380 -0.0220 -0.0893 -1.1112
   72MOL   H27224554   1.549   7.794   3.232 -0.4401  0.3854 -0.7627
   72MOL   H27324555   1.550   8.056   3.244 -0.7902  1.2514  0.9378
   72MOL   C27424556   1.354   0.297   3.313 -0.2034  0.0265 -0.0022
   72MOL   C27524557   1.383   0.372   3.182  0.3932  0.2999  0.3541
   72MOL   C27624558   1.374   0.286   3.059 -0.1357 -0.5623 -0.3442
   72MOL   C27724559   1.254   0.274   2.996 -0.0287  0.6871  0.4063
   72MOL   C27824560   1.239   0.182   2.891 -0.2357  0.3774  0.1213
   72MOL   C27924561   1.352   0.122   2.834 -0.4340  1.2164  0.4726
   72MOL   C28024562   1.477   0.140   2.895  0.2378  0.5174 -0.3249
   72MOL   C28124563   1.487   0.222   3.011  0.1343 -0.0352 -0.1698
   72MOL   O28224564   1.502   0.447   3.183  0.7043  0.3151  0.1946
   72MOL   H28324565   1.252   0.259   3.320 -0.5804  1.4588  2.6079
   72MOL   H28424566   1.364   0.364   3.398 -1.0393  1.6813 -1.1786
   72MOL   H28524567   1.307   0.451   3.182 -0.4189 -0.4216 -3.0243
   72MOL   H28624568   1.164   0.317   3.038 -0.2018 -1.3664  2.2549
   72MOL   H28724569   1.142   0.179   2.844 -0.4366  1.1082  0.4822
   72MOL   H28824570   1.344   0.045   2.759  0.0820  0.9677  0.6665
   72MOL   H28924571   1.566   0.083   2.870 -1.1261 -2.4666  1.3462
   72MOL   H29024572   1.580   0.238   3.064 -0.5949  1.8883  0.5857
   72MOL   C29124573   1.496   0.587   3.190 -0.2414 -0.7813  0.2375
   72MOL   C29224574   1.634   0.667   3.185  0.4014  0.0135  0.0239
   72MOL   C29324575   1.747   0.617   3.280  0.0797  0.1863  0.2159
   72MOL   C29424576   1.753   0.485   3.332  0.5095  0.1686  0.3896
   72MOL   C29524577   1.862   0.453   3.410  0.1436  0.4945 -0.5858
   72MOL   C29624578   1.957   0.551   3.441 -0.6745  0.0342  0.1486
   72MOL   C29724579   1.954   0.680   3.395  0.6270  0.1221  0.2182
   72MOL   C29824580   1.840   0.717   3.319  1.0048 -0.0779  0.2481
   72MOL   O29924581   1.687   0.687   3.053 -0.0620 -0.1639 -0.2252
   72MOL   H30024582   1.442   0.599   3.284 -2.9173 -0.7593 -1.2714
   72MOL   H30124583   1.428   0.629   3.116 -1.5060 -1.4673  1.0053
   72MOL   H30224584   1.607   0.764   3.227 -0.0309  0.5384 -1.4589
   72MOL   H30324585   1.690   0.401   3.307  1.2097  0.1033 -1.2402
   72MOL   H30424586   1.868   0.363   3.469 -2.1621  0.5585 -0.2195
   72MOL   H30524587   2.036   0.520   3.508 -0.4313  1.2832  0.4485
   72MOL   H30624588   2.033   0.749   3.422  0.0709  0.5264  0.8252
   72MOL   H30724589   1.832   0.820   3.289  0.5439 -0.2772 -0.3163
   72MOL   C30824590   1.741   0.578   2.982  0.2484 -0.2042  0.7242
   72MOL   C30924591   1.718   0.599   2.833 -0.3343  0.0663 -0.9506
   72MOL   C31024592   1.564   0.585   2.796 -0.9548  0.1382 -0.3995
   72MOL   C31124593   1.475   0.696   2.818 -1.1312 -0.2639  0.7697
   72MOL   C31224594   1.343   0.685   2.777 -0.2963 -0.4571  0.2099
   72MOL   C31324595   1.295   0.569   2.713  0.6958  0.0037 -0.1292
   72MOL   C31424596   1.385   0.461   2.689  0.7976 -0.3074  0.7907
   72MOL   C31524597   1.519   0.469   2.731 -0.2244  0.0615  0.1976
   72MOL   O31624598   1.783   0.717   2.785 -0.0085  0.0644  0.2280
   72MOL   H31724599   1.696   0.484   3.013  0.7674 -1.5469 -2.4023
   72MOL   H31824600   1.849   0.573   2.999  0.4624 -1.4187 -0.7826
   72MOL   H31924601   1.766   0.522   2.773  3.4355  2.8227 -1.6577
   72MOL   H32024602   1.510   0.780   2.876  1.2056 -0.9947  0.4581
   72MOL   H32124603   1.285   0.774   2.794  2.1321  1.2670 -0.2587
   72MOL   H32224604   1.192   0.564   2.680  0.7656 -0.9306 -0.2199
   72MOL   H32324605   1.347   0.373   2.639  2.1625 -0.7257  0.4723
   72MOL   H32424606   1.591   0.392   2.706 -0.5704  0.4682 -2.1032
   72MOL   C32524607   1.796   0.733   2.641  0.5161  0.4198 -0.7017
   72MOL   C32624608   1.866   0.863   2.593 -0.7269 -0.4484 -0.5630
   72MOL   C32724609   1.814   0.989   2.661  0.6087  0.1756  0.5342
   72MOL   C32824610   1.752   1.089   2.582  0.0506 -0.3284  0.2484
   72MOL   C32924611   1.698   1.208   2.643  0.5323 -0.7800 -0.2374
   72MOL   C33024612   1.702   1.223   2.782 -0.3362 -0.6487  0.0525
   72MOL   C33124613   1.752   1.121   2.859  0.3829  0.3616 -0.5379
   72MOL   C33224614   1.822   1.011   2.802  0.4951  0.2270 -0.0810
   72MOL   O33324615   1.998   0.847   2.636  0.2145  0.3852  0.6379
   72MOL   H33424616   1.696   0.734   2.600 -0.9256  2.0226  2.6521
   72MOL   H33524617   1.851   0.646   2.605 -0.9075 -0.3096 -1.1414
   72MOL   H33624618   1.872   0.878   2.485  0.0798 -0.7603 -0.5638
   72MOL   H33724619   1.754   1.079   2.475  0.1728  1.6055  0.0498
   72MOL   H33824620   1.660   1.291   2.585  0.7949 -1.0311 -0.7687
   72MOL   H33924621   1.655   1.314   2.816  0.0577 -0.4479  0.0659
   72MOL   H34024622   1.741   1.124   2.966  2.6712  0.5879 -0.3018
   72MOL   H34124623   1.863   0.939   2.872  2.4017  1.9454  0.6055
   72MOL   H34224624   1.987   0.799   2.716 -2.7450  0.4501  0.3273
   73MOL     C124625   1.822   3.775   6.404  0.6781 -0.2264 -0.2278
   73MOL     C224626   1.797   3.723   6.546  0.0737 -0.3431  0.2659
   73MOL     C324627   1.709   3.593   6.548 -0.3350  0.2147  0.2670
   73MOL     C424628   1.570   3.611   6.562  0.7106 -0.4947 -0.2428
   73MOL     C524629   1.485   3.503   6.547 -0.4527  0.6436 -0.0995
   73MOL     C624630   1.539   3.374   6.522  0.9022  0.8048  0.0121
   73MOL     C724631   1.677   3.358   6.501  0.2490 -0.3054 -0.2205
   73MOL     C824632   1.764   3.463   6.521  0.2345 -0.7401 -0.2150
   73MOL     O924633   1.732   3.829   6.613 -0.1464  0.1599  0.1834
   73MOL    H1024634   1.857   3.878   6.401 -2.3644  0.9736  2.4273
   73MOL    H1124635   1.895   3.711   6.354  1.4619  0.4110  0.0951
   73MOL    H1224636   1.899   3.716   6.585  0.1556  1.4433  0.4047
   73MOL    H1324637   1.519   3.705   6.580  0.4690 -0.7166  0.2425
   73MOL    H1424638   1.378   3.516   6.556 -0.5244  1.0300 -1.3635
   73MOL    H1524639   1.466   3.295   6.514  1.0827  0.6470 -0.0769
   73MOL    H1624640   1.729   3.264   6.494 -0.0151 -0.7410  2.8224
   73MOL    H1724641   1.868   3.443   6.502 -0.0305 -2.8574  0.4304
   73MOL    H1824642   1.728   3.777   6.349  0.3590 -2.5475  0.1682
   73MOL    C1924643   1.731   3.835   6.753  0.3304 -0.0953 -0.0795
   73MOL    C2024644   1.607   3.923   6.785 -0.2278 -0.0417  0.1739
   73MOL    C2124645   1.651   4.069   6.810  0.6003  0.1239  0.1976
   73MOL    C2224646   1.619   4.141   6.931  0.5185  0.3823  0.7696
   73MOL    C2324647   1.642   4.281   6.940  0.1301  0.1356 -0.4725
   73MOL    C2424648   1.688   4.357   6.831 -0.0638 -0.1982  0.2733
   73MOL    C2524649   1.728   4.287   6.714  0.7231  0.6564 -0.3808
   73MOL    C2624650   1.712   4.148   6.708 -0.2582 -0.1620  0.0730
   73MOL    O2724651   1.516   3.872   6.884 -0.3510 -0.2438 -0.1716
   73MOL    H2824652   1.718   3.732   6.787  2.9754 -0.9671 -1.5704
   73MOL    H2924653   1.826   3.864   6.798 -0.0573  1.0479  0.0037
   73MOL    H3024654   1.548   3.926   6.693  0.9953  0.6488 -0.5941
   73MOL    H3124655   1.566   4.090   7.011  1.5141 -1.4495  0.2767
   73MOL    H3224656   1.613   4.330   7.032 -0.5449  1.1427 -1.2081
   73MOL    H3324657   1.705   4.463   6.832  0.2815 -0.2519  0.3889
   73MOL    H3424658   1.758   4.339   6.625  2.0410  1.3826  0.4836
   73MOL    H3524659   1.726   4.105   6.610  0.3690 -3.4038  1.5046
   73MOL    C3624660   1.444   3.758   6.856  0.4645 -0.2476 -0.1305
   73MOL    C3724661   1.357   3.732   6.973  0.0779  0.0018  0.0263
   73MOL    C3824662   1.430   3.714   7.105  0.5009  0.5199 -0.0990
   73MOL    C3924663   1.490   3.817   7.183 -0.4876 -0.1723  0.5154
   73MOL    C4024664   1.555   3.800   7.305  0.4456  0.0712 -0.7744
   73MOL    C4124665   1.583   3.669   7.340  0.1141  0.6552 -0.8922
   73MOL    C4224666   1.536   3.564   7.258  0.1581 -1.1811 -0.5401
   73MOL    C4324667   1.457   3.583   7.148 -0.3467  0.4026 -0.8167
   73MOL    O4424668   1.268   3.625   6.948 -0.4290 -0.5902 -0.4676
   73MOL    H4524669   1.381   3.778   6.768 -1.9283 -1.3254  1.2733
   73MOL    H4624670   1.498   3.670   6.822 -0.4350 -1.2408  0.9725
   73MOL    H4724671   1.300   3.825   6.977  0.4516  0.3463 -2.0996
   73MOL    H4824672   1.477   3.916   7.141  3.3462  0.3520  0.3759
   73MOL    H4924673   1.611   3.879   7.353 -1.1791 -0.0961  1.4773
   73MOL    H5024674   1.632   3.643   7.434 -1.9357  0.3289  0.1115
   73MOL    H5124675   1.553   3.463   7.293  0.7116 -0.2182  2.0492
   73MOL    H5224676   1.437   3.499   7.084  0.1322  0.5545 -1.1763
   73MOL    C5324677   1.148   3.636   7.017  0.1895  0.5329  0.4897
   73MOL    C5424678   1.045   3.639   6.905  0.2260  0.4747 -0.1130
   73MOL    C5524679   0.898   3.642   6.963 -0.0302 -0.1686  0.5859
   73MOL    C5624680   0.827   3.757   6.980  0.5932  0.4165 -0.6200
   73MOL    C5724681   0.697   3.754   7.034 -0.4337  0.5553  0.0024
   73MOL    C5824682   0.634   3.630   7.065 -0.2523  0.3412  0.3630
   73MOL    C5924683   0.710   3.510   7.045 -0.8713 -0.4416 -0.1851
   73MOL    C6024684   0.845   3.518   6.999  0.1455  0.3390 -0.2665
   73MOL    O6124685   1.058   3.763   6.831  0.1709 -0.1928  0.7607
   73MOL    H6224686   1.134   3.557   7.091 -1.1232 -0.0333 -0.3307
   73MOL    H6324687   1.125   3.726   7.074  0.5777  0.5158  0.6728
   73MOL    H6424688   1.046   3.546   6.849  0.4544  0.9135 -0.8384
   73MOL    H6524689   0.874   3.851   6.954  0.0685  0.8019 -0.1916
   73MOL    H6624690   0.647   3.847   7.056 -0.9914  0.0392  0.9631
   73MOL    H6724691   0.533   3.623   7.105 -0.7956 -0.4128 -1.0998
   73MOL    H6824692   0.655   3.419   7.065 -0.5946 -0.9023 -1.4366
   73MOL    H6924693   0.905   3.430   6.981 -0.4392  0.2380 -1.8083
   73MOL    C7024694   1.034   3.758   6.689  0.6281  0.1071 -0.1421
   73MOL    C7124695   1.009   3.897   6.631  0.2929 -0.0850 -0.0729
   73MOL    C7224696   1.129   3.985   6.620  0.9643  0.1014 -0.0801
   73MOL    C7324697   1.181   4.015   6.489  0.0679 -0.4628 -0.0196
   73MOL    C7424698   1.294   4.099   6.482 -0.1218 -0.3794 -0.0794
   73MOL    C7524699   1.360   4.138   6.598 -0.2584  0.7987  0.0858
   73MOL    C7624700   1.315   4.100   6.727  0.2130 -0.4104 -0.0345
   73MOL    C7724701   1.195   4.030   6.734 -0.0030  0.2913 -0.0996
   73MOL    O7824702   0.910   3.964   6.709  0.6759  0.3003 -0.0462
   73MOL    H7924703   1.119   3.712   6.638  1.8606  0.2688  1.6983
   73MOL    H8024704   0.951   3.692   6.665  1.7586 -1.1903 -0.5745
   73MOL    H8124705   0.963   3.876   6.534  1.6795 -2.6285 -0.2098
   73MOL    H8224706   1.125   3.983   6.403  1.2719 -1.5446 -0.4050
   73MOL    H8324707   1.328   4.129   6.384  0.3730  0.0156  0.2087
   73MOL    H8424708   1.450   4.196   6.580 -0.2250  0.5851 -0.4680
   73MOL    H8524709   1.363   4.129   6.819 -1.0459 -0.7581  0.7496
   73MOL    H8624710   1.149   4.012   6.829  1.4961 -1.1165  0.3756
   73MOL    C8724711   0.772   3.925   6.698  0.0532  0.9021  0.2685
   73MOL    C8824712   0.710   4.000   6.584  0.5451  0.0606  0.3616
   73MOL    C8924713   0.689   4.144   6.612 -0.1131 -0.8862 -0.3368
   73MOL    C9024714   0.562   4.185   6.644 -0.3151 -0.1282 -0.3672
   73MOL    C9124715   0.550   4.323   6.677 -0.0627 -0.9723 -0.3171
   73MOL    C9224716   0.658   4.416   6.678 -0.2741 -0.2525  0.4775
   73MOL    C9324717   0.783   4.373   6.633  0.2368  0.4144 -0.0666
   73MOL    C9424718   0.796   4.236   6.590  0.5112 -0.1057 -0.2248
   73MOL    O9524719   0.594   3.948   6.528 -0.0760  0.3120 -0.1596
   73MOL    H9624720   0.726   3.946   6.794  0.3330 -1.4645  0.9721
   73MOL    H9724721   0.769   3.818   6.677 -0.7451  1.1432 -0.8690
   73MOL    H9824722   0.778   4.001   6.499  1.5727  1.5702  1.1920
   73MOL    H9924723   0.477   4.118   6.642 -0.7821  0.4951 -1.5075
   73MOL   H10024724   0.454   4.353   6.716  0.6093  1.7559 -0.6409
   73MOL   H10124725   0.645   4.520   6.703  0.8504 -0.2245  1.0062
   73MOL   H10224726   0.860   4.449   6.625  1.2264 -0.5762 -0.0571
   73MOL   H10324727   0.889   4.201   6.547 -0.4349  0.5023 -2.8759
   73MOL   C10424728   0.603   3.821   6.460 -0.5611  0.4849  0.4356
   73MOL   C10524729   0.537   3.844   6.321 -0.2467  0.2919  0.4748
   73MOL   C10624730   0.389   3.885   6.330  0.0558 -0.1973 -0.8707
   73MOL   C10724731   0.353   4.018   6.326  0.2258  0.6019 -0.1038
   73MOL   C10824732   0.217   4.054   6.319 -0.6213 -0.6300 -0.2827
   73MOL   C10924733   0.114   3.953   6.318 -0.2451 -0.5357  0.4127
   73MOL   C11024734   0.149   3.818   6.336 -0.6741 -0.0792 -0.3139
   73MOL   C11124735   0.289   3.789   6.349  0.0588  0.4953  0.2525
   73MOL   O11224736   0.613   3.945   6.251 -0.0183  0.0557 -0.7154
   73MOL   H11324737   0.706   3.785   6.460 -1.2876 -1.6365  0.5417
   73MOL   H11424738   0.542   3.740   6.499 -0.4882 -0.1781 -0.7740
   73MOL   H11524739   0.527   3.748   6.271 -1.6413 -0.0961  1.4613
   73MOL   H11624740   0.429   4.093   6.316 -0.5691  1.7192  1.9879
   73MOL   H11724741   0.196   4.160   6.306  0.1715 -0.5990 -1.4605
   73MOL   H11824742   0.010   3.973   6.298  0.3535 -0.4653 -2.8842
   73MOL   H11924743   0.077   3.738   6.333 -0.6645 -0.0483 -1.7845
   73MOL   H12024744   0.321   3.686   6.360 -0.3622  0.3759  0.3723
   73MOL   C12124745   0.588   3.937   6.109 -0.3767  0.3340  0.2283
   73MOL   C12224746   0.646   4.061   6.034  0.8089  0.3179  0.5799
   73MOL   C12324747   0.787   4.097   6.078  0.2588 -0.0926  0.1086
   73MOL   C12424748   0.821   4.166   6.194 -0.1510  0.6077  0.6014
   73MOL   C12524749   0.956   4.186   6.238 -0.2095  0.4767  0.1067
   73MOL   C12624750   1.061   4.129   6.158  0.3193  0.2442 -0.6303
   73MOL   C12724751   1.028   4.056   6.043  0.1219  0.6988  0.7530
   73MOL   C12824752   0.893   4.052   5.999 -0.0062  0.2704  0.3532
   73MOL   O12924753   0.648   4.034   5.894 -0.1745  0.1220 -0.4718
   73MOL   H13024754   0.484   3.924   6.082 -1.0131  4.0665  0.7119
   73MOL   H13124755   0.629   3.845   6.066 -0.2161  0.9117 -0.8778
   73MOL   H13224756   0.584   4.149   6.052  2.4478  1.6828 -0.3066
   73MOL   H13324757   0.739   4.206   6.253 -1.1147 -0.0136 -0.2938
   73MOL   H13424758   0.980   4.243   6.327  0.0051  0.0036  0.3523
   73MOL   H13524759   1.167   4.136   6.181 -0.1232 -0.8971  1.8630
   73MOL   H13624760   1.107   4.017   5.981 -0.0588 -2.2433  2.2930
   73MOL   H13724761   0.866   4.004   5.906  0.3027  2.6204 -0.9859
   73MOL   C13824762   0.611   4.138   5.804  0.2855  0.2039  0.8872
   73MOL   C13924763   0.661   4.124   5.659  0.2280 -0.1440 -0.3660
   73MOL   C14024764   0.617   3.998   5.588 -0.3333 -0.3357  0.1533
   73MOL   C14124765   0.684   3.878   5.618 -0.2450 -0.3024  0.6084
   73MOL   C14224766   0.651   3.757   5.554  0.1145 -0.4637  0.3795
   73MOL   C14324767   0.554   3.755   5.449 -0.5809 -0.4975  0.7586
   73MOL   C14424768   0.482   3.876   5.421 -0.6377  0.7466  0.8767
   73MOL   C14524769   0.516   3.997   5.485  0.5094 -0.0309 -0.4688
   73MOL   O14624770   0.630   4.240   5.582 -0.5458  0.1754  0.3574
   73MOL   H14724771   0.643   4.233   5.848 -0.1405  0.8702 -0.2165
   73MOL   H14824772   0.502   4.139   5.810  0.3660 -1.3602  3.3107
   73MOL   H14924773   0.769   4.118   5.676  0.2755  1.1614 -0.0881
   73MOL   H15024774   0.759   3.887   5.695  2.2768 -0.9643 -1.6710
   73MOL   H15124775   0.700   3.666   5.586 -0.4647 -0.5644  1.0047
   73MOL   H15224776   0.552   3.672   5.380  0.7525  0.7485 -0.8148
   73MOL   H15324777   0.413   3.884   5.338  2.2201 -2.1779 -1.9011
   73MOL   H15424778   0.467   4.087   5.450 -0.7571  0.1984  1.8167
   73MOL   C15524779   0.722   4.278   5.490 -1.3668 -0.0986  0.2014
   73MOL   C15624780   0.664   4.353   5.362  0.3283  0.0013  0.5181
   73MOL   C15724781   0.633   4.497   5.395 -0.1907 -0.0055  0.0883
   73MOL   C15824782   0.712   4.601   5.340 -0.2459 -0.1098 -0.4089
   73MOL   C15924783   0.694   4.733   5.383 -0.5010 -0.0943 -0.5197
   73MOL   C16024784   0.592   4.763   5.488 -1.1446 -0.4669 -0.6803
   73MOL   C16124785   0.522   4.657   5.545  0.5400  0.3324  0.2827
   73MOL   C16224786   0.534   4.528   5.492  0.0235 -0.1833 -0.1929
   73MOL   O16324787   0.761   4.332   5.266 -0.2365  0.4169 -1.1042
   73MOL   H16424788   0.778   4.190   5.459 -0.2561  0.9035 -0.6593
   73MOL   H16524789   0.790   4.340   5.547 -0.8365 -0.0511 -0.4699
   73MOL   H16624790   0.571   4.306   5.328  0.6930  0.5257 -1.2462
   73MOL   H16724791   0.789   4.574   5.269 -0.6817  0.3428 -1.0641
   73MOL   H16824792   0.756   4.813   5.344  1.8133 -1.3636  0.4891
   73MOL   H16924793   0.577   4.861   5.532 -1.9723 -0.2975 -1.3193
   73MOL   H17024794   0.448   4.679   5.620 -0.8762  2.2037 -1.6093
   73MOL   H17124795   0.478   4.447   5.535 -1.2884  1.7247  1.8119
   73MOL   C17224796   0.728   4.349   5.129  0.3116 -0.1793 -0.5351
   73MOL   C17324797   0.659   4.229   5.063 -0.1915 -0.0158  0.5863
   73MOL   C17424798   0.727   4.096   5.080 -0.2629  0.0644 -0.1345
   73MOL   C17524799   0.708   4.025   5.197  0.2584 -0.0069  0.0521
   73MOL   C17624800   0.771   3.905   5.218 -0.2045 -0.3386 -0.0097
   73MOL   C17724801   0.862   3.852   5.117 -0.1072 -0.4328  0.3849
   73MOL   C17824802   0.887   3.930   5.002  0.1913 -1.1373 -0.2948
   73MOL   C17924803   0.820   4.053   4.979 -0.2151  0.6692 -0.1689
   73MOL   O18024804   0.636   4.256   4.927 -0.4103 -0.4393  0.9212
   73MOL   H18124805   0.660   4.435   5.129 -0.7182 -0.9815 -1.0500
   73MOL   H18224806   0.818   4.380   5.076 -0.1207  1.0692 -0.5732
   73MOL   H18324807   0.566   4.213   5.118 -0.8848  1.1780 -0.2136
   73MOL   H18424808   0.641   4.053   5.277 -1.4135 -0.2622 -1.2173
   73MOL   H18524809   0.754   3.845   5.306  0.8006 -2.2501 -1.0714
   73MOL   H18624810   0.910   3.756   5.119  0.5868 -0.1116 -0.2767
   73MOL   H18724811   0.950   3.893   4.923 -0.0063 -1.2612 -0.3953
   73MOL   H18824812   0.838   4.110   4.888 -2.2292 -0.3761 -1.2343
   73MOL   C18924813   0.503   4.296   4.895 -0.1267 -0.2434  0.8891
   73MOL   C19024814   0.507   4.315   4.742 -0.1262  0.1368  0.0841
   73MOL   C19124815   0.380   4.391   4.695 -0.8251  0.1016  0.0920
   73MOL   C19224816   0.254   4.345   4.734 -0.8225 -0.1573  0.1034
   73MOL   C19324817   0.134   4.412   4.695 -0.2399  0.4735 -0.4219
   73MOL   C19424818   0.143   4.523   4.617 -0.2485  0.4168  0.2142
   73MOL   C19524819   0.267   4.577   4.569 -0.0832  0.1210  0.7584
   73MOL   C19624820   0.385   4.506   4.611  0.2586  0.1837 -0.4676
   73MOL   O19724821   0.507   4.186   4.690  0.0091 -0.1451 -0.7998
   73MOL   H19824822   0.443   4.209   4.922 -2.6041  1.0479 -0.3211
   73MOL   H19924823   0.472   4.390   4.940  1.3821  0.1935  1.0173
   73MOL   H20024824   0.592   4.382   4.729 -0.3561  0.4155  0.0055
   73MOL   H20124825   0.252   4.271   4.812 -0.9063 -0.8543 -0.5526
   73MOL   H20224826   0.037   4.375   4.725  0.2389 -2.1160 -1.9070
   73MOL   H20324827   0.052   4.569   4.582 -0.5864 -1.9446 -2.1467
   73MOL   H20424828   0.276   4.668   4.511 -1.1091 -0.7628 -0.8108
   73MOL   H20524829   0.477   4.531   4.559  1.7747 -1.3639  1.3993
   73MOL   C20624830   0.615   4.175   4.600  0.6285 -0.2126 -0.2616
   73MOL   C20724831   0.629   4.027   4.561  0.6032  0.0213  0.3329
   73MOL   C20824832   0.776   3.993   4.541  0.0675 -0.3634 -0.4237
   73MOL   C20924833   0.847   3.947   4.655 -0.2048  0.1410  0.5093
   73MOL   C21024834   0.984   3.911   4.643  0.3703 -0.4444 -0.8431
   73MOL   C21124835   1.058   3.942   4.530 -0.3504 -0.9178  0.5729
   73MOL   C21224836   0.991   3.993   4.420  0.3220 -0.1981  0.8725
   73MOL   C21324837   0.851   4.010   4.418 -0.1184  0.1589 -0.0351
   73MOL   O21424838   0.553   4.008   4.438 -0.2897 -0.3362 -0.2390
   73MOL   H21524839   0.601   4.241   4.514 -1.8215 -1.1934 -0.6741
   73MOL   H21624840   0.708   4.220   4.634 -0.3126  2.8448 -1.5191
   73MOL   H21724841   0.604   3.968   4.649 -2.6214  1.4540  0.4532
   73MOL   H21824842   0.788   3.933   4.744 -2.4805 -0.0240 -0.9921
   73MOL   H21924843   1.036   3.854   4.719  1.4724  0.2149 -1.0914
   73MOL   H22024844   1.163   3.918   4.518  0.0351  0.7376  0.4881
   73MOL   H22124845   1.038   4.017   4.325  0.4653 -0.3148  0.9143
   73MOL   H22224846   0.797   4.044   4.331  0.7480  0.4175 -0.4785
   73MOL   C22324847   0.412   4.007   4.456  0.5223 -0.3202 -0.4159
   73MOL   C22424848   0.351   4.000   4.312 -0.6535  0.2994 -0.6934
   73MOL   C22524849   0.203   3.960   4.318  0.4445 -0.4548 -0.4497
   73MOL   C22624850   0.111   4.058   4.358  0.0137 -0.7401  0.7307
   73MOL   C22724851   8.054   4.040   4.347 -0.7622  0.4055  0.8492
   73MOL   C22824852   8.003   3.921   4.295  0.4258  0.2106  0.1640
   73MOL   C22924853   0.013   3.823   4.249  0.1972  0.4814 -0.6092
   73MOL   C23024854   0.153   3.845   4.256  0.5385  0.5271 -0.4317
   73MOL   O23124855   0.360   4.131   4.263  0.0456 -0.1811  0.2504
   73MOL   H23224856   0.388   3.920   4.517  1.2030  1.0037  1.7987
   73MOL   H23324857   0.370   4.094   4.506 -0.9871 -2.1597  1.6090
   73MOL   H23424858   0.394   3.921   4.251 -0.3541  0.3352 -0.5298
   73MOL   H23524859   0.145   4.149   4.405 -3.3330  0.8865  0.1264
   73MOL   H23624860   7.983   4.115   4.380  0.4231  1.2371  1.5194
   73MOL   H23724861   7.896   3.918   4.287  0.5725  1.2881 -3.0287
   73MOL   H23824862   8.054   3.727   4.219 -0.3202  0.2464  0.8026
   73MOL   H23924863   0.211   3.761   4.220 -1.5103 -0.2263 -2.0675
   73MOL   C24024864   0.472   4.158   4.177 -0.5835  0.0055  0.6878
   73MOL   C24124865   0.490   4.309   4.147 -0.5212 -0.3642  0.9582
   73MOL   C24224866   0.628   4.324   4.073 -0.2008 -0.1973  0.3960
   73MOL   C24324867   0.741   4.367   4.149  0.5570  0.5596 -0.0206
   73MOL   C24424868   0.860   4.391   4.080 -0.2206  1.0882 -0.4690
   73MOL   C24524869   0.867   4.379   3.940 -0.4017  0.4119  0.1674
   73MOL   C24624870   0.758   4.332   3.869 -0.1089  0.8386  0.4102
   73MOL   C24724871   0.634   4.304   3.929 -0.2309  0.7244 -0.1638
   73MOL   O24824872   0.375   4.366   4.083  0.5485 -0.0154 -0.6454
   73MOL   H24924873   0.561   4.113   4.220 -1.3165 -0.8444  1.3264
   73MOL   H25024874   0.461   4.103   4.083  0.1360 -1.1665  1.2886
   73MOL   H25124875   0.507   4.366   4.238  0.3480  1.3478 -0.2476
   73MOL   H25224876   0.724   4.395   4.252 -2.9060  0.8905 -0.6183
   73MOL   H25324877   0.950   4.416   4.135 -1.1264  1.2233  0.9674
   73MOL   H25424878   0.954   4.404   3.881 -1.6575 -0.3746 -2.0777
   73MOL   H25524879   0.773   4.330   3.762 -0.9280 -1.9683  0.3149
   73MOL   H25624880   0.547   4.257   3.886 -0.1855 -0.5656  1.1033
   73MOL   C25724881   0.263   4.391   4.167  0.6785  0.3048 -0.3114
   73MOL   C25824882   0.135   4.425   4.093 -0.1553 -0.0568  0.5594
   73MOL   C25924883   0.024   4.484   4.181 -1.1450 -0.0967 -0.3011
   73MOL   C26024884   8.017   4.395   4.245 -0.2705 -0.2639 -0.7097
   73MOL   C26124885   7.930   4.443   4.339  0.7802  0.0458 -0.3288
   73MOL   C26224886   7.922   4.580   4.362  0.5079 -0.0540  0.6603
   73MOL   C26324887   8.004   4.666   4.295  0.2466  0.0604 -0.5225
   73MOL   C26424888   0.025   4.623   4.211 -0.1678 -0.7566  0.7614
   73MOL   O26524889   0.097   4.315   4.011 -0.3022 -0.0488  0.2004
   73MOL   H26624890   0.299   4.471   4.233 -0.4123 -1.8376  3.0273
   73MOL   H26724891   0.234   4.315   4.240  2.4091  0.2400  0.3296
   73MOL   H26824892   0.176   4.502   4.027  0.3069 -0.9531 -0.2165
   73MOL   H26924893   8.009   4.291   4.218 -1.1009  0.0120 -1.5366
   73MOL   H27024894   7.868   4.375   4.396  0.8383  2.3326  2.6124
   73MOL   H27124895   7.860   4.623   4.439  0.8680 -0.1231  0.9930
   73MOL   H27224896   8.000   4.772   4.312  0.6726  0.0473 -0.3389
   73MOL   H27324897   0.090   4.690   4.157 -0.2296 -0.8003  0.6324
   73MOL   C27424898   0.006   4.333   3.901  0.2998  0.0961 -0.5190
   73MOL   C27524899   0.091   4.366   3.776 -0.5477 -0.5298  0.6411
   73MOL   C27624900   0.005   4.432   3.667 -0.5532  0.2910 -0.0086
   73MOL   C27724901   8.057   4.360   3.549  0.6386 -1.0391 -0.0756
   73MOL   C27824902   7.970   4.416   3.451 -0.6093  0.0005  0.7879
   73MOL   C27924903   7.924   4.546   3.469  0.1162  0.0280  0.6348
   73MOL   C28024904   7.954   4.620   3.583 -0.5235  0.0672  0.0817
   73MOL   C28124905   8.035   4.557   3.678  0.0642 -0.1378  0.2866
   73MOL   O28224906   0.149   4.244   3.726 -0.0373 -0.5883  0.3772
   73MOL   H28324907   8.033   4.241   3.876  2.3106 -0.5531 -2.5580
   73MOL   H28424908   8.018   4.406   3.944 -3.2356 -2.6485 -1.1782
   73MOL   H28524909   0.168   4.440   3.798 -0.0692  0.0328 -2.7211
   73MOL   H28624910   0.007   4.257   3.533  0.2753 -0.8503 -2.0849
   73MOL   H28724911   7.946   4.357   3.363  0.1740  0.6951  0.0975
   73MOL   H28824912   7.857   4.586   3.395 -0.2742 -0.5105  0.6972
   73MOL   H28924913   7.926   4.724   3.590 -0.1365  0.1185  0.9371
   73MOL   H29024914   8.055   4.616   3.766 -2.0813  0.5288  0.3741
   73MOL   C29124915   0.253   4.187   3.796 -0.2356  0.1200  0.1063
   73MOL   C29224916   0.318   4.076   3.715  0.0632  0.0625 -0.2992
   73MOL   C29324917   0.389   4.112   3.592 -0.3707  0.3342 -0.6062
   73MOL   C29424918   0.330   4.121   3.466 -0.0278 -1.0075  0.0976
   73MOL   C29524919   0.400   4.171   3.354  0.3709 -0.6232  0.1509
   73MOL   C29624920   0.533   4.214   3.364 -0.2189  0.6157  0.3122
   73MOL   C29724921   0.591   4.204   3.489  0.3391 -0.2385  0.1491
   73MOL   C29824922   0.525   4.155   3.603 -0.3208  0.0652  0.1872
   73MOL   O29924923   0.394   3.983   3.792 -0.5886  0.4496 -0.1304
   73MOL   H30024924   0.209   4.132   3.880 -1.6775  0.7842 -0.2007
   73MOL   H30124925   0.334   4.256   3.822  0.5073 -0.6435 -0.1473
   73MOL   H30224926   0.227   4.028   3.680 -0.5421  1.0860 -0.1581
   73MOL   H30324927   0.226   4.093   3.453  0.1075 -0.0732 -3.5599
   73MOL   H30424928   0.337   4.189   3.268 -0.4460 -1.3453  0.6030
   73MOL   H30524929   0.573   4.248   3.269 -0.5925  0.7877  0.2140
   73MOL   H30624930   0.690   4.244   3.503  0.1072 -0.8861  4.3412
   73MOL   H30724931   0.579   4.148   3.697  0.6752  0.2395 -0.3613
   73MOL   C30824932   0.324   3.888   3.871 -0.4993 -0.3132  0.1223
   73MOL   C30924933   0.298   3.758   3.797  0.7979  0.5090 -0.5986
   73MOL   C31024934   0.243   3.658   3.902  0.3655 -0.1125 -0.1766
   73MOL   C31124935   0.324   3.562   3.965  0.0645 -0.3436  0.2672
   73MOL   C31224936   0.274   3.469   4.058 -0.2860  0.4868  0.3901
   73MOL   C31324937   0.135   3.465   4.081  0.7359 -0.5402 -0.2079
   73MOL   C31424938   0.055   3.562   4.023  0.0596 -0.2929  0.3828
   73MOL   C31524939   0.111   3.662   3.940  0.0903 -0.1772 -0.0762
   73MOL   O31624940   0.216   3.785   3.687  0.1287 -0.7042  0.9344
   73MOL   H31724941   0.224   3.926   3.891  0.2928  2.7971 -1.4752
   73MOL   H31824942   0.372   3.865   3.967  1.4045  1.8593 -0.2424
   73MOL   H31924943   0.395   3.720   3.764 -0.1515  0.2658 -3.2324
   73MOL   H32024944   0.429   3.555   3.938  0.1236  1.2664  0.0080
   73MOL   H32124945   0.334   3.387   4.095  0.5585  1.1842  0.5847
   73MOL   H32224946   0.092   3.383   4.136 -3.3531  1.3948 -0.3261
   73MOL   H32324947   8.028   3.550   4.029 -0.0138 -0.3383 -0.8583
   73MOL   H32424948   0.054   3.742   3.896 -0.4584 -0.3477  0.3181
   73MOL   C32524949   0.184   3.674   3.603 -0.3250 -0.4038  0.1041
   73MOL   C32624950   0.087   3.726   3.496  0.1670  0.0600 -0.3744
   73MOL   C32724951   8.035   3.773   3.561  0.1677 -0.0320  0.0531
   73MOL   C32824952   7.932   3.682   3.585  0.2059  0.1579 -0.1366
   73MOL   C32924953   7.805   3.733   3.626  0.1216  0.7343 -0.2980
   73MOL   C33024954   7.789   3.874   3.662  0.4368  0.3853  0.1265
   73MOL   C33124955   7.903   3.956   3.657  0.1372  0.2961  0.0026
   73MOL   C33224956   8.023   3.901   3.611  0.4265 -0.4741 -0.4076
   73MOL   O33324957   0.153   3.831   3.434  0.6463  1.0186  0.4341
   73MOL   H33424958   0.153   3.581   3.650 -1.3164 -0.9633 -1.6095
   73MOL   H33524959   0.277   3.660   3.549 -1.5771 -0.2750 -2.1714
   73MOL   H33624960   0.069   3.637   3.435  2.0319 -1.3320  1.0286
   73MOL   H33724961   7.949   3.581   3.550  1.3176 -0.3696  1.8364
   73MOL   H33824962   7.720   3.667   3.628 -0.5137  1.5255 -0.6090
   73MOL   H33924963   7.699   3.916   3.703 -0.7620  0.0382 -2.0458
   73MOL   H34024964   7.904   4.061   3.681  1.4710  0.4481 -0.6857
   73MOL   H34124965   0.029   3.964   3.595 -0.2559  0.5230 -0.2825
   73MOL   H34224966   0.206   3.865   3.505  1.6068 -2.6554  1.6138
   74MOL     C124967   5.745   0.846   0.429  0.0068 -0.8713  0.4173
   74MOL     C224968   5.880   0.783   0.431 -1.1487  0.5778  0.6634
   74MOL     C324969   5.977   0.885   0.365 -0.0839  0.0433  0.3474
   74MOL     C424970   5.985   0.880   0.223  0.2376  0.3323 -0.5571
   74MOL     C524971   6.063   0.972   0.157 -0.1425 -0.2986  0.5387
   74MOL     C624972   6.139   1.073   0.225 -0.1947 -0.0262 -0.2165
   74MOL     C724973   6.123   1.079   0.366  0.1824 -0.0840  0.3514
   74MOL     C824974   6.036   0.994   0.429 -0.6715  0.1363 -0.6018
   74MOL     O924975   5.867   0.657   0.352  0.3769  0.6212  0.0881
   74MOL    H1024976   5.662   0.784   0.462 -0.7412  0.1580  0.5127
   74MOL    H1124977   5.741   0.934   0.493  1.2955 -0.3008 -0.2738
   74MOL    H1224978   5.912   0.738   0.525 -1.8822 -0.3585  0.4709
   74MOL    H1324979   5.939   0.799   0.168  0.5580 -0.8878  0.9353
   74MOL    H1424980   6.069   0.953   0.051  0.4951 -2.0777  0.8666
   74MOL    H1524981   6.207   1.138   0.172 -0.9225 -0.1146 -1.2836
   74MOL    H1624982   6.179   1.149   0.426  1.1836 -0.4146 -0.1813
   74MOL    H1724983   6.027   1.022   0.533 -1.1821 -0.8716 -0.3621
   74MOL    H1824984   5.723   0.900   0.336  1.1503  0.2535  0.7862
   74MOL    C1924985   5.967   0.555   0.364 -0.7037 -0.4695 -1.1609
   74MOL    C2024986   5.968   0.467   0.495 -0.3713 -0.2980  0.4811
   74MOL    C2124987   5.822   0.438   0.536  0.1727  0.4583  0.8164
   74MOL    C2224988   5.759   0.330   0.473 -0.4300 -0.4858  0.0308
   74MOL    C2324989   5.621   0.308   0.490  0.2479 -0.3222 -0.2181
   74MOL    C2424990   5.544   0.396   0.570  0.4903 -1.0396  0.3692
   74MOL    C2524991   5.609   0.510   0.632 -0.0719  0.1550  0.1902
   74MOL    C2624992   5.751   0.523   0.617 -0.1424 -1.4624  0.7811
   74MOL    O2724993   6.043   0.541   0.590 -0.1457  0.2212  1.0072
   74MOL    H2824994   5.945   0.487   0.282 -0.6320 -1.4681 -0.3506
   74MOL    H2924995   6.067   0.595   0.345 -0.9785 -0.4245 -2.5250
   74MOL    H3024996   6.018   0.375   0.464 -1.9669 -0.9304 -0.3180
   74MOL    H3124997   5.825   0.270   0.411  0.6975 -0.2675  0.9881
   74MOL    H3224998   5.571   0.223   0.446 -0.5994  0.1633 -0.2086
   74MOL    H3324999   5.441   0.371   0.591 -0.4719  1.2185 -1.4076
   74MOL    H3425000   5.571   0.575   0.709 -0.0834  1.7074 -1.1172
   74MOL    H3525001   5.789   0.617   0.653 -1.6238  0.0774 -1.5871
   74MOL    C3625002   6.083   0.454   0.695  0.0479 -0.5145  0.1335
   74MOL    C3725003   6.193   0.525   0.775  0.4579  0.2970  0.2456
   74MOL    C3825004   6.333   0.529   0.707  0.9279 -0.5626  0.4673
   74MOL    C3925005   6.432   0.436   0.747 -0.9110  0.6355 -0.4339
   74MOL    C4025006   6.560   0.433   0.686  0.3496 -0.2674  0.5160
   74MOL    C4125007   6.576   0.514   0.572  1.0271 -0.3810  0.7728
   74MOL    C4225008   6.492   0.615   0.540  0.6146  0.0254  0.0969
   74MOL    C4325009   6.370   0.623   0.600 -0.8197 -0.5409  0.5992
   74MOL    O4425010   6.190   0.451   0.903  0.0045  0.2078  0.2918
   74MOL    H4525011   5.999   0.427   0.759  0.0322 -0.1226  0.2838
   74MOL    H4625012   6.126   0.361   0.658  2.0997  1.1580 -1.8716
   74MOL    H4725013   6.163   0.627   0.799 -2.9264 -0.4055 -0.7656
   74MOL    H4825014   6.424   0.353   0.816 -0.8052  0.5930 -0.4717
   74MOL    H4925015   6.642   0.367   0.709  0.8167  0.4768  1.0293
   74MOL    H5025016   6.669   0.525   0.518  1.5050  1.1395  1.8886
   74MOL    H5125017   6.504   0.667   0.447 -2.4083 -2.3401 -1.7174
   74MOL    H5225018   6.310   0.704   0.561  2.1839  1.0934 -0.7973
   74MOL    C5325019   6.227   0.534   1.016  0.2854 -0.2222  0.2531
   74MOL    C5425020   6.239   0.453   1.147 -0.2322  0.3342 -0.5605
   74MOL    C5525021   6.307   0.542   1.257 -0.3095  0.4629  0.7293
   74MOL    C5625022   6.436   0.522   1.299 -0.4189  0.8005  0.0752
   74MOL    C5725023   6.500   0.612   1.387 -0.3101  1.1188  0.0352
   74MOL    C5825024   6.424   0.708   1.453  0.0672  0.0662  0.2189
   74MOL    C5925025   6.291   0.727   1.414 -0.2612 -0.2968  0.6848
   74MOL    C6025026   6.232   0.645   1.314 -0.2278  0.2355 -0.0910
   74MOL    O6125027   6.103   0.435   1.169  0.2338  0.0959 -0.5601
   74MOL    H6225028   6.328   0.560   0.984  0.6642  0.0835  1.6460
   74MOL    H6325029   6.180   0.632   1.025 -0.2687 -0.4174 -0.5627
   74MOL    H6425030   6.291   0.360   1.123  1.1389  1.5937 -2.5167
   74MOL    H6525031   6.499   0.448   1.252 -0.5345  1.9605 -1.9391
   74MOL    H6625032   6.607   0.608   1.399 -0.3472  1.0035  0.3528
   74MOL    H6725033   6.462   0.773   1.531 -1.1825 -0.6645  1.4761
   74MOL    H6825034   6.232   0.813   1.444  1.0816  0.8694  0.0495
   74MOL    H6925035   6.129   0.658   1.286 -0.6893 -0.3516  1.2761
   74MOL    C7025036   6.070   0.349   1.272  0.2449  0.3309 -0.3504
   74MOL    C7125037   5.912   0.345   1.282  0.0188 -0.4229 -0.5458
   74MOL    C7225038   5.857   0.308   1.422  0.3914 -0.6959 -0.0006
   74MOL    C7325039   5.883   0.396   1.530 -0.2442 -0.2925  0.0361
   74MOL    C7425040   5.840   0.368   1.661  0.6609 -0.5803 -0.0455
   74MOL    C7525041   5.783   0.243   1.687  0.2288  0.8185  0.5656
   74MOL    C7625042   5.750   0.159   1.572 -0.0648  0.0503 -0.4326
   74MOL    C7725043   5.783   0.192   1.446 -0.4878 -0.8421  1.0555
   74MOL    O7825044   5.861   0.265   1.179  0.1247  0.4345 -1.0501
   74MOL    H7925045   6.111   0.252   1.246 -2.7934 -0.7411 -1.3656
   74MOL    H8025046   6.117   0.382   1.365 -2.9045  0.8223  1.1409
   74MOL    H8125047   5.877   0.447   1.266  1.0294  0.2420  1.2295
   74MOL    H8225048   5.929   0.493   1.512 -1.5719  0.6869  1.7976
   74MOL    H8325049   5.869   0.423   1.749 -0.1289  0.6769 -0.5678
   74MOL    H8425050   5.757   0.221   1.790  2.4238 -0.4668  0.8762
   74MOL    H8525051   5.693   0.074   1.605  0.9311 -0.9347 -1.2029
   74MOL    H8625052   5.759   0.122   1.368  2.7148 -1.5691  0.6685
   74MOL    C8725053   5.857   0.329   1.054 -0.4455  0.4570  0.4423
   74MOL    C8825054   5.747   0.280   0.956  0.3090 -0.1170  0.1945
   74MOL    C8925055   5.601   0.289   1.003  0.6791  0.0150  0.0112
   74MOL    C9025056   5.566   0.221   1.121  0.2007 -0.1015 -0.0597
   74MOL    C9125057   5.435   0.233   1.175 -0.0600 -0.3576 -0.2463
   74MOL    C9225058   5.350   0.333   1.115  0.3800  0.7090  0.4410
   74MOL    C9325059   5.383   0.396   0.997 -0.2134 -0.7922  0.2083
   74MOL    C9425060   5.507   0.368   0.936 -0.0070 -0.2383  0.6915
   74MOL    O9525061   5.786   0.148   0.908  0.4291 -0.0014  0.6472
   74MOL    H9625062   5.955   0.310   1.009  0.7757 -0.7609  3.4736
   74MOL    H9725063   5.850   0.436   1.074 -0.8826  0.2930  1.1745
   74MOL    H9825064   5.766   0.338   0.866 -0.8876 -1.6671 -1.0802
   74MOL    H9925065   5.642   0.161   1.167 -1.0003 -3.1993 -1.9743
   74MOL   H10025066   5.419   0.192   1.274  2.6233 -2.5429 -0.6652
   74MOL   H10125067   5.260   0.366   1.164  0.3584  0.7742  0.3557
   74MOL   H10225068   5.311   0.465   0.955 -0.3625 -0.0698  1.5960
   74MOL   H10325069   5.538   0.423   0.849  1.1106 -2.5296 -0.3792
   74MOL   C10425070   5.744   0.127   0.773 -0.0773  0.1866  0.1701
   74MOL   C10525071   5.691   8.065   0.774 -0.0378 -0.5178  0.0819
   74MOL   C10625072   5.599   8.051   0.653  0.3023  0.4000  0.2494
   74MOL   C10725073   5.469   0.025   0.656  0.0391  0.2598 -0.2976
   74MOL   C10825074   5.383   0.021   0.541 -0.2706 -0.0159 -0.6432
   74MOL   C10925075   5.428   8.045   0.418  0.5072 -0.1929 -0.4007
   74MOL   C11025076   5.560   7.993   0.411  0.0225  0.0263 -0.1966
   74MOL   C11125077   5.640   7.987   0.531 -0.3452 -0.0734 -0.4654
   74MOL   O11225078   5.801   7.971   0.763 -0.5945  0.5271  0.0087
   74MOL   H11325079   5.664   0.198   0.753  0.3655  1.0212  1.3126
   74MOL   H11425080   5.822   0.153   0.702 -1.2898  0.5962 -1.0330
   74MOL   H11525081   5.633   8.051   0.865  0.2227  1.8523  0.6631
   74MOL   H11625082   5.440   0.085   0.741 -0.4812 -0.2760 -0.0956
   74MOL   H11725083   5.283   0.061   0.553  0.1162  0.2252  2.0089
   74MOL   H11825084   5.367   8.052   0.329  0.9573  2.4221 -0.5603
   74MOL   H11925085   5.594   7.950   0.318 -2.4710 -1.0918 -0.6320
   74MOL   H12025086   5.741   7.948   0.532 -0.3858 -0.1841  1.4533
   74MOL   C12125087   5.761   7.839   0.796 -0.2648 -1.0422 -0.1225
   74MOL   C12225088   5.755   7.798   0.947  0.1814  0.5878  0.0578
   74MOL   C12325089   5.878   7.831   1.032 -0.6027 -0.5008 -0.0522
   74MOL   C12425090   5.886   7.954   1.096 -0.6953 -0.4384 -0.1945
   74MOL   C12525091   5.996   7.985   1.177  0.1251 -0.1702  0.2995
   74MOL   C12625092   6.107   7.901   1.180 -0.2701  0.6278 -0.5541
   74MOL   C12725093   6.106   7.783   1.104  0.1462  0.9190  1.1033
   74MOL   C12825094   5.985   7.741   1.046 -0.1308 -0.5060  0.8227
   74MOL   O12925095   5.645   7.852   1.013 -0.0167 -0.2923 -0.9095
   74MOL   H13025096   5.836   7.782   0.740  1.2066  1.4060 -0.7491
   74MOL   H13125097   5.667   7.795   0.765 -0.9528  0.1022  0.2960
   74MOL   H13225098   5.747   7.690   0.954 -1.2604  0.7881  1.7122
   74MOL   H13325099   5.802   8.022   1.089 -1.8321 -1.7191  0.7293
   74MOL   H13425100   5.993   0.003   1.223  1.6103 -0.4209  0.9475
   74MOL   H13525101   6.197   7.921   1.236 -0.2416 -1.4555  0.1972
   74MOL   H13625102   6.191   7.718   1.114 -0.1382  0.7393  2.5954
   74MOL   H13725103   5.999   7.646   0.996  1.1739  0.8157 -1.4281
   74MOL   C13825104   5.513   7.823   0.972  0.1024  0.1446 -0.2803
   74MOL   C13925105   5.424   7.792   1.090 -0.4398 -0.0303 -0.3558
   74MOL   C14025106   5.274   7.812   1.066 -0.5759  0.5567 -0.3057
   74MOL   C14125107   5.234   7.944   1.071 -0.2949 -0.3986  0.6737
   74MOL   C14225108   5.101   7.981   1.041 -0.4552 -0.0302  0.1136
   74MOL   C14325109   5.008   7.877   1.007 -0.2630  1.0867  0.1392
   74MOL   C14425110   5.053   7.743   0.995 -0.9730 -0.5399 -0.7534
   74MOL   C14525111   5.180   7.707   1.027 -0.0159 -0.1960 -0.1259
   74MOL   O14625112   5.445   7.658   1.121  0.4504 -0.2278  0.2411
   74MOL   H14725113   5.509   7.740   0.903  1.8461  0.3661 -0.6749
   74MOL   H14825114   5.481   7.910   0.915  0.7516  0.7991  0.3339
   74MOL   H14925115   5.451   7.854   1.176  1.9955  0.5504 -1.5098
   74MOL   H15025116   5.311   8.016   1.094  0.4266 -0.2505 -2.0757
   74MOL   H15125117   5.062   0.001   1.058 -0.7751 -0.3822  1.4672
   74MOL   H15225118   4.903   7.893   0.988 -0.1646  0.3490 -1.1181
   74MOL   H15325119   4.976   7.674   0.965 -0.9507 -0.2068 -1.5748
   74MOL   H15425120   5.203   7.602   1.015  3.0113  0.1030  2.2067
   74MOL   C15525121   5.553   7.636   1.215  0.1367 -0.3329  0.7454
   74MOL   C15625122   5.516   7.502   1.276  0.2382  0.1846  0.4430
   74MOL   C15725123   5.636   7.438   1.349  0.1656 -0.5180 -0.3544
   74MOL   C15825124   5.755   7.507   1.382 -0.2311 -1.1680 -0.3925
   74MOL   C15925125   5.864   7.440   1.453 -0.0408  0.8429  0.4590
   74MOL   C16025126   5.848   7.302   1.498  0.4460  0.5299 -0.0003
   74MOL   C16125127   5.725   7.237   1.465  0.1778  0.3913  0.4696
   74MOL   C16225128   5.624   7.300   1.383  0.4715 -0.4409 -0.3323
   74MOL   O16325129   5.411   7.509   1.372 -0.6381 -0.2723  0.1001
   74MOL   H16425130   5.580   7.720   1.278  2.2060  0.8776 -1.6642
   74MOL   H16525131   5.636   7.623   1.146 -0.2906  0.1698  0.1313
   74MOL   H16625132   5.490   7.431   1.199  0.9569 -0.6722  0.9733
   74MOL   H16725133   5.769   7.612   1.359  2.9744 -1.3963  0.2480
   74MOL   H16825134   5.948   7.506   1.465  0.7605 -0.2535  0.9626
   74MOL   H16925135   5.930   7.252   1.546  1.2442 -0.2970 -2.1838
   74MOL   H17025136   5.702   7.137   1.496 -0.7114  0.5844  0.4616
   74MOL   H17125137   5.532   7.247   1.367  0.6344 -0.4374 -1.3537
   74MOL   C17225138   5.284   7.496   1.318  0.4263 -0.2655 -0.1769
   74MOL   C17325139   5.176   7.471   1.429  0.6145  0.0326 -0.0147
   74MOL   C17425140   5.176   7.324   1.461  0.2062  0.8366 -1.0946
   74MOL   C17525141   5.278   7.258   1.538  0.1894  0.2129  0.4927
   74MOL   C17625142   5.276   7.121   1.552  0.0170  0.4431  0.2980
   74MOL   C17725143   5.172   7.043   1.502 -0.2619 -0.5864 -0.6306
   74MOL   C17825144   5.069   7.113   1.436 -0.6248 -0.0910  0.1894
   74MOL   C17925145   5.074   7.247   1.410  0.3149  0.5093  0.3615
   74MOL   O18025146   5.049   7.510   1.376  1.1774 -0.5473 -0.7639
   74MOL   H18125147   5.273   7.595   1.273 -1.3254  0.0607  0.9322
   74MOL   H18225148   5.270   7.429   1.233 -2.0119  0.2786 -0.2418
   74MOL   H18325149   5.199   7.534   1.515 -0.1662  0.6019 -0.2219
   74MOL   H18425150   5.363   7.312   1.576 -0.4817  0.2546  1.9678
   74MOL   H18525151   5.348   7.070   1.615  0.2380  1.0740  0.5623
   74MOL   H18625152   5.163   6.937   1.520 -1.3946 -0.4635 -0.4247
   74MOL   H18725153   4.987   7.048   1.406 -0.1252  0.2033 -1.9235
   74MOL   H18825154   4.997   7.294   1.350 -1.5845 -2.1324  0.6124
   74MOL   C18925155   5.021   7.648   1.359 -0.5582 -0.2002 -0.0825
   74MOL   C19025156   4.869   7.672   1.411 -0.5855  0.1231 -0.0217
   74MOL   C19125157   4.761   7.610   1.321  0.3158  0.1978 -0.2643
   74MOL   C19225158   4.698   7.487   1.349  0.4332  0.1277 -0.3981
   74MOL   C19325159   4.588   7.443   1.268  1.2039  0.2338 -1.1405
   74MOL   C19425160   4.548   7.515   1.160  0.1763  0.4341  0.1868
   74MOL   C19525161   4.625   7.622   1.122 -0.0626  1.0553 -0.1034
   74MOL   C19625162   4.720   7.674   1.206 -0.3146 -0.0710 -0.2626
   74MOL   O19725163   4.848   7.805   1.437 -0.4715  0.1741 -0.4774
   74MOL   H19825164   5.084   7.697   1.432 -1.0239 -0.0112  0.1965
   74MOL   H19925165   5.042   7.687   1.259  0.9880  0.3150  0.4305
   74MOL   H20025166   4.864   7.631   1.512 -0.2064 -2.5964 -1.0761
   74MOL   H20125167   4.732   7.436   1.438  0.1639  0.2806 -0.2078
   74MOL   H20225168   4.535   7.352   1.291 -0.6354  1.5671 -0.0186
   74MOL   H20325169   4.472   7.476   1.093 -0.6882  0.9215  0.8885
   74MOL   H20425170   4.594   7.671   1.030 -1.2519  0.6514  0.0734
   74MOL   H20525171   4.776   7.764   1.187  2.0857 -2.0706 -3.0792
   74MOL   C20625172   4.722   7.832   1.497 -0.6353 -0.7514 -0.5332
   74MOL   C20725173   4.710   7.981   1.516  0.5757 -0.1408  0.3263
   74MOL   C20825174   4.755   8.060   1.388  0.1427 -0.1027 -0.0878
   74MOL   C20925175   4.703   8.025   1.262  0.0705  0.1022 -0.1838
   74MOL   C21025176   4.734   0.011   1.148 -0.8871  0.2224  0.7050
   74MOL   C21125177   4.817   0.126   1.153  0.5014 -0.0877 -0.6610
   74MOL   C21225178   4.875   0.159   1.273  0.3143  0.1698 -0.0001
   74MOL   C21325179   4.849   0.086   1.394 -0.0587 -0.1402  0.3635
   74MOL   O21425180   4.779   8.017   1.638 -0.0613 -0.5487  0.3726
   74MOL   H21525181   4.644   7.808   1.425 -1.2589 -1.7648  0.4457
   74MOL   H21625182   4.699   7.773   1.586 -0.8073 -0.3294 -0.3001
   74MOL   H21725183   4.603   8.000   1.521  0.2325 -0.3627 -3.9708
   74MOL   H21825184   4.628   7.948   1.250 -1.1278  1.2881 -0.4432
   74MOL   H21925185   4.707   8.055   1.049  0.4291  1.0899  0.0211
   74MOL   H22025186   4.830   0.187   1.065 -0.7823 -0.3630 -1.0481
   74MOL   H22125187   4.947   0.239   1.281 -0.2883  0.6315  1.0255
   74MOL   H22225188   4.895   0.114   1.488  0.2148 -1.3626  0.6076
   74MOL   C22325189   4.713   0.037   1.708  0.4970 -0.0214  0.1863
   74MOL   C22425190   4.622   8.049   1.811  0.7115  0.0364 -0.2369
   74MOL   C22525191   4.574   0.086   1.897  0.5745  0.0677  0.4919
   74MOL   C22625192   4.475   0.172   1.849  0.1712  0.1736  0.4393
   74MOL   C22725193   4.434   0.284   1.925  0.3005 -0.6777 -0.2838
   74MOL   C22825194   4.479   0.302   2.057 -0.0287  0.5674 -0.1387
   74MOL   C22925195   4.576   0.212   2.109 -0.5081 -0.2297 -0.5628
   74MOL   C23025196   4.631   0.111   2.023  0.5216  0.5121 -0.1188
   74MOL   O23125197   4.513   7.979   1.751  0.4667  0.4529  0.1954
   74MOL   H23225198   4.794   0.086   1.760  1.6097 -1.0019 -0.5991
   74MOL   H23325199   4.657   0.109   1.648 -1.6987  0.2204  2.4095
   74MOL   H23425200   4.683   7.984   1.874 -1.7261 -0.1715  2.0062
   74MOL   H23525201   4.428   0.153   1.753 -0.0590  0.9200  0.3931
   74MOL   H23625202   4.365   0.358   1.888 -0.1855 -1.4792 -0.9875
   74MOL   H23725203   4.450   0.383   2.122 -0.9445  0.4298 -0.3776
   74MOL   H23825204   4.611   0.225   2.210 -0.6415 -0.0207 -0.5425
   74MOL   H23925205   4.709   0.051   2.067 -1.0529 -1.7030 -0.2543
   74MOL   C24025206   4.444   7.893   1.840  0.0707 -0.4535  1.0364
   74MOL   C24125207   4.356   7.787   1.775  0.7655 -0.1381  0.3665
   74MOL   C24225208   4.246   7.847   1.687 -0.5933 -0.6567 -0.2711
   74MOL   C24325209   4.113   7.820   1.731 -0.1750  0.5376 -0.4195
   74MOL   C24425210   4.011   7.873   1.657  0.8091  0.8377  0.8648
   74MOL   C24525211   4.027   7.946   1.537  0.1585 -0.1471 -0.6422
   74MOL   C24625212   4.162   7.978   1.503 -1.0909  0.2136  0.0056
   74MOL   C24725213   4.270   7.922   1.572 -0.1828  0.1363 -0.7417
   74MOL   O24825214   4.450   7.718   1.690  0.6096  0.0962  0.1166
   74MOL   H24925215   4.517   7.847   1.906  0.9246 -0.9669 -0.2292
   74MOL   H25025216   4.395   7.959   1.912 -2.0922  0.0512 -0.8395
   74MOL   H25125217   4.307   7.729   1.853  1.1285  0.8871  1.3701
   74MOL   H25225218   4.097   7.759   1.819  0.4071  0.6650 -0.2220
   74MOL   H25325219   3.910   7.855   1.690 -0.0114 -1.1165 -2.4927
   74MOL   H25425220   3.941   7.976   1.479 -0.6048 -1.1248 -0.0294
   74MOL   H25525221   4.164   8.036   1.412  1.1832 -1.6426 -1.1540
   74MOL   H25625222   4.372   7.943   1.543  0.0662 -0.7906 -0.5505
   74MOL   C25725223   4.407   7.608   1.615  0.4935 -0.0984  0.0185
   74MOL   C25825224   4.409   7.484   1.708 -0.5435 -0.0402  0.8612
   74MOL   C25925225   4.382   7.365   1.618 -0.5872 -1.3518  0.2835
   74MOL   C26025226   4.247   7.334   1.580 -0.1053 -0.4606  0.8811
   74MOL   C26125227   4.218   7.224   1.503 -0.0966  0.1669  0.0755
   74MOL   C26225228   4.324   7.153   1.447 -0.1535  0.8807  0.5731
   74MOL   C26325229   4.457   7.174   1.487 -0.1353 -0.2670  0.3474
   74MOL   C26425230   4.488   7.285   1.570  0.1378 -0.0055 -0.4243
   74MOL   O26525231   4.320   7.496   1.818 -0.4999  0.3509 -0.1634
   74MOL   H26625232   4.473   7.599   1.528  1.7149 -1.6552  1.0875
   74MOL   H26725233   4.310   7.620   1.567  0.1475 -2.0961  0.1479
   74MOL   H26825234   4.513   7.470   1.737  0.4659  3.6403 -0.6580
   74MOL   H26925235   4.168   7.393   1.624 -1.3148 -1.8113  0.5083
   74MOL   H27025236   4.118   7.196   1.473 -0.0832  0.4406 -0.2323
   74MOL   H27125237   4.298   7.081   1.372  0.0764 -0.2877  1.6072
   74MOL   H27225238   4.538   7.115   1.446 -0.8268 -1.6226  0.9154
   74MOL   H27325239   4.591   7.315   1.585 -0.3304  1.8251 -0.7700
   74MOL   C27425240   4.325   7.392   1.922 -0.4024 -0.2391  0.3784
   74MOL   C27525241   4.274   7.450   2.052  0.6409 -0.3473 -0.0331
   74MOL   C27625242   4.366   7.558   2.107  0.9205  0.2083  0.4191
   74MOL   C27725243   4.494   7.524   2.143  0.2927 -0.5053  0.1356
   74MOL   C27825244   4.584   7.621   2.195  0.0525 -0.0943  0.3582
   74MOL   C27925245   4.550   7.757   2.214  0.0279 -0.7270  0.1558
   74MOL   C28025246   4.413   7.791   2.183  0.3589 -0.1511  0.5608
   74MOL   C28125247   4.326   7.691   2.122 -0.7296 -0.4426 -0.3196
   74MOL   O28225248   4.256   7.341   2.137 -0.3858  0.2346 -0.3843
   74MOL   H28325249   4.272   7.303   1.890  0.6233 -0.5665 -0.4422
   74MOL   H28425250   4.428   7.358   1.929  0.2980  1.9724  1.3358
   74MOL   H28525251   4.177   7.498   2.033 -0.1394 -1.0507  2.0717
   74MOL   H28625252   4.531   7.423   2.129 -1.1387 -1.1980  1.1607
   74MOL   H28725253   4.688   7.595   2.211  0.7422  1.5647 -1.2098
   74MOL   H28825254   4.617   7.833   2.253 -0.9923  1.3467 -2.0155
   74MOL   H28925255   4.380   7.893   2.188 -1.0257 -0.5344 -0.3344
   74MOL   H29025256   4.225   7.717   2.094 -1.0320 -0.5315  0.6677
   74MOL   C29125257   4.156   7.362   2.237 -0.4592 -0.3787  0.3793
   74MOL   C29225258   4.095   7.230   2.295  1.0880 -0.2372 -0.1254
   74MOL   C29325259   4.053   7.245   2.438  1.0729 -0.2411  0.0604
   74MOL   C29425260   3.927   7.294   2.479 -0.2331  0.5140  0.4170
   74MOL   C29525261   3.882   7.283   2.608  0.0751 -0.1402 -0.7750
   74MOL   C29625262   3.970   7.230   2.707 -0.7716 -0.2003 -0.1327
   74MOL   C29725263   4.105   7.189   2.669  0.0972 -0.0922 -0.0564
   74MOL   C29825264   4.143   7.193   2.538  0.3291  0.1582  0.6102
   74MOL   O29925265   3.982   7.179   2.223  0.1375 -0.4243 -0.3698
   74MOL   H30025266   4.080   7.430   2.198 -1.3088 -1.1106  0.7306
   74MOL   H30125267   4.191   7.426   2.318  0.7143 -1.9758  1.1621
   74MOL   H30225268   4.177   7.158   2.286  2.2322  1.0736 -0.4519
   74MOL   H30325269   3.863   7.335   2.402 -3.0054 -0.5157  2.1303
   74MOL   H30425270   3.781   7.311   2.633  1.2237  1.3544  2.4925
   74MOL   H30525271   3.936   7.230   2.810 -1.6033 -0.4039 -0.4068
   74MOL   H30625272   4.167   7.151   2.749 -1.8108  0.3602  1.6770
   74MOL   H30725273   4.239   7.156   2.504  0.5323  1.4470 -0.2555
   74MOL   C30825274   4.026   7.133   2.099  0.1822  0.1407 -0.1805
   74MOL   C30925275   3.909   7.134   2.006 -0.2832  0.2758  0.2394
   74MOL   C31025276   3.889   7.275   1.961  0.6551  0.1389 -0.2647
   74MOL   C31125277   3.792   7.359   2.030 -0.2500 -0.6608 -0.6432
   74MOL   C31225278   3.787   7.495   2.000  0.3398 -0.3786  0.2940
   74MOL   C31325279   3.866   7.547   1.896 -0.5557  0.2651  0.3618
   74MOL   C31425280   3.960   7.469   1.826  0.6170 -0.2201 -0.4048
   74MOL   C31525281   3.971   7.334   1.861 -0.1576 -0.0243  0.3441
   74MOL   O31625282   3.945   7.044   1.896 -0.2386 -0.5146  0.5437
   74MOL   H31725283   4.035   7.027   2.126  0.1769 -0.5434 -2.7156
   74MOL   H31825284   4.120   7.171   2.060  1.6381 -2.0627  1.0675
   74MOL   H31925285   3.817   7.094   2.049 -2.8488  4.6677 -0.9059
   74MOL   H32025286   3.718   7.334   2.103 -0.8114  2.4295 -0.0763
   74MOL   H32125287   3.716   7.560   2.049  1.4667  0.4116  0.9057
   74MOL   H32225288   3.854   7.650   1.867  0.0182 -0.0329 -0.9956
   74MOL   H32325289   4.010   7.518   1.744 -0.7983  0.2375 -1.0045
   74MOL   H32425290   4.053   7.274   1.823  0.2579  0.4592  0.4584
   74MOL   C32525291   3.920   6.906   1.919 -0.7376 -0.2121  0.4500
   74MOL   C32625292   3.963   6.818   1.799  0.4277 -0.8986 -0.9403
   74MOL   C32725293   3.904   6.843   1.669 -0.2446 -0.8033  0.0351
   74MOL   C32825294   3.812   6.754   1.615 -0.1813 -0.5349  1.2481
   74MOL   C32925295   3.757   6.768   1.486  0.3966 -0.0473  0.2134
   74MOL   C33025296   3.800   6.877   1.406 -0.1874  0.1258  0.0629
   74MOL   C33125297   3.894   6.969   1.463 -0.3979 -0.1499  0.7418
   74MOL   C33225298   3.942   6.953   1.591 -0.3033  0.4407  0.5162
   74MOL   O33325299   4.102   6.819   1.797  0.1190  0.2751  0.0065
   74MOL   H33425300   3.813   6.901   1.939 -1.0106  1.3763 -0.5609
   74MOL   H33525301   3.972   6.866   2.006  1.5656 -2.2635 -1.7673
   74MOL   H33625302   3.942   6.714   1.825 -0.2324 -0.7415 -0.8335
   74MOL   H33725303   3.773   6.673   1.675 -1.2450  0.3229  1.7306
   74MOL   H33825304   3.675   6.708   1.451 -1.9753  2.7289  0.8231
   74MOL   H33925305   3.759   6.896   1.308  0.7866  1.8621 -0.0381
   74MOL   H34025306   3.919   7.062   1.414 -1.6673 -0.3325 -0.2855
   74MOL   H34125307   4.004   7.029   1.636  0.2297  0.0793  0.3975
   74MOL   H34225308   4.130   6.906   1.775  0.1873 -0.1150 -1.4473
   75MOL     C125309   7.410   0.448   4.121  0.1534 -0.1723  0.3790
   75MOL     C225310   7.349   0.433   4.251  0.0761 -0.2272 -0.5735
   75MOL     C325311   7.446   0.433   4.367 -0.1118 -0.2753  0.6365
   75MOL     C425312   7.563   0.356   4.355  0.3982 -0.3524 -0.0539
   75MOL     C525313   7.644   0.347   4.470 -0.1845  0.0225 -0.2962
   75MOL     C625314   7.622   0.421   4.586 -0.5835  0.4100 -0.5136
   75MOL     C725315   7.509   0.501   4.593  0.3603 -0.0206 -0.6433
   75MOL     C825316   7.416   0.503   4.487  0.2480  0.1591 -1.0155
   75MOL     O925317   7.272   0.311   4.258  0.5596  0.1936 -0.4376
   75MOL    H1025318   7.486   0.525   4.113 -1.3335  1.5695  2.5944
   75MOL    H1125319   7.474   0.363   4.097  3.0746  1.6110  1.6140
   75MOL    H1225320   7.292   0.523   4.269 -0.4342 -0.5439 -0.5961
   75MOL    H1325321   7.582   0.293   4.269 -0.5345 -0.2201 -0.3656
   75MOL    H1425322   7.731   0.283   4.468  0.7096  1.2087  0.0611
   75MOL    H1525323   7.697   0.413   4.663 -0.0668 -2.0541 -1.2060
   75MOL    H1625324   7.489   0.564   4.678 -0.2159 -1.3152  0.2000
   75MOL    H1725325   7.325   0.559   4.504  0.1137 -0.4396  0.3550
   75MOL    H1825326   7.331   0.453   4.046 -1.0322  0.2672  1.6406
   75MOL    C1925327   7.170   0.321   4.360  0.3007  0.8367  0.3216
   75MOL    C2025328   7.090   0.185   4.378 -0.2319 -0.0927  1.1515
   75MOL    C2125329   7.002   0.158   4.253 -0.3961  0.2293  0.4808
   75MOL    C2225330   7.047   0.068   4.150  0.4028  0.0961  0.2415
   75MOL    C2325331   6.960   0.030   4.048  0.5615 -0.5548  0.1439
   75MOL    C2425332   6.836   0.101   4.041 -0.5811  0.0392 -0.4689
   75MOL    C2525333   6.791   0.186   4.141 -1.1501  0.0654  0.2709
   75MOL    C2625334   6.870   0.209   4.250  0.4009 -0.2886 -0.8458
   75MOL    O2725335   7.011   0.203   4.494 -0.9159 -0.3763  0.6243
   75MOL    H2825336   7.212   0.335   4.459  0.4051 -0.0648  0.4104
   75MOL    H2925337   7.102   0.405   4.346 -1.1049 -0.1198  1.3021
   75MOL    H3025338   7.161   0.106   4.404  1.0868  0.6630 -0.1133
   75MOL    H3125339   7.142   0.017   4.157  0.4230  0.2321  1.0748
   75MOL    H3225340   6.985   8.047   3.964  1.4783 -0.5495  0.4132
   75MOL    H3325341   6.768   0.069   3.963  1.2869 -1.0341 -1.6817
   75MOL    H3425342   6.690   0.223   4.138 -1.0127  0.3565 -1.3519
   75MOL    H3525343   6.825   0.254   4.337 -0.3246  0.1981 -1.4738
   75MOL    C3625344   6.950   0.084   4.544 -0.5783 -0.0265  0.7987
   75MOL    C3725345   6.828   0.103   4.633 -0.3570 -0.9836 -0.2160
   75MOL    C3825346   6.713   0.168   4.559 -0.2390  0.2870  0.5083
   75MOL    C3925347   6.631   0.083   4.484  0.3762  0.0788 -0.0565
   75MOL    C4025348   6.533   0.143   4.405 -0.1506  0.7301 -0.1560
   75MOL    C4125349   6.510   0.283   4.409  0.5057  0.6220 -0.0928
   75MOL    C4225350   6.595   0.364   4.487  0.9146  0.3647  0.6166
   75MOL    C4325351   6.696   0.306   4.556  0.1404  0.3219  0.5215
   75MOL    O4425352   6.855   0.182   4.751 -0.0285  0.6922  0.2436
   75MOL    H4525353   6.918   0.026   4.458 -1.2552 -0.6952  1.5010
   75MOL    H4625354   7.018   0.022   4.602  0.5199  1.6424  1.3497
   75MOL    H4725355   6.794   0.008   4.673 -1.5112  0.6386  2.8484
   75MOL    H4825356   6.656   8.058   4.480  0.6119  0.0800  1.2604
   75MOL    H4925357   6.471   0.088   4.335 -0.3324  0.5744  0.1278
   75MOL    H5025358   6.425   0.319   4.352 -2.2875 -2.2158  2.1024
   75MOL    H5125359   6.589   0.471   4.468  0.6888  0.7834  2.9248
   75MOL    H5225360   6.760   0.373   4.611 -0.4148  1.6761 -0.4640
   75MOL    C5325361   6.916   0.111   4.856  0.3074 -0.3556 -0.4403
   75MOL    C5425362   6.947   0.218   4.961  0.0969 -0.0815  0.5498
   75MOL    C5525363   6.951   0.160   5.105  0.3930 -0.5806  0.1413
   75MOL    C5625364   7.076   0.143   5.168 -0.4178 -0.3852 -0.6661
   75MOL    C5725365   7.076   0.092   5.300  0.9226  0.6217 -0.2701
   75MOL    C5825366   6.955   0.053   5.365 -1.2939  0.5779 -0.2888
   75MOL    C5925367   6.834   0.074   5.297  0.8489 -0.1954 -0.0312
   75MOL    C6025368   6.832   0.128   5.167 -0.8867 -0.0748  0.5801
   75MOL    O6125369   7.066   0.289   4.930 -0.5596  0.5944 -0.3758
   75MOL    H6225370   6.849   0.032   4.889 -0.5803  1.3122  1.8872
   75MOL    H6325371   7.011   0.065   4.830  0.3257 -0.3767 -0.3359
   75MOL    H6425372   6.871   0.296   4.966 -1.4962 -1.5044 -0.9108
   75MOL    H6525373   7.168   0.181   5.127 -0.1760  0.1253  0.3277
   75MOL    H6625374   7.165   0.086   5.360  0.7088 -2.3276 -0.1931
   75MOL    H6725375   6.963   0.025   5.469  2.8014  0.0136 -0.6673
   75MOL    H6825376   6.738   0.067   5.348  1.6728  0.9182  1.7265
   75MOL    H6925377   6.745   0.158   5.112 -0.0704  1.2395 -0.0331
   75MOL    C7025378   7.055   0.385   4.832  0.1676  0.3171 -0.0449
   75MOL    C7125379   7.193   0.438   4.814  0.5856 -0.1933  0.2037
   75MOL    C7225380   7.178   0.571   4.743 -0.1801  0.4812 -0.3014
   75MOL    C7325381   7.258   0.679   4.783 -0.1996  0.2962 -0.3558
   75MOL    C7425382   7.240   0.806   4.722  0.7654 -0.3552 -0.7717
   75MOL    C7525383   7.158   0.822   4.613  0.3749 -0.1376 -0.3176
   75MOL    C7625384   7.079   0.717   4.572 -1.2795 -0.0516 -0.2357
   75MOL    C7725385   7.086   0.595   4.638 -0.4987  0.0574  0.1658
   75MOL    O7825386   7.255   0.345   4.735 -0.0180 -0.5331  0.1144
   75MOL    H7925387   7.010   0.355   4.737 -1.0368  0.6596  0.4071
   75MOL    H8025388   6.988   0.461   4.873 -0.7814 -0.3236 -0.4002
   75MOL    H8125389   7.251   0.438   4.906  1.9689  1.4814 -0.6310
   75MOL    H8225390   7.334   0.668   4.859  0.1321 -2.4557 -1.0456
   75MOL    H8325391   7.296   0.887   4.765 -1.6041  0.9807 -0.0746
   75MOL    H8425392   7.152   0.916   4.561  0.5936 -1.1751 -2.2738
   75MOL    H8525393   7.008   0.723   4.490 -0.7253  0.3705 -0.6901
   75MOL    H8625394   7.022   0.515   4.605 -0.6178  0.9849 -1.8987
   75MOL    C8725395   7.354   0.255   4.799 -0.0532  0.2684 -0.0787
   75MOL    C8825396   7.424   0.142   4.716 -0.3725 -0.1853  0.0930
   75MOL    C8925397   7.339   0.023   4.685 -0.2691 -0.2140 -0.2460
   75MOL    C9025398   7.257   8.042   4.783  0.3299  0.0061 -0.1261
   75MOL    C9125399   7.190   7.925   4.755 -0.1984  0.6154 -0.5707
   75MOL    C9225400   7.214   7.853   4.635 -0.0172 -0.7319  1.1489
   75MOL    C9325401   7.301   7.910   4.540 -0.2729  0.5711 -0.4953
   75MOL    C9425402   7.364   8.032   4.568  0.3511  0.3584  0.4099
   75MOL    O9525403   7.540   0.124   4.805 -0.2369  0.6010  0.1802
   75MOL    H9625404   7.306   0.221   4.891  2.7975 -2.6176  0.4383
   75MOL    H9725405   7.435   0.324   4.821  0.9981 -0.6792 -0.9224
   75MOL    H9825406   7.451   0.198   4.627 -0.2511 -0.3830  0.0055
   75MOL    H9925407   7.229   0.007   4.878 -0.1010  2.1339 -1.2250
   75MOL   H10025408   7.121   7.884   4.828 -0.4363  0.0927 -1.0859
   75MOL   H10125409   7.161   7.759   4.624 -2.3809  0.8919 -2.0335
   75MOL   H10225410   7.315   7.848   4.453 -2.1190  0.4787 -0.7519
   75MOL   H10325411   7.441   8.060   4.497  1.8832 -2.0445  1.0663
   75MOL   C10425412   7.648   0.038   4.753 -0.0388  0.1731 -0.5278
   75MOL   C10525413   7.771   0.051   4.843 -0.6821 -0.2723 -0.4658
   75MOL   C10625414   7.830   0.187   4.831  0.1905 -0.3205  0.0676
   75MOL   C10725415   7.791   0.289   4.922 -0.0970  0.9836  1.1137
   75MOL   C10825416   7.833   0.427   4.907  0.6155 -0.6107  0.0372
   75MOL   C10925417   7.924   0.459   4.807 -0.6229  0.0860 -0.6762
   75MOL   C11025418   7.970   0.357   4.718 -0.3153 -0.8921 -0.2190
   75MOL   C11125419   7.915   0.228   4.723 -0.3948 -0.5538 -0.1667
   75MOL   O11225420   7.741   8.077   4.971 -0.1678  0.3664  0.0220
   75MOL   H11325421   7.622   8.013   4.761  1.3950 -0.2494 -1.3029
   75MOL   H11425422   7.674   0.071   4.653  0.7031 -0.3587 -0.5129
   75MOL   H11525423   7.854   8.072   4.804 -0.1765  0.5710 -0.6762
   75MOL   H11625424   7.716   0.267   4.996 -0.9593  0.1524  0.0121
   75MOL   H11725425   7.788   0.496   4.977  0.2244  2.4251 -3.0657
   75MOL   H11825426   7.959   0.561   4.801 -0.3082  0.0933  0.9366
   75MOL   H11925427   8.037   0.386   4.638  0.1889  1.8571  1.1347
   75MOL   H12025428   7.945   0.157   4.649 -0.3887 -0.7111 -0.0131
   75MOL   C12125429   7.859   8.021   5.037  0.9121 -0.4415  0.1601
   75MOL   C12225430   7.831   7.867   5.032  0.1090 -0.1631  0.8219
   75MOL   C12325431   7.699   7.833   5.110  0.4760  0.8636 -0.1197
   75MOL   C12425432   7.572   7.856   5.061 -0.1947  0.5628  0.4286
   75MOL   C12525433   7.458   7.824   5.141 -0.5824 -0.2745  0.0955
   75MOL   C12625434   7.472   7.767   5.272 -0.0885 -0.4277  0.1083
   75MOL   C12725435   7.600   7.764   5.327 -0.0196 -0.2202 -0.3088
   75MOL   C12825436   7.713   7.792   5.244 -0.0194 -0.3230  0.5929
   75MOL   O12925437   7.834   7.828   4.894 -0.7652  0.1474 -0.2214
   75MOL   H13025438   7.862   8.041   5.144  0.3651  0.6752 -0.0317
   75MOL   H13125439   7.954   8.051   4.992  1.6211  0.6377  2.3148
   75MOL   H13225440   7.912   7.815   5.083 -0.1903 -0.4854  0.9743
   75MOL   H13325441   7.556   7.880   4.957 -0.6663 -1.0825  0.1098
   75MOL   H13425442   7.359   7.820   5.097 -1.0118 -1.1309  1.1143
   75MOL   H13525443   7.381   7.732   5.319 -1.2491  0.9034 -1.1005
   75MOL   H13625444   7.629   7.728   5.424  1.4806  2.2058  0.1651
   75MOL   H13725445   7.812   7.790   5.286 -0.7897 -0.2652  2.4970
   75MOL   C13825446   7.814   7.687   4.873  0.0097  0.0935 -0.1473
   75MOL   C13925447   7.890   7.660   4.741  0.2680 -0.2710 -0.4343
   75MOL   C14025448   7.818   7.727   4.629  0.1817  0.3257 -0.3045
   75MOL   C14125449   7.854   7.862   4.610 -0.7278 -0.2173  0.1444
   75MOL   C14225450   7.790   7.929   4.503  0.6353  0.4708  0.9072
   75MOL   C14325451   7.703   7.871   4.416  0.0740 -0.3215 -0.0865
   75MOL   C14425452   7.668   7.736   4.434  0.0639  0.3232  0.6945
   75MOL   C14525453   7.728   7.664   4.541  0.1494  0.0349 -0.1523
   75MOL   O14625454   8.028   7.699   4.750  0.4030  0.0296  0.4178
   75MOL   H14725455   7.710   7.655   4.865  0.1371 -0.1066 -1.0102
   75MOL   H14825456   7.855   7.633   4.959 -1.1748  0.0596  0.4046
   75MOL   H14925457   7.879   7.552   4.729 -0.0311 -0.3983  0.8653
   75MOL   H15025458   7.929   7.912   4.671  0.2249 -2.6542  1.0085
   75MOL   H15125459   7.808   8.034   4.487  0.6837  0.9119  3.5885
   75MOL   H15225460   7.660   7.928   4.335 -1.1057  0.5279  1.1219
   75MOL   H15325461   7.601   7.693   4.362  1.2102 -1.9027  0.9305
   75MOL   H15425462   7.706   7.559   4.544 -1.3107  0.3461  0.4376
   75MOL   C15525463   0.032   7.634   4.850  0.7165 -0.4419 -0.1071
   75MOL   C15625464   0.171   7.688   4.843 -0.3327  0.8192  0.5572
   75MOL   C15725465   0.186   7.816   4.915  0.0921  0.4341 -0.1457
   75MOL   C15825466   0.135   7.925   4.848  0.0198 -0.0903  0.7951
   75MOL   C15925467   0.128   8.053   4.907 -0.6114 -0.6036  0.2717
   75MOL   C16025468   0.171   8.069   5.041  0.2848  0.2469  0.0177
   75MOL   C16125469   0.212   7.956   5.113  0.4463  0.0662  0.1825
   75MOL   C16225470   0.229   7.833   5.044  0.2306 -0.2236  0.4993
   75MOL   O16325471   0.266   7.591   4.889 -0.1705 -0.3490  0.1016
   75MOL   H16425472   0.031   7.527   4.828  1.8070  0.1530 -3.2926
   75MOL   H16525473   8.074   7.646   4.951 -0.1658  0.8837 -0.5800
   75MOL   H16625474   0.197   7.706   4.739 -1.2897  0.8296  0.3094
   75MOL   H16725475   0.088   7.908   4.752  2.2169 -2.4279  0.0534
   75MOL   H16825476   0.087   0.058   4.855 -3.8054 -2.0627  0.2990
   75MOL   H16925477   0.175   0.087   5.087  0.0831 -0.2294  1.0545
   75MOL   H17025478   0.240   7.972   5.216  2.3903 -1.9040 -0.0001
   75MOL   H17125479   0.235   7.746   5.108  0.8256 -0.0692  0.6541
   75MOL   C17225480   0.344   7.530   4.786 -0.1537 -0.4846  0.4222
   75MOL   C17325481   0.444   7.425   4.846  0.4121 -0.2633 -0.1515
   75MOL   C17425482   0.521   7.484   4.963  0.2856 -0.7590  0.1192
   75MOL   C17525483   0.607   7.599   4.940  0.3777  0.9999 -0.0664
   75MOL   C17625484   0.654   7.671   5.055 -0.7534  0.2720  0.3867
   75MOL   C17725485   0.639   7.612   5.188 -0.7946  0.3476  0.4986
   75MOL   C17825486   0.559   7.499   5.208  0.7240  0.5009  0.2493
   75MOL   C17925487   0.503   7.432   5.095 -0.1117 -0.3260  0.9495
   75MOL   O18025488   0.536   7.373   4.749  0.4475  0.6423 -0.2521
   75MOL   H18125489   0.290   7.480   4.706  1.1609 -0.2088 -0.6671
   75MOL   H18225490   0.399   7.606   4.732  2.6665 -1.2287  2.1269
   75MOL   H18325491   0.382   7.348   4.891  2.4411 -1.4180  0.7048
   75MOL   H18425492   0.614   7.640   4.841 -2.0423 -0.7785 -1.0103
   75MOL   H18525493   0.702   7.767   5.046 -0.3046  0.3275  2.9643
   75MOL   H18625494   0.681   7.664   5.273  0.1730  0.7574 -0.2206
   75MOL   H18725495   0.555   7.449   5.304 -1.2126  0.2412  0.0567
   75MOL   H18825496   0.446   7.342   5.111 -1.9092  0.8292  1.1587
   75MOL   C18925497   0.518   7.237   4.726 -0.4319  1.4375  0.1717
   75MOL   C19025498   0.594   7.183   4.602 -0.5183  0.6390 -0.2847
   75MOL   C19125499   0.536   7.058   4.526 -0.4875  0.2305  0.3399
   75MOL   C19225500   0.497   7.067   4.395 -0.1488 -0.0021  0.0336
   75MOL   C19325501   0.440   6.955   4.327  0.0845  0.5989 -0.4908
   75MOL   C19425502   0.422   6.834   4.400 -0.6005 -0.5970  0.6928
   75MOL   C19525503   0.456   6.832   4.535  0.2083 -0.0665 -0.4515
   75MOL   C19625504   0.511   6.945   4.600  0.1389  0.4227 -0.3625
   75MOL   O19725505   0.732   7.161   4.635 -0.2700 -0.0465 -0.1985
   75MOL   H19825506   0.539   7.179   4.816 -2.0511  2.0596  0.9715
   75MOL   H19925507   0.415   7.208   4.704 -0.1905  1.2512 -0.7292
   75MOL   H20025508   0.595   7.260   4.525  0.1149  0.5278 -0.3917
   75MOL   H20125509   0.502   7.165   4.350 -0.0005 -0.6567 -1.3894
   75MOL   H20225510   0.414   6.963   4.222  0.4859  0.6489 -0.5850
   75MOL   H20325511   0.379   6.749   4.348  0.7070 -0.8965  0.1025
   75MOL   H20425512   0.422   6.743   4.587 -0.6911 -0.0450 -0.9890
   75MOL   H20525513   0.551   6.946   4.700 -0.7673  1.7232  0.0015
   75MOL   C20625514   0.814   7.265   4.585 -0.1694 -0.1806 -0.0877
   75MOL   C20725515   0.957   7.262   4.644 -0.7150  0.6211 -0.1625
   75MOL   C20825516   0.961   7.239   4.795 -0.2494  1.1157  0.4384
   75MOL   C20925517   1.056   7.154   4.859  0.0589  0.7945  0.0418
   75MOL   C21025518   1.053   7.136   5.001 -0.1549  0.5092  0.0056
   75MOL   C21125519   0.946   7.195   5.075  0.4353  0.0023 -0.0492
   75MOL   C21225520   0.859   7.282   5.008  0.3079  0.6167  0.1092
   75MOL   C21325521   0.867   7.306   4.870  0.2478 -0.1651 -0.1554
   75MOL   O21425522   1.014   7.389   4.613  0.4859  0.0301 -0.3899
   75MOL   H21525523   0.813   7.260   4.476 -1.4073  0.9696 -0.1409
   75MOL   H21625524   0.774   7.364   4.606 -1.0981 -0.7947  1.0961
   75MOL   H21725525   1.023   7.181   4.613  0.9816  2.1528 -0.6500
   75MOL   H21825526   1.141   7.116   4.805  0.5897 -1.9674  2.6774
   75MOL   H21925527   1.118   7.064   5.047  0.6503 -0.0332 -1.9392
   75MOL   H22025528   0.938   7.179   5.181 -5.1113  0.5985 -0.2170
   75MOL   H22125529   0.781   7.333   5.064 -2.7942 -2.6342 -1.0096
   75MOL   H22225530   0.792   7.368   4.824  2.1213  1.5602 -0.9955
   75MOL   C22325531   1.030   7.424   4.477 -0.2592 -0.3888  0.0164
   75MOL   C22425532   1.148   7.357   4.400 -0.4366 -0.1011 -0.3356
   75MOL   C22525533   1.275   7.368   4.470  0.2292  0.0526 -0.2015
   75MOL   C22625534   1.369   7.467   4.425  0.6047  0.4205 -0.8058
   75MOL   C22725535   1.497   7.471   4.487  0.4834 -0.3397  0.0369
   75MOL   C22825536   1.529   7.379   4.585 -0.0306 -0.1562 -0.6042
   75MOL   C22925537   1.439   7.276   4.623  0.4329 -0.4116 -0.1058
   75MOL   C23025538   1.313   7.273   4.568  1.1621  0.3814  0.5558
   75MOL   O23125539   1.107   7.233   4.361  0.5074  0.3712  0.0199
   75MOL   H23225540   0.945   7.442   4.410  1.0339 -2.5019 -2.2903
   75MOL   H23325541   1.062   7.528   4.482 -0.1013 -0.3809 -0.9354
   75MOL   H23425542   1.152   7.402   4.301 -1.9248  1.2856  0.2073
   75MOL   H23525543   1.353   7.537   4.344 -0.0457  1.2106 -0.0005
   75MOL   H23625544   1.564   7.547   4.448 -2.0036  1.8052 -0.2724
   75MOL   H23725545   1.628   7.385   4.626 -0.1958 -0.5047 -0.1368
   75MOL   H23825546   1.464   7.216   4.709  0.0086  1.8182  1.6323
   75MOL   H23925547   1.247   7.192   4.594  0.5589  0.7650  0.2290
   75MOL   C24025548   1.187   7.156   4.273  1.2494  0.4272  0.2649
   75MOL   C24125549   1.097   7.048   4.203  0.8908 -0.5067  0.0906
   75MOL   C24225550   1.053   6.956   4.310 -0.1006  0.0553  0.4654
   75MOL   C24325551   0.951   6.984   4.406  0.2232  0.5026  0.1787
   75MOL   C24425552   0.920   6.889   4.506  0.3127 -0.1543 -0.0967
   75MOL   C24525553   0.987   6.771   4.515 -0.3266 -0.2910  0.8740
   75MOL   C24625554   1.095   6.744   4.421 -0.3300 -0.0547  0.4129
   75MOL   C24725555   1.127   6.831   4.316 -0.0891 -0.7109  0.2384
   75MOL   O24825556   0.989   7.115   4.138  0.1674 -0.0351  0.7906
   75MOL   H24925557   1.247   7.213   4.202 -0.4727 -0.7507 -2.1710
   75MOL   H25025558   1.268   7.103   4.324  2.3395  0.9164 -0.9108
   75MOL   H25125559   1.151   6.986   4.131  1.4932 -1.0676  1.0059
   75MOL   H25225560   0.897   7.078   4.398 -0.1861  0.0974 -2.2859
   75MOL   H25325561   0.852   6.907   4.588 -0.4983  0.7841 -0.9602
   75MOL   H25425562   0.968   6.700   4.594  3.2653 -1.4924  0.7840
   75MOL   H25525563   1.145   6.649   4.433  2.7860  1.5659  0.6553
   75MOL   H25625564   1.205   6.815   4.242 -1.1634  0.7469 -1.2453
   75MOL   C25725565   0.897   7.035   4.052 -0.3636 -0.2962  0.2564
   75MOL   C25825566   0.752   7.029   4.101  0.6173 -0.3150 -0.1851
   75MOL   C25925567   0.678   6.916   4.038  0.1348 -0.0502  0.3703
   75MOL   C26025568   0.634   6.929   3.904  0.1472 -0.1921 -0.8675
   75MOL   C26125569   0.547   6.836   3.840 -0.4683  0.7856  0.3152
   75MOL   C26225570   0.506   6.728   3.912 -0.0471  0.8596 -0.3442
   75MOL   C26325571   0.545   6.705   4.043  0.0458  0.2708 -0.2858
   75MOL   C26425572   0.635   6.800   4.104  0.0524 -0.2322  0.3160
   75MOL   O26525573   0.675   7.150   4.079 -0.4493  0.7207 -0.1453
   75MOL   H26625574   0.927   6.931   4.047 -0.9856 -0.5540  1.6930
   75MOL   H26725575   0.906   7.070   3.949 -2.2575 -1.1970 -0.2353
   75MOL   H26825576   0.754   7.009   4.208 -0.4492 -2.2679 -0.4962
   75MOL   H26925577   0.661   7.015   3.844 -0.4937 -0.7355 -1.9448
   75MOL   H27025578   0.509   6.853   3.740  0.3204 -0.2213 -0.1615
   75MOL   H27125579   0.444   6.661   3.853 -0.0349  0.8080 -0.2979
   75MOL   H27225580   0.499   6.621   4.093  0.7745  0.3678  0.5657
   75MOL   H27325581   0.661   6.782   4.207  2.3791 -2.7509 -0.6440
   75MOL   C27425582   0.718   7.271   4.136 -0.3307 -0.2368 -0.4315
   75MOL   C27525583   0.593   7.361   4.126 -0.0562  0.5458  0.0241
   75MOL   C27625584   0.564   7.409   3.988  0.1634 -0.3015  0.2297
   75MOL   C27725585   0.531   7.315   3.884 -0.0714  0.2718 -0.2272
   75MOL   C27825586   0.499   7.358   3.755 -0.2032  0.0424  0.1070
   75MOL   C27925587   0.501   7.496   3.723 -0.3157 -0.0585  0.2400
   75MOL   C28025588   0.525   7.588   3.821  0.7619  0.1578  0.5357
   75MOL   C28125589   0.564   7.548   3.950  0.1060  0.2661 -0.6146
   75MOL   O28225590   0.608   7.469   4.214 -0.1847  0.2805  0.2469
   75MOL   H28325591   0.720   7.256   4.244 -2.6852  2.3431  0.0336
   75MOL   H28425592   0.808   7.318   4.097 -1.7476  1.5171 -1.6375
   75MOL   H28525593   0.522   7.288   4.165 -0.0548  0.4515 -0.1508
   75MOL   H28625594   0.532   7.207   3.897  1.8972  0.2475 -0.4294
   75MOL   H28725595   0.461   7.288   3.682 -1.3925  1.5212 -0.7006
   75MOL   H28825596   0.475   7.536   3.625 -1.5058 -0.1424  0.5079
   75MOL   H28925597   0.508   7.690   3.790  2.3438  0.7914  1.7215
   75MOL   H29025598   0.591   7.622   4.023  0.7466  0.0975 -0.6819
   75MOL   C29125599   0.500   7.521   4.275 -0.5488  0.1401 -0.0048
   75MOL   C29225600   0.524   7.659   4.346 -0.3541 -0.3499 -0.2637
   75MOL   C29325601   0.653   7.675   4.427 -0.3251 -0.1200  0.6799
   75MOL   C29425602   0.754   7.751   4.375  0.0679 -0.1136 -0.2278
   75MOL   C29525603   0.866   7.782   4.444 -0.1491 -0.6768 -0.0390
   75MOL   C29625604   0.891   7.711   4.565 -1.1514 -0.3904  0.0330
   75MOL   C29725605   0.801   7.621   4.608  1.2621  0.9312 -0.2909
   75MOL   C29825606   0.674   7.602   4.540 -0.0975  0.9886  0.0824
   75MOL   O29925607   0.505   7.768   4.254 -0.3674  0.4681  0.3260
   75MOL   H30025608   0.476   7.442   4.347  1.1155 -1.3312 -1.0225
   75MOL   H30125609   0.410   7.527   4.214  0.2596 -2.0022 -1.4660
   75MOL   H30225610   0.445   7.676   4.419 -1.5593 -0.3000 -1.5616
   75MOL   H30325611   0.738   7.806   4.283 -0.5000  0.6100  0.2948
   75MOL   H30425612   0.939   7.854   4.410 -0.9151 -0.0482 -0.3997
   75MOL   H30525613   0.985   7.723   4.616 -0.8672 -2.4240  0.0397
   75MOL   H30625614   0.824   7.562   4.696 -0.5225  1.8631  0.8244
   75MOL   H30725615   0.606   7.529   4.580  2.0548 -0.5570  1.0554
   75MOL   C30825616   0.450   7.886   4.318 -0.3398  0.4341  0.6176
   75MOL   C30925617   0.453   7.998   4.215  0.7981 -0.7296  0.6462
   75MOL   C31025618   0.599   8.003   4.154 -0.1664 -0.6529 -0.2371
   75MOL   C31125619   0.621   7.947   4.028 -0.2384 -0.1231 -0.7570
   75MOL   C31225620   0.754   7.939   3.984  0.2305 -0.2284 -0.3184
   75MOL   C31325621   0.859   7.995   4.063 -0.6094  0.3506  0.2380
   75MOL   C31425622   0.835   8.062   4.181  0.1090  0.4133 -0.6235
   75MOL   C31525623   0.700   8.065   4.228  0.0523  0.4117 -0.2946
   75MOL   O31625624   0.362   7.968   4.110 -0.1641 -0.1136  0.5571
   75MOL   H31725625   0.522   7.907   4.397 -0.0069 -0.6770  0.6177
   75MOL   H31825626   0.354   7.867   4.367  0.1676  3.2957  2.8066
   75MOL   H31925627   0.436   0.019   4.252 -3.5116 -0.5839 -1.4185
   75MOL   H32025628   0.550   7.898   3.962 -0.7560  0.5058 -0.6709
   75MOL   H32125629   0.775   7.899   3.886  0.3661  0.5150 -0.5969
   75MOL   H32225630   0.958   7.979   4.023 -1.4933 -0.7115 -1.5938
   75MOL   H32325631   0.925   0.003   4.237  0.1697  0.7268 -0.8376
   75MOL   H32425632   0.671   0.034   4.320  1.0276 -1.0565  0.8257
   75MOL   C32525633   0.225   7.971   4.158 -0.1297 -0.6843  0.1066
   75MOL   C32625634   0.130   7.977   4.036  0.3971 -0.9759 -0.3749
   75MOL   C32725635   8.068   7.996   4.072 -0.3548  0.3429 -0.0524
   75MOL   C32825636   7.978   7.899   4.033  0.6685 -0.5606 -0.0880
   75MOL   C32925637   7.842   7.918   4.058  0.6657 -0.6244 -0.1762
   75MOL   C33025638   7.796   8.038   4.110  0.6418  0.2166 -0.0587
   75MOL   C33125639   7.883   0.052   4.163 -0.6376  0.7290 -0.0616
   75MOL   C33225640   8.025   0.034   4.138 -0.0182 -0.1375 -0.0271
   75MOL   O33325641   0.180   0.009   3.964 -0.2097  0.4195 -0.7549
   75MOL   H33425642   0.217   8.061   4.219  1.8376  0.2018 -0.8576
   75MOL   H33525643   0.199   7.890   4.226 -0.6213 -1.9157 -1.5293
   75MOL   H33625644   0.130   7.888   3.974  1.8929 -1.7425  0.6896
   75MOL   H33725645   8.014   7.808   3.987 -1.2945  0.2054 -3.2693
   75MOL   H33825646   7.768   7.843   4.033  1.2269 -1.2141 -0.0754
   75MOL   H33925647   7.689   8.047   4.122  0.5028  1.6255 -2.0822
   75MOL   H34025648   7.854   0.143   4.213  0.4202  1.1418 -0.1895
   75MOL   H34125649   0.009   0.116   4.166  0.6834 -0.7131  0.0685
   75MOL   H34225650   0.266   8.074   3.929 -0.4573 -1.2930 -0.6695
   76MOL     C125651   1.284   1.633   7.443  0.4702  0.2895 -0.2464
   76MOL     C225652   1.139   1.677   7.415  0.2177 -0.6697  0.2243
   76MOL     C325653   1.112   1.708   7.269  0.0001 -0.1938  0.5094
   76MOL     C425654   1.125   1.610   7.171  0.2717  0.1608  0.1520
   76MOL     C525655   1.118   1.645   7.031 -0.1235 -0.2069 -0.2180
   76MOL     C625656   1.097   1.777   7.001  0.4358 -0.2680 -0.2460
   76MOL     C725657   1.083   1.879   7.097 -0.3777 -0.6679  0.3958
   76MOL     C825658   1.088   1.841   7.231  0.0937  0.6749  0.1584
   76MOL     O925659   1.124   1.789   7.499  0.5732  0.1888 -0.4556
   76MOL    H1025660   1.311   1.546   7.381 -0.3531 -1.9413  2.4332
   76MOL    H1125661   1.354   1.710   7.412  1.5741 -1.7333 -3.1244
   76MOL    H1225662   1.076   1.589   7.432  0.9126 -1.4941 -1.3123
   76MOL    H1325663   1.145   1.506   7.195 -1.3551  0.1678  1.6637
   76MOL    H1425664   1.140   1.563   6.963 -2.8333 -0.3323 -1.0313
   76MOL    H1525665   1.100   1.805   6.897 -1.2237 -2.6780 -0.9864
   76MOL    H1625666   1.071   1.982   7.067 -1.4858 -0.5123  1.3728
   76MOL    H1725667   1.071   1.923   7.299  1.2159 -0.6629  2.1003
   76MOL    H1825668   1.287   1.605   7.548  1.2518 -0.4995 -0.4615
   76MOL    C1925669   0.993   1.805   7.556  0.6165  0.1041  0.1111
   76MOL    C2025670   0.993   1.751   7.707 -0.4970 -0.2500  0.2567
   76MOL    C2125671   0.850   1.751   7.767 -0.1944 -0.3186 -0.2946
   76MOL    C2225672   0.814   1.843   7.872  0.6011  0.1526  0.0844
   76MOL    C2325673   0.680   1.838   7.930 -0.0463 -0.2237 -0.2180
   76MOL    C2425674   0.584   1.753   7.874  0.1442  0.5027 -0.1884
   76MOL    C2525675   0.621   1.667   7.770 -0.1934 -0.0222  0.3690
   76MOL    C2625676   0.750   1.661   7.711 -0.2631  0.0801  0.4277
   76MOL    O2725677   1.075   1.829   7.788  0.2079  0.0871  0.2491
   76MOL    H2825678   0.973   1.911   7.546  1.6025  0.2260 -0.6483
   76MOL    H2925679   0.922   1.746   7.499 -0.3189  0.1501  1.2190
   76MOL    H3025680   1.030   1.649   7.705 -1.3256 -0.6102  1.9456
   76MOL    H3125681   0.884   1.913   7.915 -1.9355  1.2013  2.5594
   76MOL    H3225682   0.666   1.901   8.016  0.1908 -0.7681  0.2281
   76MOL    H3325683   0.489   1.738   7.922  1.0216 -0.4844  1.2828
   76MOL    H3425684   0.542   1.601   7.738 -1.8762  0.0594  4.0293
   76MOL    H3525685   0.769   1.597   7.626 -1.7039 -2.6322  2.1064
   76MOL    C3625686   1.126   1.765   7.903 -0.0024  0.6473  0.6101
   76MOL    C3725687   1.270   1.714   7.891  0.3129  0.6081  0.1990
   76MOL    C3825688   1.308   1.646   8.020 -0.2726 -0.4332  0.0863
   76MOL    C3925689   1.306   1.505   8.033 -0.1780 -0.4962 -0.4610
   76MOL    C4025690   1.325   1.455   0.079  0.1305  0.2735  0.0021
   76MOL    C4125691   1.354   1.538   0.189  0.1173 -0.0750  0.3316
   76MOL    C4225692   1.365   1.676   0.173  0.2690  0.3747 -0.2787
   76MOL    C4325693   1.343   1.734   0.044  0.1821  0.1539 -0.2038
   76MOL    O4425694   1.351   1.824   7.866  0.5226 -0.4333 -0.4386
   76MOL    H4525695   1.118   1.831   7.989 -1.1713  0.3132  0.7715
   76MOL    H4625696   1.059   1.684   7.934 -1.5186  1.6277 -0.0604
   76MOL    H4725697   1.283   1.634   7.818  0.2051  1.2161 -0.4901
   76MOL    H4825698   1.287   1.442   7.948 -1.3130 -1.6943  0.6658
   76MOL    H4925699   1.324   1.348   0.089  0.1375  0.0899 -1.8728
   76MOL    H5025700   1.364   1.485   0.283 -1.6023 -1.5062 -0.2634
   76MOL    H5125701   1.381   1.742   0.257 -0.8573 -0.6395  0.7602
   76MOL    H5225702   1.368   1.839   0.043  0.0848  0.1784  0.0694
   76MOL    C5325703   1.439   1.809   7.756 -0.5618 -0.7361  0.6300
   76MOL    C5425704   1.524   1.930   7.738  0.4594  0.6076  0.1726
   76MOL    C5525705   1.642   1.928   7.829 -0.0361 -0.9808  0.4777
   76MOL    C5625706   1.765   1.879   7.783 -0.0530 -0.3843  0.4454
   76MOL    C5725707   1.871   1.881   7.877 -0.2047 -0.3197  0.7262
   76MOL    C5825708   1.861   1.927   8.009  0.7265 -0.5088  0.0955
   76MOL    C5925709   1.734   1.976   8.051 -0.0704 -0.4987  0.4102
   76MOL    C6025710   1.627   1.973   7.958  0.1239  0.2386 -0.8827
   76MOL    O6125711   1.564   1.942   7.602  0.4763 -0.1469 -0.0241
   76MOL    H6225712   1.504   1.721   7.751  0.7953  0.3583 -2.2947
   76MOL    H6325713   1.372   1.800   7.671  0.9561  2.3733 -1.0015
   76MOL    H6425714   1.462   2.017   7.759 -0.4209 -0.1497  0.7491
   76MOL    H6525715   1.788   1.837   7.687  1.2853 -1.1006  1.0709
   76MOL    H6625716   1.962   1.847   7.829  0.2403 -2.0463  2.7218
   76MOL    H6725717   1.945   1.931   8.078  0.8908  1.2805 -0.1989
   76MOL    H6825718   1.718   2.009   0.072  0.5349  2.6554 -0.4918
   76MOL    H6925719   1.529   2.011   7.983 -0.9593 -2.5421 -0.7743
   76MOL    C7025720   1.616   2.070   7.564  0.2166 -0.0390  0.2785
   76MOL    C7125721   1.646   2.052   7.415  0.5576 -0.6209 -0.3695
   76MOL    C7225722   1.737   1.932   7.386 -0.9718 -0.4473 -0.3191
   76MOL    C7325723   1.688   1.826   7.313 -0.2658 -0.0828  0.6595
   76MOL    C7425724   1.775   1.712   7.297 -0.1293 -0.1761 -0.1619
   76MOL    C7525725   1.911   1.716   7.342  0.5155 -0.1863  0.0177
   76MOL    C7625726   1.954   1.826   7.414 -0.1842 -0.2654  0.4168
   76MOL    C7725727   1.867   1.935   7.434  0.2934 -0.4345  0.2698
   76MOL    O7825728   1.707   2.168   7.370 -0.2801  0.6028  0.1002
   76MOL    H7925729   1.541   2.149   7.573  1.8125  1.5027  0.2958
   76MOL    H8025730   1.705   2.087   7.625  0.9581 -0.5113 -0.6681
   76MOL    H8125731   1.547   2.044   7.369  0.4297  0.1498 -0.2369
   76MOL    H8225732   1.587   1.827   7.274  0.0486  0.5501 -0.1350
   76MOL    H8325733   1.734   1.631   7.238  0.6993 -0.7288  0.0047
   76MOL    H8425734   1.980   1.635   7.326 -0.0748 -0.9415  1.2096
   76MOL    H8525735   2.053   1.825   7.458  0.5857  1.8902 -1.1730
   76MOL    H8625736   1.894   2.029   7.480  1.4587 -2.1192  3.1475
   76MOL    C8725737   1.623   2.279   7.344 -0.0112 -0.0089 -0.1281
   76MOL    C8825738   1.667   2.408   7.419 -0.0405 -0.9812  0.1611
   76MOL    C8925739   1.582   2.535   7.407  0.2045 -0.7175 -0.1758
   76MOL    C9025740   1.441   2.547   7.448 -0.7032  0.1043 -0.0972
   76MOL    C9125741   1.374   2.668   7.429  0.5413 -1.0038  0.5941
   76MOL    C9225742   1.443   2.781   7.379  0.2995  1.1829  0.1255
   76MOL    C9325743   1.578   2.772   7.349  1.0808  0.9226 -0.0480
   76MOL    C9425744   1.644   2.648   7.359  0.5867 -0.2140  0.9621
   76MOL    O9525745   1.801   2.428   7.396  0.3844  0.5723  0.2569
   76MOL    H9625746   1.521   2.248   7.364  0.1548 -0.0153  0.7239
   76MOL    H9725747   1.621   2.286   7.235  0.5633 -1.7055 -0.2624
   76MOL    H9825748   1.656   2.389   7.525 -1.0111 -1.1909  0.0257
   76MOL    H9925749   1.392   2.457   7.483 -0.8294  1.0033  2.0824
   76MOL   H10025750   1.268   2.678   7.452  0.3996  1.4099 -0.8691
   76MOL   H10125751   1.397   2.879   7.381 -0.3462  0.8830  1.7697
   76MOL   H10225752   1.627   2.863   7.319 -0.0374  1.2110 -1.0313
   76MOL   H10325753   1.743   2.656   7.316 -0.0424  1.2197 -0.2650
   76MOL   C10425754   1.885   2.401   7.509  0.1926 -0.2828  0.2764
   76MOL   C10525755   2.030   2.427   7.461 -0.2824  0.1347 -0.0164
   76MOL   C10625756   2.075   2.323   7.364 -0.0731  0.2878  0.2565
   76MOL   C10725757   2.115   2.195   7.405 -0.0075  0.1881 -0.2294
   76MOL   C10825758   2.162   2.101   7.318 -0.6153  0.4186  0.3637
   76MOL   C10925759   2.165   2.136   7.183 -0.3602  0.5989  0.3808
   76MOL   C11025760   2.111   2.256   7.134  0.1508 -0.7012  0.3963
   76MOL   C11125761   2.070   2.352   7.223  0.6897  0.4627 -0.4527
   76MOL   O11225762   2.047   2.562   7.413  0.2931  0.1862 -0.3125
   76MOL   H11325763   1.864   2.472   7.588  2.5646 -1.8073  2.3815
   76MOL   H11425764   1.864   2.302   7.549 -0.1412 -0.5820 -0.6306
   76MOL   H11525765   2.098   2.404   7.543  1.1895  0.5949 -1.0921
   76MOL   H11625766   2.107   2.171   7.510  0.3465  0.6366 -0.1012
   76MOL   H11725767   2.212   2.012   7.353 -2.0947 -0.2289  0.8832
   76MOL   H11825768   2.202   2.061   7.115 -1.9727 -0.2293  0.3930
   76MOL   H11925769   2.115   2.286   7.030  1.8336 -0.0398  0.6316
   76MOL   H12025770   2.045   2.452   7.192 -0.3413  0.8663  1.5608
   76MOL   C12125771   2.168   2.626   7.450  0.4330 -0.3868 -0.0793
   76MOL   C12225772   2.162   2.691   7.587 -0.3478  0.0231 -0.7755
   76MOL   C12325773   2.094   2.825   7.586  0.1062 -0.6155  0.1913
   76MOL   C12425774   2.160   2.936   7.647 -0.0772  0.4678 -0.0534
   76MOL   C12525775   2.109   3.064   7.646  0.4272 -0.6315 -0.1251
   76MOL   C12625776   1.974   3.074   7.595 -1.1641 -0.2912 -0.1111
   76MOL   C12725777   1.912   2.969   7.525 -0.1075  0.0154 -0.0590
   76MOL   C12825778   1.973   2.844   7.532 -0.5471  0.1575  1.0211
   76MOL   O12925779   2.105   2.603   7.678 -0.0893 -0.1180 -0.3126
   76MOL   H13025780   2.199   2.706   7.383 -3.6874  1.6320  0.2902
   76MOL   H13125781   2.255   2.560   7.439  0.0174 -0.9889  0.2002
   76MOL   H13225782   2.262   2.714   7.625  0.2189 -1.8801 -1.0416
   76MOL   H13325783   2.260   2.925   7.685  0.8875  0.3211 -2.6027
   76MOL   H13425784   2.165   3.146   7.688  2.8469 -2.1150 -0.3410
   76MOL   H13525785   1.924   3.169   7.602 -0.4423  0.3703 -3.1008
   76MOL   H13625786   1.816   2.987   7.480 -0.7242 -1.6525  0.5492
   76MOL   H13725787   1.921   2.763   7.483  1.0444 -1.7975  2.4936
   76MOL   C13825788   2.103   2.656   7.807  0.1023  0.3353 -0.4283
   76MOL   C13925789   2.103   2.541   7.916  0.6831 -0.5341  0.2165
   76MOL   C14025790   1.971   2.469   7.907  0.5122 -0.2216 -0.2795
   76MOL   C14125791   1.959   2.353   7.832 -0.2395  0.4574  0.5072
   76MOL   C14225792   1.843   2.288   7.828  0.1251  0.0900  0.4115
   76MOL   C14325793   1.731   2.329   7.903  0.3798  0.2060  0.1182
   76MOL   C14425794   1.745   2.437   7.990 -0.8683 -0.1839  0.2137
   76MOL   C14525795   1.865   2.513   7.983  0.5457  0.0045  0.2111
   76MOL   O14625796   2.218   2.449   7.904 -0.0021  0.1929  0.5788
   76MOL   H14725797   2.011   2.714   7.805 -1.1621 -1.6599 -1.2990
   76MOL   H14825798   2.193   2.715   7.826  0.1063  0.1658  0.1123
   76MOL   H14925799   2.102   2.592   8.013 -3.5226  0.0329 -0.0559
   76MOL   H15025800   2.040   2.317   7.769 -0.5497  1.0384 -0.2355
   76MOL   H15125801   1.846   2.196   7.771 -0.0772 -0.2272  0.9096
   76MOL   H15225802   1.637   2.275   7.903 -1.8755  3.8920  0.7194
   76MOL   H15325803   1.663   2.465   8.054  0.0142  1.0499  0.8253
   76MOL   H15425804   1.859   2.602   8.043 -1.1530  0.5116 -0.6734
   76MOL   C15525805   2.225   2.365   8.023  0.7981 -0.2920 -0.1855
   76MOL   C15625806   2.306   2.239   8.022  0.5633 -0.1351  0.0912
   76MOL   C15725807   2.295   2.165   7.893  0.2578 -1.0440  0.2234
   76MOL   C15825808   2.245   2.031   7.890 -0.6763 -0.2569 -0.4463
   76MOL   C15925809   2.242   1.960   7.767 -0.4986  0.3588  0.1569
   76MOL   C16025810   2.289   2.021   7.647 -0.1529  0.1379 -0.3310
   76MOL   C16125811   2.330   2.157   7.657  0.4101 -0.0925  0.4425
   76MOL   C16225812   2.340   2.225   7.775 -0.6240  0.3040 -0.1544
   76MOL   O16325813   2.446   2.264   8.040 -0.3281  0.6190 -0.0335
   76MOL   H16425814   2.125   2.326   8.041  1.5976 -1.2500  2.3700
   76MOL   H16525815   2.248   2.422   0.033  1.7526  0.7229 -1.0535
   76MOL   H16625816   2.271   2.178   0.026  0.2792  0.5023  0.4391
   76MOL   H16725817   2.217   1.977   7.979  0.8335 -0.8540 -0.3169
   76MOL   H16825818   2.209   1.857   7.764 -0.0139  0.2235 -0.6138
   76MOL   H16925819   2.283   1.975   7.549  1.2600  1.7931 -1.2307
   76MOL   H17025820   2.366   2.198   7.564 -2.9769  0.8061 -0.5227
   76MOL   H17125821   2.377   2.326   7.776  0.8582 -0.2361 -0.7877
   76MOL   C17225822   2.507   2.196   0.070 -0.0487  0.0443  0.2846
   76MOL   C17325823   2.541   2.046   0.062  0.5741  0.0663  0.3326
   76MOL   C17425824   2.629   2.023   8.023  0.2625 -0.1923 -0.2658
   76MOL   C17525825   2.590   1.948   7.909  0.4078  0.4619 -0.4831
   76MOL   C17625826   2.680   1.939   7.799  0.2293 -0.5798 -0.2231
   76MOL   C17725827   2.809   2.000   7.806  0.8706 -0.3533  0.0088
   76MOL   C17825828   2.851   2.068   7.921 -0.6822 -0.0009  0.0211
   76MOL   C17925829   2.758   2.084   8.025 -0.2911 -0.0626  0.0427
   76MOL   O18025830   2.417   1.976   0.077  0.4111 -0.5666  0.3184
   76MOL   H18125831   2.599   2.254   0.073  1.2244 -1.9156  0.5232
   76MOL   H18225832   2.461   2.225   0.164 -0.3586  2.3068 -0.5415
   76MOL   H18325833   2.606   2.026   0.147  0.4041 -2.0768 -0.0203
   76MOL   H18425834   2.500   1.888   7.908  1.4779 -1.2348  0.9267
   76MOL   H18525835   2.657   1.883   7.710  0.2272 -0.5058 -0.2693
   76MOL   H18625836   2.884   1.984   7.730  0.1078 -2.5190 -0.3247
   76MOL   H18725837   2.948   2.114   7.920 -0.8862  0.4429 -2.3054
   76MOL   H18825838   2.786   2.147   0.029  2.3486 -1.2275  0.0949
   76MOL   C18925839   2.374   1.951   0.205  0.1194  0.1138 -0.0279
   76MOL   C19025840   2.244   1.874   0.215  0.1580 -0.2354 -0.5915
   76MOL   C19125841   2.171   1.899   0.346 -0.2542  0.5409  0.1429
   76MOL   C19225842   2.061   1.983   0.358  0.1144  0.2413 -0.3164
   76MOL   C19325843   2.006   2.009   0.482 -0.1652  0.1191 -0.6760
   76MOL   C19425844   2.067   1.955   0.600 -0.1947  1.0050 -0.1555
   76MOL   C19525845   2.180   1.872   0.588 -0.6241  0.5209  0.5810
   76MOL   C19625846   2.232   1.840   0.459  0.5211 -0.0028 -0.2148
   76MOL   O19725847   2.275   1.740   0.201  0.5110  0.1235  0.0944
   76MOL   H19825848   2.461   1.906   0.252 -0.2860 -0.0656  0.5583
   76MOL   H19925849   2.360   2.048   0.252  1.2514  0.2514  0.0307
   76MOL   H20025850   2.177   1.896   0.133  0.5936  3.2912 -0.0668
   76MOL   H20125851   2.019   2.027   0.268  0.3522  0.4648 -0.3185
   76MOL   H20225852   1.923   2.077   0.492 -0.8043 -0.6211 -0.8870
   76MOL   H20325853   2.014   1.979   0.691  0.1753  1.2636 -0.0075
   76MOL   H20425854   2.226   1.833   0.678 -1.3665 -0.1793  0.6592
   76MOL   H20525855   2.320   1.778   0.452 -0.4571 -1.9092  3.2640
   76MOL   C20625856   2.288   1.691   0.067  0.1369  0.0479  0.1516
   76MOL   C20725857   2.351   1.545   0.077  0.0129 -0.0346 -0.4620
   76MOL   C20825858   2.443   1.519   8.039  0.7862  0.3899  0.2877
   76MOL   C20925859   2.427   1.407   7.948  0.9440  0.2086  0.0175
   76MOL   C21025860   2.519   1.388   7.838  0.1359  0.6943  0.4531
   76MOL   C21125861   2.644   1.465   7.836  0.0149 -0.1088  0.6086
   76MOL   C21225862   2.655   1.576   7.928  0.1003 -0.0411  0.6882
   76MOL   C21325863   2.557   1.596   8.025 -0.7983  0.1244  0.9248
   76MOL   O21425864   2.246   1.457   0.077  0.4774  0.5856 -0.6601
   76MOL   H21525865   2.196   1.680   0.010  0.2982 -0.2549 -0.0509
   76MOL   H21625866   2.350   1.759   0.009 -1.2705 -0.9610 -2.6347
   76MOL   H21725867   2.413   1.529   0.166  0.1811 -0.1165 -0.5925
   76MOL   H21825868   2.352   1.332   7.965 -1.2795  2.2902 -0.2790
   76MOL   H21925869   2.499   1.308   7.769 -1.2940  0.2970  1.2925
   76MOL   H22025870   2.715   1.436   7.760 -0.1001  0.5522  0.2429
   76MOL   H22125871   2.736   1.647   7.922 -0.2245  0.2759 -0.1185
   76MOL   H22225872   2.583   1.681   0.007  1.2438 -2.4373  3.7861
   76MOL   C22325873   2.229   1.388   0.203 -0.1840 -0.7914  0.3261
   76MOL   C22425874   2.128   1.466   0.298  0.1801 -0.1249  0.1498
   76MOL   C22525875   1.993   1.485   0.226  0.2648 -0.7295  0.3240
   76MOL   C22625876   1.910   1.594   0.260 -0.4859 -0.1080 -0.3999
   76MOL   C22725877   1.773   1.597   0.230 -0.6131  0.8510 -0.3316
   76MOL   C22825878   1.713   1.498   0.156  0.6364  0.0003 -0.0798
   76MOL   C22925879   1.791   1.385   0.117  0.5693 -0.6252  0.4574
   76MOL   C23025880   1.930   1.378   0.157  0.0240  0.2154  0.2680
   76MOL   O23125881   2.110   1.387   0.413 -0.2289  1.0956 -0.3805
   76MOL   H23225882   2.187   1.289   0.181  2.4026 -1.6896 -0.8030
   76MOL   H23325883   2.325   1.365   0.250 -0.7563  0.3881  2.0939
   76MOL   H23425884   2.161   1.566   0.324  1.4750  0.1106 -2.2241
   76MOL   H23525885   1.947   1.670   0.327 -0.1362 -0.5818 -0.0518
   76MOL   H23625886   1.723   1.690   0.253  1.2674  1.8598 -0.2773
   76MOL   H23725887   1.610   1.498   0.123  0.1495  1.0051  1.4251
   76MOL   H23825888   1.741   1.309   0.059 -0.5288  0.7205 -0.3568
   76MOL   H23925889   1.982   1.289   0.123 -0.8228  0.4301 -1.6812
   76MOL   C24025890   2.202   1.413   0.518 -0.6803  0.0403 -0.9199
   76MOL   C24125891   2.193   1.302   0.624  0.2522  0.2031  0.3345
   76MOL   C24225892   2.287   1.181   0.597  0.3163  0.1983  0.1619
   76MOL   C24325893   2.246   1.052   0.631  0.0650 -0.1896 -0.1360
   76MOL   C24425894   2.334   0.943   0.614  0.4668  0.2610  0.1124
   76MOL   C24525895   2.454   0.962   0.550 -0.0531 -0.2186  0.9523
   76MOL   C24625896   2.495   1.091   0.501  1.0611  0.3853  0.1930
   76MOL   C24725897   2.415   1.198   0.543 -0.5171  0.4740  0.3054
   76MOL   O24825898   2.224   1.352   0.758  0.6226 -0.1794 -0.2747
   76MOL   H24925899   2.303   1.434   0.484  0.4361  0.2851  2.3239
   76MOL   H25025900   2.162   1.506   0.559  0.0661 -0.0457  0.0247
   76MOL   H25125901   2.088   1.273   0.618  0.7912 -1.9495  0.9213
   76MOL   H25225902   2.154   1.022   0.678 -0.0042 -0.0324 -0.1734
   76MOL   H25325903   2.315   0.848   0.661  1.6426 -0.3675 -0.6575
   76MOL   H25425904   2.519   0.876   0.543 -0.4334 -0.3147 -2.0087
   76MOL   H25525905   2.593   1.093   0.454 -0.1310  0.9037 -2.3412
   76MOL   H25625906   2.444   1.300   0.521  2.1625 -0.2820  0.1977
   76MOL   C25725907   2.117   1.387   0.840  0.2594 -0.1809 -0.0769
   76MOL   C25825908   2.041   1.268   0.899  0.4449  0.0097  0.3277
   76MOL   C25925909   2.118   1.206   1.020 -0.2140 -0.8079  0.6233
   76MOL   C26025910   2.197   1.088   0.997 -0.7348  0.4321 -0.5419
   76MOL   C26125911   2.271   1.041   1.104 -0.4080 -0.1369  0.7718
   76MOL   C26225912   2.267   1.100   1.230  0.0763 -0.2207  0.3131
   76MOL   C26325913   2.175   1.201   1.256 -0.8664 -0.0272 -0.0584
   76MOL   C26425914   2.110   1.259   1.148 -0.1500 -0.2683  0.5317
   76MOL   O26525915   2.017   1.169   0.800  0.4986  0.0416  0.0087
   76MOL   H26625916   2.048   1.449   0.783 -0.8766 -0.0087  1.4614
   76MOL   H26725917   2.150   1.463   0.910 -0.3011  1.2823 -1.3691
   76MOL   H26825918   1.949   1.302   0.946 -0.3997  0.6417 -1.7173
   76MOL   H26925919   2.206   1.046   0.898 -1.4440  1.2536 -0.9551
   76MOL   H27025920   2.346   0.967   1.082 -2.2982 -1.6263 -0.8960
   76MOL   H27125921   2.321   1.054   1.312  0.9712  1.0464  0.4428
   76MOL   H27225922   2.162   1.234   1.359 -1.0516  0.5789 -0.2730
   76MOL   H27325923   2.034   1.334   1.166 -0.8227 -1.1647  1.5052
   76MOL   C27425924   1.907   1.089   0.830  0.2100  0.0493  0.1935
   76MOL   C27525925   1.763   1.152   0.786  0.2990  0.4239 -0.3996
   76MOL   C27625926   1.648   1.083   0.851  0.0644  1.1312  0.7726
   76MOL   C27725927   1.609   1.118   0.987 -0.7184  0.5348 -0.0210
   76MOL   C27825928   1.515   1.043   1.052 -0.0189  0.2885 -0.8585
   76MOL   C27925929   1.456   0.928   0.985 -0.4708  0.3059 -0.3631
   76MOL   C28025930   1.493   0.896   0.852  0.9751  0.0793 -0.0564
   76MOL   C28125931   1.586   0.968   0.786 -0.3997 -0.9897 -0.0432
   76MOL   O28225932   1.740   1.147   0.643 -0.0980 -0.1911 -0.3348
   76MOL   H28325933   1.925   1.003   0.765 -2.2570  0.1909 -0.7369
   76MOL   H28425934   1.908   1.048   0.931 -0.5406 -1.1601 -0.2743
   76MOL   H28525935   1.742   1.257   0.808  1.2985  0.0611  2.5438
   76MOL   H28625936   1.656   1.201   1.038 -0.3465 -1.4335  2.9297
   76MOL   H28725937   1.484   1.072   1.152 -1.9602  0.7045 -1.5590
   76MOL   H28825938   1.386   0.862   1.034 -0.2742  0.3652 -0.0022
   76MOL   H28925939   1.458   0.802   0.811 -0.2572  0.6613 -0.3600
   76MOL   H29025940   1.609   0.936   0.686  2.6811  2.4774 -0.5680
   76MOL   C29125941   1.782   1.265   0.576 -0.1916  0.2188  0.8873
   76MOL   C29225942   1.661   1.359   0.546  0.4443 -0.6491 -0.0718
   76MOL   C29325943   1.541   1.283   0.487  0.1190 -0.2763 -0.1741
   76MOL   C29425944   1.422   1.256   0.561 -0.1464 -0.0739 -0.1888
   76MOL   C29525945   1.323   1.167   0.518 -0.4316 -0.4216  0.5512
   76MOL   C29625946   1.336   1.105   0.392  0.4074 -0.0054  0.3019
   76MOL   C29725947   1.450   1.133   0.313 -0.3262 -0.3256 -0.6147
   76MOL   C29825948   1.557   1.215   0.361 -0.0940  0.0023  0.3552
   76MOL   O29925949   1.618   1.441   0.655  0.0054 -0.4629  0.3951
   76MOL   H30025950   1.821   1.217   0.486 -1.8987 -2.1750  1.3629
   76MOL   H30125951   1.864   1.324   0.617 -1.0913  1.0743  1.4832
   76MOL   H30225952   1.699   1.425   0.469  1.9313 -0.2782  0.9512
   76MOL   H30325953   1.415   1.297   0.660 -0.4674  1.0643 -0.6728
   76MOL   H30425954   1.241   1.157   0.588 -0.6332  0.9085  0.5157
   76MOL   H30525955   1.257   1.037   0.363 -0.2347 -0.0244  2.0612
   76MOL   H30625956   1.450   1.091   0.213 -1.7963  1.8515 -1.5563
   76MOL   H30725957   1.646   1.231   0.301  0.5679 -0.8649  1.0747
   76MOL   C30825958   1.676   1.572   0.657 -0.1282 -0.0533 -0.2538
   76MOL   C30925959   1.634   1.649   0.783  0.5760  0.0971  0.0290
   76MOL   C31025960   1.726   1.617   0.895  0.7193  0.1072 -0.4892
   76MOL   C31125961   1.837   1.703   0.917  0.3962  0.2369  0.4795
   76MOL   C31225962   1.928   1.676   1.022 -0.2448 -0.8043  0.0925
   76MOL   C31325963   1.898   1.563   1.107  0.1164  0.3831 -0.3354
   76MOL   C31425964   1.788   1.477   1.081 -1.2233 -0.3122  0.2553
   76MOL   C31525965   1.698   1.502   0.977  0.0640 -0.8036  0.8532
   76MOL   O31625966   1.634   1.786   0.747 -0.1199  0.4089  0.2536
   76MOL   H31725967   1.646   1.614   0.560  1.2977 -0.6382 -0.9546
   76MOL   H31825968   1.784   1.564   0.652 -0.1483 -0.1116 -0.6559
   76MOL   H31925969   1.542   1.604   0.820  0.7888 -0.9541 -0.7057
   76MOL   H32025970   1.853   1.780   0.843  3.2593  0.0334  0.8253
   76MOL   H32125971   2.021   1.729   1.037  0.0475 -1.6214  1.2604
   76MOL   H32225972   1.953   1.551   1.199 -1.4900 -1.8297  0.3910
   76MOL   H32325973   1.774   1.401   1.156  0.5359 -1.1965 -0.2950
   76MOL   H32425974   1.609   1.445   0.959  0.2095 -0.6396 -0.4588
   76MOL   C32525975   1.539   1.826   0.646 -0.0820 -0.7338  0.6506
   76MOL   C32625976   1.511   1.977   0.654  0.1362 -0.0749  0.0936
   76MOL   C32725977   1.448   2.020   0.519 -0.2072  0.2160 -0.3628
   76MOL   C32825978   1.498   1.981   0.390 -0.2710 -0.1581 -0.0521
   76MOL   C32925979   1.443   2.033   0.270  0.3784  0.1908 -0.5790
   76MOL   C33025980   1.336   2.116   0.275 -0.4680 -0.9532 -0.5087
   76MOL   C33125981   1.272   2.136   0.397 -0.2392 -0.2092 -0.0545
   76MOL   C33225982   1.327   2.094   0.516 -0.3879  0.1532  0.0645
   76MOL   O33325983   1.436   2.006   0.768 -0.3881 -0.3121 -0.0322
   76MOL   H33425984   1.446   1.770   0.659 -0.5346 -0.4323 -1.1588
   76MOL   H33525985   1.586   1.811   0.549  0.0577  1.4324  0.3673
   76MOL   H33625986   1.607   2.025   0.672 -0.7584  1.4314  0.9253
   76MOL   H33725987   1.590   1.925   0.378  0.2882  0.7711 -0.1671
   76MOL   H33825988   1.495   2.008   0.179  1.1291  2.7189 -0.8947
   76MOL   H33925989   1.293   2.150   0.181  0.1872  0.6075 -0.2645
   76MOL   H34025990   1.184   2.198   0.408  1.6050  2.6695 -0.7994
   76MOL   H34125991   1.280   2.104   0.613  0.7171  1.1481  0.5002
   76MOL   H34225992   1.469   1.950   0.837 -0.0427 -0.3485 -0.2275
   77MOL     C125993   3.988   7.421   6.224 -0.4934  0.5645  1.0809
   77MOL     C225994   4.012   7.456   6.372  0.0961  0.3330  0.3228
   77MOL     C325995   3.997   7.603   6.400 -0.2882 -0.7237 -0.3108
   77MOL     C425996   3.871   7.667   6.411 -0.2528  0.2008  0.1377
   77MOL     C525997   3.869   7.806   6.425 -1.0011 -0.1566 -0.7098
   77MOL     C625998   3.985   7.886   6.421 -0.4291  0.5159 -0.3982
   77MOL     C725999   4.111   7.829   6.413 -0.2205  1.5120  0.0671
   77MOL     C826000   4.110   7.688   6.398  0.0968 -0.2354 -0.1144
   77MOL     O926001   4.143   7.407   6.413  0.7857  0.5515  0.4335
   77MOL    H1026002   3.885   7.433   6.189  0.6889 -0.4172 -2.9802
   77MOL    H1126003   4.037   7.485   6.151 -1.3071 -1.0059 -0.8926
   77MOL    H1226004   3.935   7.403   6.427 -1.7089  2.6903  0.1243
   77MOL    H1326005   3.782   7.607   6.399  1.3411 -2.0484 -0.8017
   77MOL    H1426006   3.775   7.859   6.432  0.2879  2.2508 -0.9667
   77MOL    H1526007   3.972   7.993   6.425 -2.6430  0.2186  1.7067
   77MOL    H1626008   4.196   7.896   6.410  1.1222 -0.1455  0.5148
   77MOL    H1726009   4.212   7.655   6.381  0.7175  1.6164 -0.1412
   77MOL    H1826010   4.012   7.316   6.207 -1.3591  0.5233  0.0614
   77MOL    C1926011   4.148   7.376   6.553 -0.2805  0.2888 -0.0238
   77MOL    C2026012   4.278   7.340   6.617  0.1521  0.0900  0.3001
   77MOL    C2126013   4.387   7.422   6.564  0.0774  0.2857 -0.4972
   77MOL    C2226014   4.447   7.400   6.439 -0.7734  0.3725 -0.0506
   77MOL    C2326015   4.553   7.487   6.383  0.8013  0.2525 -0.2838
   77MOL    C2426016   4.588   7.597   6.471 -0.1047 -0.0572  0.3631
   77MOL    C2526017   4.525   7.612   6.597 -0.4246  0.0512 -0.3910
   77MOL    C2626018   4.416   7.536   6.638 -0.3145  0.1895  0.3218
   77MOL    O2726019   4.301   7.205   6.582 -0.4395  0.2202  0.0911
   77MOL    H2826020   4.125   7.475   6.592 -0.0911  0.3270 -0.0103
   77MOL    H2926021   4.067   7.310   6.581 -0.2986  0.4170  0.2223
   77MOL    H3026022   4.270   7.350   6.725 -0.7897 -1.9458  0.4284
   77MOL    H3126023   4.407   7.321   6.376 -0.5578 -0.8655  1.3375
   77MOL    H3226024   4.596   7.458   6.288  0.1187 -1.8522  0.0079
   77MOL    H3326025   4.659   7.673   6.443 -1.8201  0.9460 -1.4136
   77MOL    H3426026   4.552   7.697   6.658  0.4086 -1.1359  0.9129
   77MOL    H3526027   4.368   7.563   6.731 -2.1022 -0.1387 -0.4946
   77MOL    C3626028   4.382   7.138   6.682  0.8744 -0.7541  0.0483
   77MOL    C3726029   4.429   7.009   6.609  0.8221 -0.6533  0.6862
   77MOL    C3826030   4.345   6.893   6.633  0.4956  0.2321  0.2120
   77MOL    C3926031   4.205   6.907   6.619  0.2572 -0.5944 -0.6268
   77MOL    C4026032   4.122   6.800   6.643  0.4451  0.1087  0.0136
   77MOL    C4126033   4.172   6.677   6.683  0.0230 -0.2917  0.0445
   77MOL    C4226034   4.314   6.659   6.689  0.1994 -0.3085 -0.6305
   77MOL    C4326035   4.403   6.766   6.659  0.1322 -0.3663 -0.0672
   77MOL    O4426036   4.565   6.988   6.639 -0.0729  0.6949  0.1130
   77MOL    H4526037   4.466   7.205   6.702 -0.3306  1.7383 -2.8016
   77MOL    H4626038   4.331   7.116   6.776 -0.8877 -1.3060 -1.0200
   77MOL    H4726039   4.410   7.019   6.502 -0.3303  0.0341  0.9475
   77MOL    H4826040   4.153   6.997   6.590  0.4409 -0.4808 -0.6101
   77MOL    H4926041   4.014   6.810   6.641  0.4500  0.0933 -0.4053
   77MOL    H5026042   4.113   6.593   6.715 -0.6504 -1.6120 -4.4185
   77MOL    H5126043   4.357   6.561   6.707 -1.7478 -0.5790  3.0123
   77MOL    H5226044   4.511   6.759   6.664  0.1643  0.4224  0.3505
   77MOL    C5326045   4.663   7.067   6.576 -0.3870  0.0445 -0.1383
   77MOL    C5426046   4.682   7.016   6.435  0.3272 -0.2243 -0.4680
   77MOL    C5526047   4.751   7.109   6.340  0.9221  0.0111  0.2648
   77MOL    C5626048   4.858   7.188   6.375  0.3200 -0.0012  0.2405
   77MOL    C5726049   4.928   7.271   6.279 -0.6190 -0.3064  0.0909
   77MOL    C5826050   4.864   7.291   6.156 -0.0115  0.3022  0.3095
   77MOL    C5926051   4.747   7.224   6.127  0.2748 -0.6844 -0.1173
   77MOL    C6026052   4.700   7.123   6.210 -0.4871 -0.5239 -0.6087
   77MOL    O6126053   4.761   6.903   6.442  0.4888 -0.4554 -0.0850
   77MOL    H6226054   4.628   7.171   6.571  0.0111  0.4907  4.5710
   77MOL    H6326055   4.749   7.068   6.642 -1.3854 -1.1997  1.2028
   77MOL    H6426056   4.590   6.980   6.390  1.2050 -3.8176  0.4427
   77MOL    H6526057   4.897   7.168   6.474 -0.8853 -2.2560  0.2936
   77MOL    H6626058   5.018   7.324   6.306 -0.8600  0.2584 -0.2279
   77MOL    H6726059   4.895   7.374   6.094  0.4995  0.0355  0.2120
   77MOL    H6826060   4.703   7.230   6.028 -1.1642  1.4066  0.6140
   77MOL    H6926061   4.618   7.062   6.174 -0.5167 -0.7188 -0.2196
   77MOL    C7026062   4.798   6.838   6.323 -0.4169 -0.6296 -0.3637
   77MOL    C7126063   4.869   6.707   6.352  0.0174  1.5222 -0.9539
   77MOL    C7226064   4.784   6.627   6.454 -0.6527  0.1505 -0.0671
   77MOL    C7326065   4.702   6.522   6.410  0.7623  0.1027  0.0848
   77MOL    C7426066   4.626   6.445   6.498  0.2931 -0.0837 -0.3550
   77MOL    C7526067   4.630   6.472   6.633  0.5145  0.5791  1.0050
   77MOL    C7626068   4.711   6.574   6.687  0.5984  0.6575 -0.0020
   77MOL    C7726069   4.793   6.650   6.596  0.4607 -0.5746  0.1569
   77MOL    O7826070   4.993   6.753   6.399 -0.0763 -0.1199  0.0556
   77MOL    H7926071   4.717   6.819   6.253 -0.6516  0.6706 -0.4509
   77MOL    H8026072   4.879   6.886   6.268 -1.9512  1.7762 -0.5757
   77MOL    H8126073   4.880   6.649   6.261 -1.7343  2.6838 -1.9206
   77MOL    H8226074   4.699   6.510   6.302  2.3334  0.9629 -0.0743
   77MOL    H8326075   4.559   6.368   6.462  1.2709 -0.5835 -1.1405
   77MOL    H8426076   4.561   6.418   6.696  3.1762 -2.9916  0.9966
   77MOL    H8526077   4.703   6.594   6.793 -0.3186  0.2738  0.0149
   77MOL    H8626078   4.854   6.728   6.638 -0.8432  1.1150 -1.0437
   77MOL    C8726079   5.100   6.657   6.404  1.2277 -0.1115 -0.3759
   77MOL    C8826080   5.228   6.725   6.439  0.1626 -0.1849  0.5291
   77MOL    C8926081   5.274   6.814   6.330 -0.4717 -0.2570 -0.0573
   77MOL    C9026082   5.221   6.943   6.317  0.4573 -0.1532 -0.3335
   77MOL    C9126083   5.255   7.032   6.212 -0.5245  0.2013  0.3593
   77MOL    C9226084   5.347   6.988   6.117  0.0593 -0.4195  0.2022
   77MOL    C9326085   5.401   6.856   6.128  0.0482  0.2120 -0.8217
   77MOL    C9426086   5.362   6.772   6.235 -0.2426 -0.1217 -0.6037
   77MOL    O9526087   5.327   6.623   6.468  0.1943  0.4933  0.0566
   77MOL    H9626088   5.113   6.597   6.314  0.5654 -0.4101 -0.2791
   77MOL    H9726089   5.074   6.587   6.484  1.2478  1.0986  0.7062
   77MOL    H9826090   5.212   6.790   6.526 -1.8036  0.9473 -0.6443
   77MOL    H9926091   5.160   6.987   6.395 -0.5181 -1.4062 -0.3790
   77MOL   H10026092   5.208   7.129   6.210 -0.5415  0.2513  2.3318
   77MOL   H10126093   5.367   7.059   6.038 -1.2747 -0.4406 -0.1756
   77MOL   H10226094   5.474   6.835   6.052 -0.8484  0.2063 -1.6944
   77MOL   H10326095   5.410   6.676   6.247 -0.3411  0.0521  1.2731
   77MOL   C10426096   5.445   6.666   6.539  0.5644  0.4694 -0.0694
   77MOL   C10526097   5.514   6.548   6.615 -0.1576  0.3623 -0.3994
   77MOL   C10626098   5.665   6.577   6.639 -1.0960  0.0122  0.0586
   77MOL   C10726099   5.699   6.683   6.724  0.4781 -0.5159  0.3759
   77MOL   C10826100   5.832   6.703   6.754  0.2904  0.1925  0.2907
   77MOL   C10926101   5.934   6.628   6.697  1.0406 -0.6101 -1.0159
   77MOL   C11026102   5.900   6.545   6.591  0.3231 -0.0925  0.1295
   77MOL   C11126103   5.766   6.508   6.569 -0.1223  0.0620  0.8089
   77MOL   O11226104   5.455   6.530   6.744  0.2956 -0.5330  0.0171
   77MOL   H11326105   5.514   6.717   6.471 -0.7855 -1.8440 -3.3356
   77MOL   H11426106   5.412   6.743   6.609  0.0657 -0.9645  1.2938
   77MOL   H11526107   5.502   6.459   6.554  2.6718  0.3684 -1.0169
   77MOL   H11626108   5.628   6.739   6.783 -0.4652 -0.8875 -0.3946
   77MOL   H11726109   5.855   6.776   6.831  1.7025  0.2866 -0.2140
   77MOL   H11826110   6.038   6.641   6.720  0.8491 -2.0088  0.7080
   77MOL   H11926111   5.980   6.495   6.540  2.0562 -0.0418  2.7233
   77MOL   H12026112   5.748   6.423   6.506  0.7688  0.4875 -0.0187
   77MOL   C12126113   5.335   6.450   6.748  0.5378  0.7055  0.0503
   77MOL   C12226114   5.256   6.501   6.875  0.5912 -0.4849  0.2856
   77MOL   C12326115   5.223   6.653   6.870 -0.8458  0.4778 -0.8312
   77MOL   C12426116   5.117   6.693   6.793 -0.5298 -0.0441 -0.7898
   77MOL   C12526117   5.093   6.834   6.766  0.1427  0.6442  0.0622
   77MOL   C12626118   5.187   6.924   6.823  0.4073 -0.0537 -0.2550
   77MOL   C12726119   5.298   6.880   6.898  0.1148 -0.1991  0.2133
   77MOL   C12826120   5.314   6.744   6.924  0.2764  0.6297 -0.4740
   77MOL   O12926121   5.136   6.424   6.902 -0.2879 -0.7527  0.4180
   77MOL   H13026122   5.354   6.342   6.747 -0.3310  0.5595 -1.3199
   77MOL   H13126123   5.270   6.474   6.664  1.1224 -2.0331 -1.2280
   77MOL   H13226124   5.318   6.498   6.965 -2.5778  1.6424  2.6550
   77MOL   H13326125   5.055   6.623   6.739  0.8302 -0.4967 -1.7743
   77MOL   H13426126   5.019   6.871   6.697  1.5659  0.7466 -1.4363
   77MOL   H13526127   5.168   7.030   6.812  0.9081  0.2421  1.6234
   77MOL   H13626128   5.368   6.955   6.932  0.0022  0.3345 -0.7123
   77MOL   H13726129   5.398   6.711   6.984  0.8121 -2.1063 -2.6184
   77MOL   C13826130   5.169   6.302   6.968 -0.1746 -0.5471  0.0395
   77MOL   C13926131   5.140   6.303   7.121  0.1189 -0.0255 -0.6239
   77MOL   C14026132   5.110   6.169   7.186 -0.1395  0.1188  0.5206
   77MOL   C14126133   5.215   6.086   7.229 -0.2251 -0.1104 -0.0022
   77MOL   C14226134   5.189   5.957   7.277 -0.6217 -0.1664 -0.6717
   77MOL   C14326135   5.054   5.911   7.288  0.2977 -0.7466  0.4107
   77MOL   C14426136   4.951   5.992   7.247  0.1640 -0.0663 -0.3620
   77MOL   C14526137   4.976   6.122   7.194  0.7591  0.0896  0.2633
   77MOL   O14626138   5.252   6.370   7.173 -0.4280 -0.4115 -0.3271
   77MOL   H14726139   5.272   6.271   6.947 -0.6456 -1.6644 -0.6594
   77MOL   H14826140   5.107   6.223   6.925  0.0724 -1.5892  1.5106
   77MOL   H14926141   5.061   6.375   7.143  0.7758  0.4813  0.1235
   77MOL   H15026142   5.318   6.117   7.225 -0.5910  1.0932 -0.4911
   77MOL   H15126143   5.272   5.889   7.293  0.0749  0.7210 -0.4216
   77MOL   H15226144   5.032   5.812   7.326 -2.3362 -0.1845  0.4749
   77MOL   H15326145   4.848   5.961   7.258 -0.3981  1.5200 -1.1167
   77MOL   H15426146   4.887   6.168   7.153  0.5562  0.4574  1.1268
   77MOL   C15526147   5.248   6.412   7.315 -0.6072  0.3029  0.5734
   77MOL   C15626148   5.197   6.549   7.351 -0.3678 -0.2649  0.4821
   77MOL   C15726149   5.057   6.592   7.317  0.2317 -0.0636  0.6258
   77MOL   C15826150   5.035   6.656   7.193 -0.5895 -0.0345 -0.6710
   77MOL   C15926151   4.904   6.713   7.169  0.0625  0.1526  0.7773
   77MOL   C16026152   4.802   6.698   7.261 -0.2673 -0.1768 -0.5099
   77MOL   C16126153   4.831   6.634   7.386 -0.1761  0.0178 -0.0249
   77MOL   C16226154   4.959   6.583   7.414 -0.3438 -0.5785 -0.3663
   77MOL   O16326155   5.224   6.556   7.489 -0.1540 -0.2788 -0.1636
   77MOL   H16426156   5.354   6.420   7.340 -0.8544 -1.5695  2.2946
   77MOL   H16526157   5.208   6.349   7.395 -1.1023 -0.1316 -0.0187
   77MOL   H16626158   5.264   6.618   7.300 -1.2812 -0.2256 -0.6947
   77MOL   H16726159   5.113   6.665   7.120  1.5369  0.0481  1.5309
   77MOL   H16826160   4.890   6.771   7.079  1.1737 -1.6828 -0.6045
   77MOL   H16926161   4.703   6.738   7.241  0.2564  1.0569 -0.6895
   77MOL   H17026162   4.752   6.631   7.459 -2.0226 -0.1372 -1.9915
   77MOL   H17126163   4.968   6.539   7.512  0.0867  0.9312  0.2880
   77MOL   C17226164   5.257   6.685   7.543  0.2559 -0.6338 -0.3704
   77MOL   C17326165   5.275   6.683   7.697 -0.1273  0.3087 -0.2698
   77MOL   C17426166   5.378   6.580   7.733  0.2061 -0.3320 -0.5475
   77MOL   C17526167   5.344   6.447   7.756 -0.3563 -0.0774 -0.8064
   77MOL   C17626168   5.439   6.359   7.809  0.3132  0.2238 -0.5210
   77MOL   C17726169   5.566   6.402   7.848  0.4324 -0.4112  1.3827
   77MOL   C17826170   5.606   6.537   7.820 -0.9981 -0.8826  0.4520
   77MOL   C17926171   5.510   6.619   7.759  0.2227  0.6470  0.1786
   77MOL   O18026172   5.148   6.649   7.759 -1.1383 -0.0841  0.3612
   77MOL   H18126173   5.352   6.721   7.503 -0.2960  0.3981 -0.7977
   77MOL   H18226174   5.191   6.767   7.513  0.0802  0.6453  3.2642
   77MOL   H18326175   5.310   6.782   7.726 -0.1373  0.5888 -1.1945
   77MOL   H18426176   5.245   6.408   7.739 -0.4749 -0.8362  1.4583
   77MOL   H18526177   5.413   6.261   7.846 -0.2810  1.3453  2.1307
   77MOL   H18626178   5.643   6.345   7.898  0.6012 -1.1804  0.2704
   77MOL   H18726179   5.707   6.572   7.829 -0.4738 -1.8782 -1.3486
   77MOL   H18826180   5.555   6.715   7.738  2.2510 -0.1300  0.8073
   77MOL   C18926181   5.055   6.760   7.770  0.6453 -0.2970 -0.8339
   77MOL   C19026182   4.934   6.707   7.858  0.5923 -0.1301 -0.6721
   77MOL   C19126183   4.815   6.794   7.833 -0.0220  0.0678 -0.5831
   77MOL   C19226184   4.742   6.777   7.714  0.5668  0.2554 -0.0096
   77MOL   C19326185   4.630   6.856   7.679 -0.0902  0.1610 -0.2491
   77MOL   C19426186   4.603   6.968   7.760 -0.4490 -0.0165  0.1372
   77MOL   C19526187   4.684   6.998   7.870  0.2715 -0.5499 -0.7832
   77MOL   C19626188   4.792   6.913   7.908 -0.6032  0.1769  0.0250
   77MOL   O19726189   4.964   6.710   7.995 -0.1348  0.3853 -0.1372
   77MOL   H19826190   5.116   6.836   7.818  0.6012 -1.8762  1.8307
   77MOL   H19926191   5.011   6.774   7.671 -0.3721  1.6231 -0.1341
   77MOL   H20026192   4.914   6.606   7.822  0.2475  0.1327 -1.2206
   77MOL   H20126193   4.772   6.697   7.648  0.2456  1.9101 -2.2200
   77MOL   H20226194   4.570   6.832   7.592 -0.5443 -2.4206  0.7206
   77MOL   H20326195   4.512   7.023   7.738  0.2727  0.5556 -1.4430
   77MOL   H20426196   4.667   7.081   7.937 -0.0228 -1.0266 -0.2703
   77MOL   H20526197   4.850   6.935   7.997 -1.3733 -0.9788  0.8392
   77MOL   C20626198   5.040   6.604   8.044  1.0560 -0.0242 -0.2508
   77MOL   C20726199   5.142   6.657   0.069  0.3014  0.3568  0.2213
   77MOL   C20826200   5.252   6.554   0.098  0.0627 -0.2042  0.6451
   77MOL   C20926201   5.387   6.579   0.063  0.8939 -0.5128 -0.3777
   77MOL   C21026202   5.490   6.491   0.093  0.1207  0.4526  0.5031
   77MOL   C21126203   5.452   6.367   0.154  0.8481  0.2511  0.1915
   77MOL   C21226204   5.319   6.344   0.197 -0.5116  0.1503  0.9341
   77MOL   C21326205   5.221   6.438   0.168  0.0408  0.1065 -0.1080
   77MOL   O21426206   5.067   6.679   0.192  1.0929  0.4826 -0.3103
   77MOL   H21526207   4.974   6.532   0.013  0.7569 -0.0568 -0.7001
   77MOL   H21626208   5.097   6.543   7.974  0.8594 -0.2770 -0.1924
   77MOL   H21726209   5.197   6.744   0.034  1.9127 -0.2255  1.2744
   77MOL   H21826210   5.411   6.663   8.079 -0.1016  0.6498  0.7653
   77MOL   H21926211   5.589   6.514   0.057  0.5161 -0.3676  1.0539
   77MOL   H22026212   5.526   6.292   0.174  1.5120  0.5073 -1.2317
   77MOL   H22126213   5.293   6.245   0.232 -2.4368 -0.0349 -0.9186
   77MOL   H22226214   5.117   6.416   0.186 -0.1716  0.3409 -1.0456
   77MOL   C22326215   5.150   6.738   0.291 -0.3788 -0.8059  0.6845
   77MOL   C22426216   5.081   6.717   0.426  0.0391 -0.0373 -0.1922
   77MOL   C22526217   5.066   6.572   0.459  0.9043 -0.2666  0.6934
   77MOL   C22626218   5.180   6.503   0.506  0.3241 -0.0146 -0.1925
   77MOL   C22726219   5.178   6.361   0.517  0.5986  0.1303 -0.4475
   77MOL   C22826220   5.058   6.287   0.488 -0.2232  0.4287 -0.5103
   77MOL   C22926221   4.940   6.354   0.455  0.3805  0.3887  0.1415
   77MOL   C23026222   4.953   6.495   0.434 -0.7072 -0.4720  0.3068
   77MOL   O23126223   5.168   6.788   0.521 -0.5781 -0.1418  0.3213
   77MOL   H23226224   5.252   6.700   0.287 -1.1219 -2.7294 -1.0140
   77MOL   H23326225   5.155   6.846   0.272  1.0125 -0.7301  1.4276
   77MOL   H23426226   4.981   6.762   0.423  0.0404 -0.1561 -4.9244
   77MOL   H23526227   5.275   6.551   0.525  1.0594 -2.2999  2.1562
   77MOL   H23626228   5.261   6.302   0.554  0.7043  0.4916 -0.1082
   77MOL   H23726229   5.060   6.179   0.487  0.4187  0.4421 -1.0230
   77MOL   H23826230   4.849   6.307   0.423 -0.1538  0.3819  1.6087
   77MOL   H23926231   4.867   6.541   0.388  0.2788  1.1289  0.0283
   77MOL   C24026232   5.128   6.927   0.523 -0.3248 -0.4014  0.3468
   77MOL   C24126233   5.230   7.013   0.598 -0.0806 -0.0354  0.3923
   77MOL   C24226234   5.359   7.024   0.515  0.6142 -0.7684 -0.1766
   77MOL   C24326235   5.373   7.128   0.422 -0.1371 -0.0461  0.0590
   77MOL   C24426236   5.495   7.139   0.352 -0.0363 -0.2349  0.4928
   77MOL   C24526237   5.602   7.052   0.384  0.0079  0.4776 -0.1266
   77MOL   C24626238   5.592   6.943   0.471  0.0956  1.0187  0.2606
   77MOL   C24726239   5.468   6.932   0.541 -0.3972  0.7063  0.8593
   77MOL   O24826240   5.165   7.139   0.644  0.0643  0.5058  0.0233
   77MOL   H24926241   5.121   6.980   0.428 -0.4151 -0.8375  0.1105
   77MOL   H25026242   5.029   6.938   0.568 -0.8210  1.1321 -1.0739
   77MOL   H25126243   5.262   6.955   0.684  0.2935 -0.9940 -0.3855
   77MOL   H25226244   5.286   7.184   0.391 -2.2158 -2.9808  0.3784
   77MOL   H25326245   5.520   7.205   0.270 -0.4448 -0.5574  0.1051
   77MOL   H25426246   5.697   7.075   0.338  0.0748  1.8371  0.6627
   77MOL   H25526247   5.673   6.875   0.491 -0.9582 -0.1186  0.7219
   77MOL   H25626248   5.454   6.858   0.619 -0.8378 -0.3095 -0.1748
   77MOL   C25726249   5.232   7.214   0.752  0.0465 -0.3803 -0.4458
   77MOL   C25826250   5.199   7.168   0.901  0.4990  0.2959 -0.0439
   77MOL   C25926251   5.053   7.204   0.942 -1.1038  0.0527  0.6775
   77MOL   C26026252   4.948   7.106   0.930  0.2914  0.4851 -0.9975
   77MOL   C26126253   4.815   7.143   0.952 -0.8612  0.1251  0.0038
   77MOL   C26226254   4.780   7.268   1.012  0.4546  0.0214 -0.3872
   77MOL   C26326255   4.888   7.361   1.026  0.7657 -0.8491 -0.8202
   77MOL   C26426256   5.025   7.333   0.997  0.3738 -0.0116  0.5599
   77MOL   O26526257   5.295   7.229   0.990 -0.2530  0.2239 -0.5749
   77MOL   H26626258   5.198   7.317   0.741  2.1107  0.1645 -2.0262
   77MOL   H26726259   5.340   7.220   0.736  0.0614  3.3294  0.5878
   77MOL   H26826260   5.223   7.062   0.909  1.0097  0.3096 -1.4013
   77MOL   H26926261   4.973   7.006   0.899 -0.8822 -0.3742  0.7865
   77MOL   H27026262   4.729   7.086   0.922 -1.5677  0.6684  0.9687
   77MOL   H27126263   4.676   7.291   1.029  0.2856 -1.6404  1.0671
   77MOL   H27226264   4.863   7.461   1.056 -2.4602 -2.6715  3.0095
   77MOL   H27326265   5.104   7.405   1.014 -1.1474  1.7786  0.1233
   77MOL   C27426266   5.321   7.163   1.112  0.5834 -0.4013  0.4172
   77MOL   C27526267   5.412   7.038   1.122 -0.4269 -0.2349 -0.8524
   77MOL   C27626268   5.547   7.073   1.066 -0.0512  0.1160  0.0330
   77MOL   C27726269   5.559   7.083   0.928 -0.1508  0.1984  0.2122
   77MOL   C27826270   5.685   7.093   0.864  0.4166  0.3819 -0.4379
   77MOL   C27926271   5.799   7.094   0.940 -0.5501 -0.9611 -0.3418
   77MOL   C28026272   5.788   7.089   1.083  0.8266  0.2424 -0.1713
   77MOL   C28126273   5.661   7.070   1.145  0.6535 -0.0422  0.0227
   77MOL   O28226274   5.352   6.927   1.053  0.0816  0.2967 -0.2686
   77MOL   H28326275   5.362   7.238   1.180 -1.6930  1.1212  0.1572
   77MOL   H28426276   5.225   7.138   1.158  0.9219 -0.7774  0.9251
   77MOL   H28526277   5.433   7.013   1.226  0.5451 -0.1769 -1.0302
   77MOL   H28626278   5.468   7.073   0.870 -0.9611 -1.1850  1.6721
   77MOL   H28726279   5.683   7.103   0.757  2.3146  0.2136 -0.5110
   77MOL   H28826280   5.897   7.117   0.901 -1.0101  1.3821 -0.1812
   77MOL   H28926281   5.870   7.115   1.149 -0.1830  0.3841  1.0295
   77MOL   H29026282   5.657   7.060   1.253  2.0623 -1.7280 -0.0695
   77MOL   C29126283   5.240   6.863   1.110 -1.2134 -0.4278  0.1512
   77MOL   C29226284   5.256   6.719   1.069  0.2371  0.1058 -0.1697
   77MOL   C29326285   5.360   6.651   1.157  0.8321  0.0048  0.3465
   77MOL   C29426286   5.310   6.562   1.256  0.2730  0.0617 -0.2069
   77MOL   C29526287   5.400   6.502   1.350  0.0157 -0.3100  0.9404
   77MOL   C29626288   5.543   6.514   1.323 -0.1142 -0.8969  0.3979
   77MOL   C29726289   5.589   6.592   1.213  0.1354  0.6854  0.0344
   77MOL   C29826290   5.497   6.662   1.131 -1.1528 -0.6317  0.0969
   77MOL   O29926291   5.127   6.653   1.081  0.2797 -0.5480  0.1866
   77MOL   H30026292   5.152   6.910   1.065 -1.0682 -0.6243 -0.3483
   77MOL   H30126293   5.229   6.884   1.216 -0.1989  2.1172 -0.2233
   77MOL   H30226294   5.288   6.699   0.966 -1.1993  2.1114 -1.0323
   77MOL   H30326295   5.206   6.547   1.281  0.2618 -0.0704 -0.3333
   77MOL   H30426296   5.367   6.436   1.429 -0.1795  0.8301  1.8233
   77MOL   H30526297   5.621   6.468   1.383  0.0107 -0.1064  0.8542
   77MOL   H30626298   5.695   6.594   1.197 -0.1288  2.0144 -1.6346
   77MOL   H30726299   5.540   6.719   1.050 -0.9596 -0.5180  0.2808
   77MOL   C30826300   5.029   6.679   0.979  0.0866 -0.0809  0.0903
   77MOL   C30926301   4.890   6.654   1.028  0.2062  0.9969 -0.0879
   77MOL   C31026302   4.851   6.737   1.148 -0.8429 -0.2545  0.0862
   77MOL   C31126303   4.877   6.693   1.279 -0.3804  0.8581  0.5598
   77MOL   C31226304   4.843   6.775   1.395  0.0793  0.1791  0.2347
   77MOL   C31326305   4.776   6.899   1.369 -0.0611 -0.5709  0.1708
   77MOL   C31426306   4.746   6.941   1.233 -0.4541 -0.0721 -1.4028
   77MOL   C31526307   4.781   6.856   1.123  0.4086 -0.4486  0.2604
   77MOL   O31626308   4.808   6.668   0.911 -0.4980 -0.0296 -0.3030
   77MOL   H31726309   5.052   6.606   0.902  0.8555  1.9386 -1.6341
   77MOL   H31826310   5.033   6.781   0.942 -0.0930 -0.2329 -0.3483
   77MOL   H31926311   4.891   6.549   1.057  0.7498  0.9688 -0.1992
   77MOL   H32026312   4.929   6.598   1.283  0.0439  0.9242 -2.1803
   77MOL   H32126313   4.862   6.745   1.497  0.6129 -0.9315 -0.1925
   77MOL   H32226314   4.742   6.952   1.456  0.8351  0.4367 -0.0699
   77MOL   H32326315   4.721   7.045   1.227 -0.2383  0.1844  1.3127
   77MOL   H32426316   4.752   6.880   1.022 -1.8669 -0.8126  0.8112
   77MOL   C32526317   4.680   6.605   0.912 -0.5946  0.1443 -0.4131
   77MOL   C32626318   4.638   6.598   0.764 -0.2414  0.0492  0.1046
   77MOL   C32726319   4.658   6.739   0.700  0.1696  0.0084  0.6087
   77MOL   C32826320   4.727   6.755   0.581  0.1381  0.7436  0.8769
   77MOL   C32926321   4.735   6.887   0.524 -0.3389  0.8442  0.1869
   77MOL   C33026322   4.678   6.999   0.580  0.9277  0.8865 -0.2824
   77MOL   C33126323   4.620   6.983   0.706  0.7781 -1.0866  0.3434
   77MOL   C33226324   4.612   6.856   0.760  0.0929  0.0177 -0.8143
   77MOL   O33326325   4.719   6.504   0.700  0.2268  0.0696  0.0319
   77MOL   H33426326   4.610   6.661   0.973  0.2608  0.5532  0.2077
   77MOL   H33526327   4.680   6.503   0.950  1.2080 -0.5439 -2.1596
   77MOL   H33626328   4.543   6.547   0.752  0.8643 -1.6486 -1.9149
   77MOL   H33726329   4.756   6.666   0.527  0.5009  0.3060  1.7855
   77MOL   H33826330   4.785   6.900   0.429 -0.0552 -1.6323 -0.0459
   77MOL   H33926331   4.674   7.099   0.538 -0.4266  1.7799  1.9199
   77MOL   H34026332   4.573   7.057   0.770 -0.8776 -1.5836 -0.2843
   77MOL   H34126333   4.558   6.846   0.853  0.8146  1.6055 -0.2073
   77MOL   H34226334   4.810   6.530   0.704  0.8365 -1.1916 -3.7519
   78MOL     C126335   5.939   1.010   5.954  0.2076  0.5282  0.1041
   78MOL     C226336   6.061   1.009   6.051  0.1751  0.3219 -0.1134
   78MOL     C326337   6.166   1.121   6.020  0.6373 -0.2263 -0.2308
   78MOL     C426338   6.138   1.225   5.930 -0.7974  0.6699 -0.6475
   78MOL     C526339   6.234   1.320   5.890  0.1936 -0.4361  0.1886
   78MOL     C626340   6.364   1.316   5.946 -0.4389 -0.0475  0.2615
   78MOL     C726341   6.392   1.212   6.038  0.0247  0.4824  0.5582
   78MOL     C826342   6.296   1.112   6.072 -0.3080  0.5832 -0.0386
   78MOL     O926343   6.121   0.876   6.055 -0.5334  0.0040  0.3168
   78MOL    H1026344   5.859   0.947   5.995  0.0751  0.6540  0.0380
   78MOL    H1126345   5.894   1.109   5.956 -2.4585 -0.6209 -0.9753
   78MOL    H1226346   6.020   1.029   6.150 -0.8902  1.4326 -0.7600
   78MOL    H1326347   6.040   1.240   5.887 -0.3916 -0.3279 -1.9124
   78MOL    H1426348   6.213   1.393   5.813  0.5278 -0.3316  0.1960
   78MOL    H1526349   6.443   1.374   5.902 -0.5762 -1.9905 -2.6979
   78MOL    H1626350   6.488   1.212   6.087 -0.2144  0.3804  1.0269
   78MOL    H1726351   6.325   1.031   6.137  0.2958 -1.1857 -2.4593
   78MOL    H1826352   5.967   0.978   5.854  1.3030  1.0765  0.2317
   78MOL    C1926353   6.159   0.820   6.176 -0.1428 -0.2280  0.5396
   78MOL    C2026354   6.285   0.730   6.148  0.3375  0.1849 -0.0042
   78MOL    C2126355   6.310   0.641   6.273  0.4147 -0.5418  0.1811
   78MOL    C2226356   6.235   0.525   6.298 -0.8192 -0.4112  0.6967
   78MOL    C2326357   6.266   0.434   6.395 -0.6130  0.9454  0.1193
   78MOL    C2426358   6.382   0.457   6.468 -0.2157  0.3470  0.3126
   78MOL    C2526359   6.461   0.572   6.445 -0.2478 -0.4418  0.7750
   78MOL    C2626360   6.428   0.666   6.348  0.0854 -0.1206 -0.2496
   78MOL    O2726361   6.402   0.805   6.112 -0.2169 -0.4969 -0.3712
   78MOL    H2826362   6.176   0.895   6.253 -2.4550  0.7945  0.0784
   78MOL    H2926363   6.068   0.766   6.202 -1.0877  1.0217 -0.1463
   78MOL    H3026364   6.276   0.659   6.066  0.2346 -0.0028  0.1681
   78MOL    H3126365   6.148   0.501   6.238 -2.3898 -0.6162  2.9925
   78MOL    H3226366   6.204   0.348   6.418 -0.8145  0.7436 -1.1226
   78MOL    H3326367   6.411   0.390   6.548 -2.1110 -0.3428  0.4431
   78MOL    H3426368   6.560   0.578   6.488  0.9817 -1.0068 -1.8629
   78MOL    H3526369   6.495   0.749   6.334  2.9915 -2.3912 -0.3371
   78MOL    C3626370   6.501   0.734   6.040 -0.4676 -0.9035  0.3848
   78MOL    C3726371   6.637   0.818   6.037 -0.2664  0.2799  0.2185
   78MOL    C3826372   6.760   0.744   5.978  0.5463  0.1910  0.2600
   78MOL    C3926373   6.873   0.710   6.058  0.5574  0.6669  0.4038
   78MOL    C4026374   6.985   0.639   6.004 -0.3839 -0.3288 -0.2328
   78MOL    C4126375   6.984   0.611   5.866  0.2359 -0.5298 -0.2784
   78MOL    C4226376   6.870   0.645   5.784  0.1314  0.0539 -0.8264
   78MOL    C4326377   6.758   0.713   5.839 -0.2822 -0.3964 -0.0640
   78MOL    O4426378   6.671   0.857   6.173 -0.1620  0.5455  0.2298
   78MOL    H4526379   6.520   0.635   6.083  1.2375  0.0564  1.9313
   78MOL    H4626380   6.474   0.706   5.938  2.1108 -0.4361 -0.4626
   78MOL    H4726381   6.628   0.909   5.978 -0.2815  0.5915  0.6977
   78MOL    H4826382   6.882   0.743   6.161 -2.0055  4.0803 -0.3624
   78MOL    H4926383   7.072   0.627   6.067  0.7931  0.3353 -1.6938
   78MOL    H5026384   7.062   0.556   5.816  2.5713  1.3726  1.1434
   78MOL    H5126385   6.873   0.613   5.681  0.4921 -3.6238  0.2481
   78MOL    H5226386   6.681   0.734   5.765 -0.8995 -1.6184  0.2252
   78MOL    C5326387   6.655   1.001   6.192 -0.0851  0.1763 -0.2718
   78MOL    C5426388   6.711   1.040   6.331  0.4865  0.3731 -0.7039
   78MOL    C5526389   6.861   1.036   6.342  0.0727  0.1755 -0.1396
   78MOL    C5626390   6.943   1.143   6.295  0.9442  0.9653 -0.4451
   78MOL    C5726391   7.086   1.132   6.296 -0.6189 -0.7224  0.3876
   78MOL    C5826392   7.143   1.011   6.327 -0.0131 -0.5243 -0.1770
   78MOL    C5926393   7.059   0.908   6.380  0.1783  0.4643  0.2468
   78MOL    C6026394   6.922   0.919   6.378 -0.7223  0.4134  0.1662
   78MOL    O6126395   6.648   1.159   6.376 -0.1186  0.2537 -0.6149
   78MOL    H6226396   6.703   1.055   6.111  1.2097 -1.6264 -0.7218
   78MOL    H6326397   6.550   1.026   6.175 -0.5534 -1.6644 -0.1890
   78MOL    H6426398   6.681   0.958   6.397  1.0905  0.9108  0.2515
   78MOL    H6526399   6.899   1.236   6.263  0.8566  1.3784  0.8759
   78MOL    H6626400   7.148   1.212   6.258 -0.4771 -2.2119 -2.7462
   78MOL    H6726401   7.250   1.013   6.333 -0.0389  0.2007  0.0089
   78MOL    H6826402   7.118   0.826   6.418 -1.4645 -0.0424  1.7485
   78MOL    H6926403   6.863   0.831   6.402  1.6819 -0.8728  1.5384
   78MOL    C7026404   6.670   1.175   6.516 -0.2967  0.0732  0.5597
   78MOL    C7126405   6.581   1.280   6.565  0.4143 -0.4504  0.2476
   78MOL    C7226406   6.433   1.239   6.570 -0.1474 -0.4278 -0.5346
   78MOL    C7326407   6.368   1.223   6.695 -0.5425 -0.3142 -0.8302
   78MOL    C7426408   6.236   1.164   6.697 -0.1187 -0.0214 -0.5413
   78MOL    C7526409   6.172   1.129   6.576  0.0202  0.8748  0.1227
   78MOL    C7626410   6.237   1.154   6.456  0.8023 -0.7927  0.5818
   78MOL    C7726411   6.369   1.205   6.451 -0.0407  1.0367  0.0599
   78MOL    O7826412   6.608   1.404   6.486 -0.2586  0.2235 -0.1738
   78MOL    H7926413   6.656   1.076   6.560  0.7646 -0.6545 -0.7114
   78MOL    H8026414   6.769   1.217   6.531 -0.1796  0.1489 -0.4100
   78MOL    H8126415   6.605   1.308   6.667  1.9651 -2.4546  0.4722
   78MOL    H8226416   6.417   1.251   6.788 -1.1573  1.2397 -0.9639
   78MOL    H8326417   6.181   1.158   6.790  0.0667  0.4732 -0.3984
   78MOL    H8426418   6.071   1.093   6.575  0.8104 -1.4825  1.7791
   78MOL    H8526419   6.190   1.130   6.362  0.8745  0.7561  0.1348
   78MOL    H8626420   6.420   1.211   6.357  0.3747  0.0711  0.2205
   78MOL    C8726421   6.624   1.525   6.553  0.0216  0.1272 -0.5567
   78MOL    C8826422   6.766   1.545   6.616  0.6239  0.0785 -0.4092
   78MOL    C8926423   6.886   1.527   6.530  0.0976 -0.3438  0.5328
   78MOL    C9026424   6.889   1.616   6.424 -0.0632 -0.7057 -0.6139
   78MOL    C9126425   6.995   1.601   6.331 -0.5465 -0.1415 -0.7179
   78MOL    C9226426   7.103   1.510   6.350 -0.2289 -0.2106  0.1428
   78MOL    C9326427   7.097   1.425   6.461  0.5134  0.3322  0.4883
   78MOL    C9426428   6.982   1.427   6.547 -0.8982  0.7138  0.1035
   78MOL    O9526429   6.770   1.471   6.737  0.5953 -0.2156 -0.0077
   78MOL    H9626430   6.541   1.537   6.623 -0.0143 -2.8658 -0.0279
   78MOL    H9726431   6.615   1.604   6.477 -0.2762  0.5060 -0.1296
   78MOL    H9826432   6.782   1.650   6.641  1.5098 -0.1394 -0.0531
   78MOL    H9926433   6.813   1.690   6.407 -1.2617 -1.5722  0.8119
   78MOL   H10026434   6.995   1.665   6.244  0.9168  1.4997  0.4404
   78MOL   H10126435   7.184   1.500   6.279  0.0480 -2.5185  0.7313
   78MOL   H10226436   7.172   1.355   6.495 -0.2784  0.3563  2.3608
   78MOL   H10326437   6.978   1.366   6.637  1.3365 -0.7860 -0.7738
   78MOL   C10426438   6.716   1.540   6.851  0.1909 -0.7399  0.1021
   78MOL   C10526439   6.757   1.459   6.983 -0.5172  0.5408  0.2723
   78MOL   C10626440   6.720   1.308   6.974  0.2348 -0.7639  0.0816
   78MOL   C10726441   6.588   1.276   7.005  0.4971  0.7169  0.0150
   78MOL   C10826442   6.549   1.140   6.994  0.5472 -0.3008 -0.2219
   78MOL   C10926443   6.639   1.042   6.946  0.1735 -0.8413  0.1865
   78MOL   C11026444   6.767   1.079   6.910 -0.5022  0.6538 -0.0692
   78MOL   C11126445   6.810   1.213   6.921 -0.7681  0.2485  0.6575
   78MOL   O11226446   6.884   1.488   7.016  0.3161  0.2957 -0.3026
   78MOL   H11326447   6.766   1.634   6.872 -0.0395 -0.8471  1.1657
   78MOL   H11426448   6.609   1.549   6.832  0.3467  0.5399 -0.1801
   78MOL   H11526449   6.692   1.500   7.060 -1.3504 -1.3236  0.6063
   78MOL   H11626450   6.522   1.355   7.038 -2.7155 -1.6099 -0.5922
   78MOL   H11726451   6.447   1.112   7.019 -0.1354  1.1032 -1.3388
   78MOL   H11826452   6.599   0.942   6.933 -0.5049 -0.5814  0.2329
   78MOL   H11926453   6.827   1.003   6.863  0.8457  0.4679  1.9120
   78MOL   H12026454   6.905   1.253   6.891 -0.5048  1.7763  3.3752
   78MOL   C12126455   6.910   1.484   7.156  0.1970 -0.9500  0.3657
   78MOL   C12226456   6.930   1.622   7.219  0.3238 -0.3676 -0.2630
   78MOL   C12326457   7.038   1.704   7.159 -0.1047  0.2522  0.5490
   78MOL   C12426458   7.154   1.731   7.237  0.0032  1.1057  0.2185
   78MOL   C12526459   7.237   1.835   7.198  0.2592 -0.3703  0.4474
   78MOL   C12626460   7.216   1.905   7.075  0.3973 -0.6442 -0.2645
   78MOL   C12726461   7.105   1.876   6.997  0.6459  0.4090 -0.1013
   78MOL   C12826462   7.015   1.774   7.037  0.7109  0.2500  0.3388
   78MOL   O12926463   6.805   1.680   7.209 -0.5126 -1.3958 -0.2727
   78MOL   H13026464   7.001   1.424   7.157  0.9596  0.1445 -1.1606
   78MOL   H13126465   6.835   1.420   7.204  0.4973 -1.4384  0.1940
   78MOL   H13226466   6.959   1.601   7.322 -0.9501 -0.1869  0.1406
   78MOL   H13326467   7.164   1.679   7.331  0.2111 -1.5786 -1.2428
   78MOL   H13426468   7.324   1.859   7.256 -0.0858 -0.8459  1.1648
   78MOL   H13526469   7.292   1.972   7.036  3.0484 -1.6626  2.9127
   78MOL   H13626470   7.076   1.930   6.908 -1.6742  0.9426  0.9381
   78MOL   H13726471   6.930   1.750   6.975  0.0546  1.1339  0.9108
   78MOL   C13826472   6.786   1.805   7.282 -0.0202  0.5678 -0.0140
   78MOL   C13926473   6.637   1.846   7.269  0.4651  0.0747 -0.3692
   78MOL   C14026474   6.594   1.843   7.126  0.3327  0.1267 -0.0567
   78MOL   C14126475   6.668   1.913   7.023  0.2358  0.3798 -0.1433
   78MOL   C14226476   6.624   1.905   6.889  0.1590 -0.4625 -0.1685
   78MOL   C14326477   6.509   1.826   6.852  0.4086 -0.2725 -0.2826
   78MOL   C14426478   6.444   1.747   6.949  0.1585 -0.0953 -0.1697
   78MOL   C14526479   6.485   1.759   7.084 -0.3261 -0.3000  0.7081
   78MOL   O14626480   6.548   1.769   7.356 -0.5662 -0.2117 -0.0520
   78MOL   H14726481   6.852   1.882   7.243  1.3792  1.1535  3.3178
   78MOL   H14826482   6.805   1.792   7.388 -0.4622 -0.5465 -0.0651
   78MOL   H14926483   6.632   1.950   7.300 -0.5664  0.0790 -0.5092
   78MOL   H15026484   6.754   1.973   7.051  3.2696 -3.9090  0.1510
   78MOL   H15126485   6.679   1.946   6.805 -0.4768  1.1077  0.1796
   78MOL   H15226486   6.469   1.831   6.752  1.1401  0.7505 -0.5351
   78MOL   H15326487   6.352   1.696   6.925 -0.3704  1.4085 -1.4310
   78MOL   H15426488   6.425   1.711   7.160 -0.7554  1.2151  1.3544
   78MOL   C15526489   6.527   1.837   7.485  0.3470  0.0402 -0.1091
   78MOL   C15626490   6.421   1.951   7.479 -0.5108  0.1265  0.2493
   78MOL   C15726491   6.345   1.970   7.609  0.0010  0.1039 -0.3515
   78MOL   C15826492   6.226   1.892   7.624 -0.5941  0.7336 -0.3279
   78MOL   C15926493   6.154   1.916   7.745  0.3944  0.2138 -0.0999
   78MOL   C16026494   6.205   1.998   7.847 -0.4589 -0.1754  0.1623
   78MOL   C16126495   6.321   2.071   7.827  0.0808  0.3484 -0.2337
   78MOL   C16226496   6.394   2.056   7.709 -0.3243  0.1502  0.5592
   78MOL   O16326497   6.484   2.074   7.431 -0.1240 -0.1688  0.5614
   78MOL   H16426498   6.612   1.874   7.543  0.5373 -2.5570  1.3572
   78MOL   H16526499   6.493   1.757   7.550  0.8924 -1.6023 -1.7979
   78MOL   H16626500   6.344   1.917   7.410  0.4567  0.8790 -1.2315
   78MOL   H16726501   6.203   1.814   7.553 -0.7677  0.1772  0.3281
   78MOL   H16826502   6.062   1.864   7.766  1.7409 -1.7635  1.0588
   78MOL   H16926503   6.154   2.005   7.941  0.4069  2.1191  0.4881
   78MOL   H17026504   6.350   2.131   7.912  2.3070 -2.4067  1.0514
   78MOL   H17126505   6.469   2.128   7.680 -0.2497  1.1394  3.0104
   78MOL   C17226506   6.394   2.173   7.382 -0.0152  0.2022  0.1734
   78MOL   C17326507   6.468   2.302   7.352 -0.7259  0.6412 -0.4143
   78MOL   C17426508   6.584   2.293   7.248  0.4701 -0.2660  0.1132
   78MOL   C17526509   6.550   2.299   7.110  0.1970 -0.4814  0.9196
   78MOL   C17626510   6.647   2.291   7.009 -0.6450 -0.0277  0.2742
   78MOL   C17726511   6.778   2.267   7.046  0.6075  0.0868 -0.5132
   78MOL   C17826512   6.809   2.252   7.187 -0.0035  0.0383  0.6940
   78MOL   C17926513   6.717   2.282   7.295 -0.3939  0.6606  0.1173
   78MOL   O18026514   6.518   2.356   7.471 -0.1053 -0.4961 -0.3626
   78MOL   H18126515   6.351   2.135   7.289  2.9632 -1.1397 -0.7146
   78MOL   H18226516   6.313   2.182   7.454  0.0711  0.0201  0.2927
   78MOL   H18326517   6.397   2.377   7.316 -0.8214 -1.1629 -4.2666
   78MOL   H18426518   6.446   2.300   7.079  0.5293  0.6404 -0.2041
   78MOL   H18526519   6.628   2.303   6.904  0.7444  0.6724  0.0945
   78MOL   H18626520   6.857   2.239   6.978  0.7031 -0.0134 -0.3620
   78MOL   H18726521   6.914   2.239   7.208  0.8010  1.1440 -2.4232
   78MOL   H18826522   6.746   2.284   7.399  0.0130 -1.7043  0.0881
   78MOL   C18926523   6.544   2.496   7.454  0.7944  0.2283  0.2280
   78MOL   C19026524   6.416   2.578   7.502 -0.4189 -0.6247 -0.2521
   78MOL   C19126525   6.363   2.529   7.636  0.5748 -0.1542 -0.1050
   78MOL   C19226526   6.403   2.597   7.758  0.9157 -0.0715  0.5341
   78MOL   C19326527   6.347   2.550   7.878 -0.2986  0.2288 -0.3294
   78MOL   C19426528   6.246   2.448   7.884  0.0127  0.3158 -0.1719
   78MOL   C19526529   6.216   2.375   7.765 -0.0022  0.3834 -0.1566
   78MOL   C19626530   6.278   2.414   7.641  0.5172 -0.4109 -0.7623
   78MOL   O19726531   6.315   2.587   7.407  0.0899  0.2009  0.4528
   78MOL   H19826532   6.613   2.521   7.535 -2.2212  0.0537  2.9532
   78MOL   H19926533   6.578   2.534   7.358 -0.6671  1.6787  0.2692
   78MOL   H20026534   6.436   2.683   7.520 -3.3282 -0.3492  1.8197
   78MOL   H20126535   6.476   2.676   7.763  1.0946 -0.2582  0.9043
   78MOL   H20226536   6.380   2.593   7.972  1.6134 -1.4939 -0.1650
   78MOL   H20326537   6.204   2.412   7.977  0.3623  0.1522 -0.0774
   78MOL   H20426538   6.148   2.291   7.768 -0.0901  0.4945  1.2961
   78MOL   H20526539   6.254   2.372   7.544 -1.7016 -1.8916  0.3606
   78MOL   C20626540   6.335   2.674   7.293 -0.1151  0.4721  0.1859
   78MOL   C20726541   6.274   2.618   7.163 -0.1663 -0.2901 -0.4914
   78MOL   C20826542   6.150   2.538   7.182  0.1471 -0.1785 -0.5788
   78MOL   C20926543   6.152   2.398   7.166  0.1205 -0.3431  0.2690
   78MOL   C21026544   6.036   2.322   7.189  0.3481  0.3809  0.0095
   78MOL   C21126545   5.908   2.380   7.224 -0.5725 -0.4020 -0.4244
   78MOL   C21226546   5.905   2.520   7.247  0.2287 -0.3784  0.5352
   78MOL   C21326547   6.029   2.593   7.232  0.1548 -0.4265 -0.5507
   78MOL   O21426548   6.371   2.546   7.082  0.1857 -0.1666 -0.0499
   78MOL   H21526549   6.291   2.768   7.327  1.7529  1.4635 -0.0736
   78MOL   H21626550   6.441   2.696   7.282 -0.0846 -0.1118 -0.7158
   78MOL   H21726551   6.232   2.702   7.108 -2.1764 -0.2831  1.0296
   78MOL   H21826552   6.242   2.348   7.133 -1.3746  0.3358 -5.3298
   78MOL   H21926553   6.030   2.217   7.162  1.0403  0.2047  0.5294
   78MOL   H22026554   5.821   2.318   7.235 -2.6260  2.5154  0.4142
   78MOL   H22126555   5.817   2.563   7.292 -0.5440 -2.1483  0.7745
   78MOL   H22226556   6.026   2.697   7.261 -1.6918 -0.9900  1.4173
   78MOL   C22326557   6.462   2.622   6.999 -0.3307 -0.3145  0.1867
   78MOL   C22426558   6.416   2.623   6.851  0.0068  0.4364  0.2683
   78MOL   C22526559   6.267   2.658   6.836 -0.1783  0.8611 -0.5312
   78MOL   C22626560   6.226   2.783   6.788  0.1114 -0.4961 -0.2596
   78MOL   C22726561   6.101   2.815   6.745 -0.5201  0.2148  0.5483
   78MOL   C22826562   6.003   2.710   6.745  0.5684  0.6726 -0.0153
   78MOL   C22926563   6.042   2.579   6.789 -0.0456  1.0021 -0.8282
   78MOL   C23026564   6.168   2.554   6.843  0.6561  0.0385 -0.1663
   78MOL   O23126565   6.505   2.698   6.759 -0.4034 -0.6271 -0.0997
   78MOL   H23226566   6.473   2.727   7.027 -1.7435  0.0601 -0.5687
   78MOL   H23326567   6.563   2.582   6.995  0.7439  2.1165  2.0939
   78MOL   H23426568   6.421   2.517   6.826 -0.5098  0.7001 -0.9902
   78MOL   H23526569   6.295   2.866   6.782 -0.3272 -0.0699  0.4762
   78MOL   H23626570   6.083   2.917   6.714 -1.3833 -0.3152 -0.7566
   78MOL   H23726571   5.903   2.725   6.707  0.3558  1.4866  0.8382
   78MOL   H23826572   5.978   2.493   6.775  0.2107  1.0806 -2.5883
   78MOL   H23926573   6.186   2.452   6.875  0.7757 -0.2950 -1.3000
   78MOL   C24026574   6.481   2.676   6.621  0.0894 -0.0894  0.8082
   78MOL   C24126575   6.544   2.544   6.579 -0.4175  0.0066  0.8243
   78MOL   C24226576   6.696   2.524   6.615 -0.0724 -0.2316 -0.0762
   78MOL   C24326577   6.738   2.404   6.674  0.3064 -0.0798 -0.1039
   78MOL   C24426578   6.876   2.392   6.713  0.1291  0.0899 -0.6036
   78MOL   C24526579   6.967   2.497   6.693  0.1221 -0.3637 -0.1419
   78MOL   C24626580   6.924   2.616   6.635 -0.2158  0.2001 -0.2578
   78MOL   C24726581   6.789   2.628   6.598 -0.3314  0.1818  1.4825
   78MOL   O24826582   6.464   2.423   6.609  0.8337 -0.0432  0.1325
   78MOL   H24926583   6.377   2.678   6.589  0.1639  0.5616  0.5964
   78MOL   H25026584   6.536   2.755   6.569 -0.2966  1.3619  2.5305
   78MOL   H25126585   6.547   2.533   6.471 -0.1306  2.3105  0.5727
   78MOL   H25226586   6.678   2.315   6.690  1.3054 -0.9577 -1.1006
   78MOL   H25326587   6.916   2.303   6.760  0.2298  0.5702  0.2210
   78MOL   H25426588   7.071   2.496   6.724 -0.0680 -0.4166  0.4988
   78MOL   H25526589   6.990   2.702   6.631 -0.7880  0.5885 -1.9442
   78MOL   H25626590   6.760   2.723   6.556 -0.2045 -0.6742 -0.5988
   78MOL   C25726591   6.338   2.415   6.539 -0.5727  0.3083  0.2858
   78MOL   C25826592   6.282   2.278   6.554  0.0066 -0.3262 -0.2038
   78MOL   C25926593   6.255   2.231   6.695 -0.0842  0.6661 -0.8423
   78MOL   C26026594   6.363   2.195   6.778 -0.9382  0.2035  0.3633
   78MOL   C26126595   6.338   2.133   6.905  0.5204  0.1043 -0.2449
   78MOL   C26226596   6.206   2.128   6.953  0.5625 -0.0513  0.1111
   78MOL   C26326597   6.102   2.174   6.869  0.2128 -0.2309  0.2924
   78MOL   C26426598   6.122   2.224   6.743 -0.1590 -0.3477 -0.9824
   78MOL   O26526599   6.363   2.188   6.487 -0.3769  0.0972 -0.3458
   78MOL   H26626600   6.356   2.426   6.431 -0.1734 -0.7320  0.2447
   78MOL   H26726601   6.265   2.490   6.570 -0.3970  1.1998 -1.3594
   78MOL   H26826602   6.189   2.273   6.497  0.2757 -1.3964 -0.5744
   78MOL   H26926603   6.464   2.209   6.741 -0.7252 -0.5311  0.6599
   78MOL   H27026604   6.420   2.089   6.960  1.3659  0.7693 -0.9795
   78MOL   H27126605   6.183   2.081   7.047 -1.9372  0.2857 -0.3079
   78MOL   H27226606   5.997   2.157   6.884  0.0765 -0.1857 -0.5537
   78MOL   H27326607   6.034   2.250   6.687 -1.2176  0.1623  0.8700
   78MOL   C27426608   6.311   2.058   6.452 -0.2546 -0.0062  0.1988
   78MOL   C27526609   6.428   1.960   6.418  0.6468 -0.1213 -0.0691
   78MOL   C27626610   6.375   1.830   6.371  0.3433  0.5793 -0.1030
   78MOL   C27726611   6.384   1.795   6.238  0.3816 -0.9974 -0.1858
   78MOL   C27826612   6.338   1.674   6.185 -0.5368  0.1625  0.6787
   78MOL   C27926613   6.294   1.576   6.274 -0.4158 -0.3405 -0.4423
   78MOL   C28026614   6.295   1.606   6.416  0.4188 -0.0013  0.5733
   78MOL   C28126615   6.339   1.728   6.466 -0.8567  0.4594  0.8782
   78MOL   O28226616   6.513   1.941   6.540  0.6275  0.3545  0.4686
   78MOL   H28326617   6.265   2.026   6.545  2.3797 -0.4428  1.4126
   78MOL   H28426618   6.242   2.075   6.370  1.1201 -2.2968 -1.5123
   78MOL   H28526619   6.492   2.000   6.339  0.7685 -0.2731 -0.0473
   78MOL   H28626620   6.424   1.869   6.170  0.0657 -0.3496  0.3352
   78MOL   H28726621   6.352   1.663   6.079 -0.5637  2.1283  0.4421
   78MOL   H28826622   6.266   1.477   6.243 -1.9044 -0.0518 -0.0459
   78MOL   H28926623   6.271   1.527   6.486 -1.0286  0.3635  0.5015
   78MOL   H29026624   6.345   1.748   6.572  0.2928  1.2641  0.6794
   78MOL   C29126625   6.654   1.926   6.502  0.1840 -0.0419 -0.3073
   78MOL   C29226626   6.733   2.055   6.477  0.6063 -0.1693  0.1736
   78MOL   C29326627   6.885   2.029   6.484  0.6399 -0.1406 -0.6940
   78MOL   C29426628   6.950   1.985   6.368 -0.2862 -0.5584  0.6738
   78MOL   C29526629   7.088   1.963   6.371 -0.6438  0.6174  0.3631
   78MOL   C29626630   7.162   1.977   6.493 -0.2269  0.1165  1.0533
   78MOL   C29726631   7.093   2.007   6.610 -0.2652  0.1286  0.5188
   78MOL   C29826632   6.958   2.030   6.604  0.2769  0.3724  0.3816
   78MOL   O29926633   6.710   2.111   6.352 -0.0315  0.6302  0.1074
   78MOL   H30026634   6.670   1.864   6.413 -1.1305 -0.8754  0.0277
   78MOL   H30126635   6.695   1.871   6.586 -1.9697 -1.3511 -0.0666
   78MOL   H30226636   6.728   2.116   6.567 -4.3901  0.8957 -0.6877
   78MOL   H30326637   6.893   1.970   6.277  3.6130  0.9477 -2.1630
   78MOL   H30426638   7.146   1.934   6.285 -0.7863 -1.3381  0.9048
   78MOL   H30526639   7.269   1.974   6.481 -0.3977  0.4570 -0.8319
   78MOL   H30626640   7.139   2.022   6.707 -1.9652  0.2656  1.3237
   78MOL   H30726641   6.907   2.072   6.690  1.0598  2.0558  0.0542
   78MOL   C30826642   6.690   2.249   6.357 -0.3332 -1.0223  0.8916
   78MOL   C30926643   6.679   2.298   6.215  0.2810  0.3129  0.1743
   78MOL   C31026644   6.551   2.236   6.147  0.7433 -0.0784 -0.1379
   78MOL   C31126645   6.424   2.288   6.174  0.2405 -0.1253  0.3005
   78MOL   C31226646   6.309   2.228   6.125 -0.4666 -0.0464 -0.2694
   78MOL   C31326647   6.315   2.117   6.038 -0.2319  0.2536  0.1039
   78MOL   C31426648   6.440   2.071   5.994 -0.3134 -0.7413  0.5394
   78MOL   C31526649   6.560   2.121   6.058 -0.5068  0.2476  0.1488
   78MOL   O31626650   6.673   2.440   6.213 -0.2905 -0.2083  0.3727
   78MOL   H31726651   6.767   2.308   6.406  0.8532 -1.9792  0.1897
   78MOL   H31826652   6.598   2.281   6.406 -1.6673  0.0010 -2.1336
   78MOL   H31926653   6.770   2.269   6.164  0.2164 -1.9487  1.2395
   78MOL   H32026654   6.419   2.370   6.244  1.2626 -0.9815  1.3922
   78MOL   H32126655   6.213   2.256   6.165 -0.6276 -1.1730  0.1578
   78MOL   H32226656   6.222   2.074   6.003  0.6771 -0.0316 -1.9872
   78MOL   H32326657   6.453   1.990   5.923 -0.1648  1.4769 -2.0845
   78MOL   H32426658   6.655   2.074   6.036 -1.4031 -1.8851  0.7316
   78MOL   C32526659   6.799   2.503   6.248 -0.3508 -0.0795 -0.2312
   78MOL   C32626660   6.797   2.651   6.197 -0.1714  0.1882 -0.1256
   78MOL   C32726661   6.782   2.665   6.043  0.0570  0.3608 -0.5175
   78MOL   C32826662   6.667   2.616   5.976 -0.2484  0.5810 -0.5188
   78MOL   C32926663   6.672   2.590   5.843  0.1712  0.7012 -0.0209
   78MOL   C33026664   6.772   2.637   5.763  0.7831  0.1858  0.0170
   78MOL   C33126665   6.882   2.704   5.826  0.7949  0.2668  0.6751
   78MOL   C33226666   6.885   2.709   5.966 -0.7049 -0.5798 -0.0716
   78MOL   O33326667   6.687   2.720   6.261 -0.2736  0.7088 -0.6271
   78MOL   H33426668   6.889   2.447   6.223 -1.2521 -2.2125  1.0971
   78MOL   H33526669   6.780   2.509   6.356 -3.1514 -0.0232 -0.6907
   78MOL   H33626670   6.883   2.705   6.236 -0.5941  0.9578 -0.2428
   78MOL   H33726671   6.581   2.579   6.030  0.6940  0.4982  0.9385
   78MOL   H33826672   6.584   2.537   5.809  1.0531 -1.9763  1.6803
   78MOL   H33926673   6.772   2.629   5.655  0.4233  2.1261 -0.1464
   78MOL   H34026674   6.964   2.738   5.765  0.6564 -0.0481  0.3177
   78MOL   H34126675   6.974   2.752   6.011 -0.1380 -2.4801  0.6809
   78MOL   H34226676   6.612   2.705   6.206 -0.0468 -1.8377 -0.2824
   79MOL     C126677   1.061   4.564   6.178 -0.1425  0.2261  0.5977
   79MOL     C226678   0.965   4.655   6.260 -0.2247  0.4694  0.1407
   79MOL     C326679   0.816   4.635   6.223 -0.4023 -0.1615  0.0276
   79MOL     C426680   0.743   4.531   6.285 -0.4830 -0.2844  0.4414
   79MOL     C526681   0.606   4.517   6.262 -0.3156 -0.2982 -0.4619
   79MOL     C626682   0.548   4.595   6.159  0.8416  0.3528 -0.2116
   79MOL     C726683   0.617   4.702   6.092  0.1053 -0.3032  0.0824
   79MOL     C826684   0.751   4.723   6.130 -0.3525 -0.3522  0.1965
   79MOL     O926685   1.016   4.787   6.238 -0.1531  0.0188 -0.0166
   79MOL    H1026686   1.160   4.567   6.224  0.2118  1.6066 -0.2355
   79MOL    H1126687   1.023   4.461   6.177 -0.0180  0.1451  2.8709
   79MOL    H1226688   0.985   4.638   6.365 -1.6918  1.1345  0.5418
   79MOL    H1326689   0.778   4.464   6.362  1.1721 -1.2558 -1.1529
   79MOL    H1426690   0.559   4.440   6.321 -1.2307 -0.2722 -1.1423
   79MOL    H1526691   0.442   4.581   6.144  0.3635  2.6007  0.9586
   79MOL    H1626692   0.558   4.764   6.026  3.1652 -0.1106 -2.5949
   79MOL    H1726693   0.808   4.805   6.089 -1.8598  0.9782  0.6870
   79MOL    H1826694   1.056   4.604   6.077  0.9847  1.1009  0.8867
   79MOL    C1926695   0.979   4.888   6.334 -0.0915  0.3654  0.2564
   79MOL    C2026696   1.038   5.026   6.306  0.2569 -0.3701 -0.6800
   79MOL    C2126697   1.035   5.111   6.435 -0.4000 -0.5106  0.4999
   79MOL    C2226698   0.943   5.220   6.444  0.1261 -0.1401 -0.0396
   79MOL    C2326699   0.928   5.278   6.570 -0.1383 -0.1406  0.3721
   79MOL    C2426700   1.013   5.249   6.680  0.7802  0.5547 -0.0784
   79MOL    C2526701   1.102   5.137   6.672  0.4332 -0.5646  0.2346
   79MOL    C2626702   1.114   5.066   6.545  0.0163  0.2580  0.2636
   79MOL    O2726703   0.977   5.105   6.198 -0.6300  0.9225 -0.4586
   79MOL    H2826704   0.871   4.902   6.336 -0.0543  0.7802 -0.3840
   79MOL    H2926705   1.007   4.867   6.437  0.3805  1.3787  0.3400
   79MOL    H3026706   1.144   5.000   6.300  0.9676  2.3458 -0.6649
   79MOL    H3126707   0.871   5.246   6.367  0.3219  0.3589 -0.0557
   79MOL    H3226708   0.857   5.354   6.599 -0.8222 -1.2510  1.6439
   79MOL    H3326709   0.999   5.301   6.773 -0.3839  0.8898 -0.4392
   79MOL    H3426710   1.162   5.106   6.756  1.5258 -0.9068 -0.6491
   79MOL    H3526711   1.179   4.980   6.538  0.5767  0.6332  0.7741
   79MOL    C3626712   1.074   5.099   6.090 -0.3828 -0.1875  0.2039
   79MOL    C3726713   1.058   5.198   5.976 -0.4237 -0.1708 -0.5511
   79MOL    C3826714   0.914   5.168   5.920 -0.4108  0.6552  0.1557
   79MOL    C3926715   0.809   5.255   5.945 -1.1560 -0.2015  1.1839
   79MOL    C4026716   0.682   5.223   5.895 -0.0284  0.1293 -0.3075
   79MOL    C4126717   0.661   5.102   5.824 -0.1287 -0.1970  0.6576
   79MOL    C4226718   0.765   5.013   5.800 -0.3030 -0.1273  0.3593
   79MOL    C4326719   0.896   5.048   5.843  0.4542  0.0572 -0.0325
   79MOL    O4426720   1.164   5.182   5.884  0.1568 -0.3313  0.0823
   79MOL    H4526721   1.175   5.102   6.133  0.0664 -0.0797 -0.8538
   79MOL    H4626722   1.075   4.998   6.050  3.1572 -0.3853  0.5703
   79MOL    H4726723   1.060   5.300   6.015  1.8907  0.0499 -1.1938
   79MOL    H4826724   0.833   5.341   6.005  2.6240  0.2264 -0.8003
   79MOL    H4926725   0.600   5.292   5.906 -0.7230 -0.7465  0.0699
   79MOL    H5026726   0.562   5.067   5.796 -0.4303  0.0356  1.4221
   79MOL    H5126727   0.741   4.918   5.755  1.3747 -0.8624  0.9425
   79MOL    H5226728   0.961   4.963   5.827 -0.7165 -0.6852 -1.0279
   79MOL    C5326729   1.183   5.301   5.797  0.6352  0.3864 -0.2777
   79MOL    C5426730   1.303   5.281   5.700 -0.4539 -0.6497 -0.5668
   79MOL    C5526731   1.283   5.194   5.575  0.2664  0.2373 -0.2825
   79MOL    C5626732   1.383   5.188   5.481  0.2112  0.2175  0.0346
   79MOL    C5726733   1.369   5.134   5.353 -0.2482  0.3678  0.2856
   79MOL    C5826734   1.244   5.068   5.327 -0.1364 -0.1044  0.4662
   79MOL    C5926735   1.148   5.057   5.428  0.4735 -0.4417  0.0342
   79MOL    C6026736   1.165   5.116   5.555 -0.8888 -0.7859  0.6012
   79MOL    O6126737   1.361   5.407   5.650 -0.3175  0.0733  0.3911
   79MOL    H6226738   1.091   5.343   5.756 -0.9301  0.3638  2.9999
   79MOL    H6326739   1.214   5.380   5.866  1.1073  0.7742 -0.9199
   79MOL    H6426740   1.384   5.225   5.748  0.4917 -0.2098 -1.6371
   79MOL    H6526741   1.472   5.243   5.509 -0.1917  0.5712  0.6364
   79MOL    H6626742   1.457   5.132   5.291 -1.0157 -1.2648 -0.7921
   79MOL    H6726743   1.236   5.006   5.239 -0.0053 -0.1393  0.4783
   79MOL    H6826744   1.056   5.004   5.412  0.4351 -0.0329 -1.1435
   79MOL    H6926745   1.093   5.122   5.635 -0.2800  1.1741  1.0394
   79MOL    C7026746   1.429   5.483   5.746  0.7216  0.1642 -0.1946
   79MOL    C7126747   1.557   5.421   5.792  0.4627  0.5636  0.5949
   79MOL    C7226748   1.640   5.357   5.679 -0.9353 -0.1063 -0.4866
   79MOL    C7326749   1.703   5.436   5.579  0.9684 -0.0274 -0.3140
   79MOL    C7426750   1.793   5.382   5.487  0.1449 -0.0155  0.6716
   79MOL    C7526751   1.812   5.243   5.483  0.0236 -0.4113 -0.4608
   79MOL    C7626752   1.737   5.157   5.568 -0.1652  0.5630 -0.3909
   79MOL    C7726753   1.654   5.219   5.670 -0.4200  0.8542  0.5641
   79MOL    O7826754   1.548   5.337   5.909  0.5558  0.3813  0.5612
   79MOL    H7926755   1.446   5.572   5.685 -0.5079 -0.3264 -1.2677
   79MOL    H8026756   1.363   5.509   5.829  0.8014 -1.8786  0.5307
   79MOL    H8126757   1.595   5.515   5.832  0.1734  0.9027  0.0791
   79MOL    H8226758   1.691   5.543   5.566 -2.2877 -0.4292 -0.8716
   79MOL    H8326759   1.838   5.446   5.413 -1.0967  1.5505  1.2550
   79MOL    H8426760   1.872   5.203   5.402  1.3408  0.9396 -0.1743
   79MOL    H8526761   1.752   5.050   5.563 -0.6638  0.4899 -0.3331
   79MOL    H8626762   1.582   5.154   5.718 -0.9697  0.5917 -0.6121
   79MOL    C8726763   1.666   5.338   5.997  0.4272  0.1269  0.0162
   79MOL    C8826764   1.649   5.427   6.120 -0.1987  0.3482  0.1093
   79MOL    C8926765   1.527   5.388   6.193 -0.0336  0.5596  0.3821
   79MOL    C9026766   1.541   5.305   6.305  0.4327 -0.2296 -0.4385
   79MOL    C9126767   1.423   5.284   6.387 -0.2596 -0.0653  0.3672
   79MOL    C9226768   1.298   5.335   6.360  0.1795  0.1960  0.6020
   79MOL    C9326769   1.284   5.392   6.228  0.7457  0.1100 -0.2708
   79MOL    C9426770   1.395   5.427   6.150 -0.2894 -0.1927  0.5929
   79MOL    O9526771   1.640   5.566   6.084 -0.5346  0.6873 -0.2484
   79MOL    H9626772   1.755   5.362   5.939  1.9550  0.5335  2.4572
   79MOL    H9726773   1.678   5.232   6.017  0.0751 -0.0271 -0.5833
   79MOL    H9826774   1.738   5.410   6.180  1.8959  1.2236 -2.6609
   79MOL    H9926775   1.636   5.263   6.336  0.2877 -0.5667 -0.4458
   79MOL   H10026776   1.430   5.239   6.485 -0.5289  2.1562  1.4352
   79MOL   H10126777   1.210   5.320   6.422 -3.1978  0.1828 -3.9528
   79MOL   H10226778   1.184   5.421   6.197 -0.2769 -0.6095  2.1985
   79MOL   H10326779   1.384   5.476   6.054  0.0517 -1.0852  0.0878
   79MOL   C10426780   1.637   5.662   6.189  0.1995 -0.4514 -0.1229
   79MOL   C10526781   1.716   5.789   6.159 -0.3037  0.0647 -0.4570
   79MOL   C10626782   1.657   5.909   6.230 -0.2480 -0.5582 -0.3947
   79MOL   C10726783   1.667   5.910   6.373  0.1083 -0.2539 -0.4499
   79MOL   C10826784   1.606   6.021   6.438 -0.1236 -0.2445 -0.1905
   79MOL   C10926785   1.532   6.117   6.361 -0.5060  0.4013 -0.4728
   79MOL   C11026786   1.527   6.116   6.224 -0.0218  0.4230 -0.0533
   79MOL   C11126787   1.591   6.011   6.154 -0.0868 -0.1579 -0.4683
   79MOL   O11226788   1.856   5.768   6.176  0.1860 -0.3482 -0.3909
   79MOL   H11326789   1.532   5.688   6.201  0.6162  2.5778 -2.5349
   79MOL   H11426790   1.671   5.628   6.287  1.0892  2.2487  0.5468
   79MOL   H11526791   1.704   5.798   6.051 -2.9725  2.1864 -0.0414
   79MOL   H11626792   1.707   5.831   6.435  1.6503  1.4331  0.7774
   79MOL   H11726793   1.610   6.024   6.546  0.6981  1.4076 -0.2565
   79MOL   H11826794   1.477   6.193   6.414 -0.6591 -0.1649  0.1879
   79MOL   H11926795   1.458   6.180   6.171  0.8215  0.5837 -0.9815
   79MOL   H12026796   1.582   5.990   6.048 -0.7834  0.3658 -0.5127
   79MOL   C12126797   1.945   5.872   6.137  0.0911 -0.1511 -0.4488
   79MOL   C12226798   1.976   5.883   5.991 -0.7278 -0.1032 -0.0804
   79MOL   C12326799   2.043   5.765   5.924 -0.5099 -0.0532  0.4560
   79MOL   C12426800   2.184   5.748   5.928 -0.0881  0.5490  0.4430
   79MOL   C12526801   2.243   5.643   5.860  0.2908  0.1547 -0.2646
   79MOL   C12626802   2.163   5.540   5.813  1.2734  0.6253  1.2082
   79MOL   C12726803   2.020   5.553   5.817 -0.5396  0.3610 -0.0254
   79MOL   C12826804   1.960   5.667   5.872  0.2225  0.3860  1.1265
   79MOL   O12926805   1.863   5.930   5.919 -0.1418 -0.2200  0.5268
   79MOL   H13026806   2.032   5.855   6.201 -0.3271  3.0121  1.0314
   79MOL   H13126807   1.908   5.969   6.169 -0.6853 -0.0102 -1.7343
   79MOL   H13226808   2.042   5.969   5.986  0.0336 -0.7047 -0.5757
   79MOL   H13326809   2.251   5.827   5.959  0.4205  1.2529 -2.3193
   79MOL   H13426810   2.349   5.637   5.841  0.1303 -0.0549 -1.1152
   79MOL   H13526811   2.193   5.452   5.759  0.3430  1.7286 -1.2368
   79MOL   H13626812   1.962   5.469   5.782  1.7014 -0.1591 -2.6560
   79MOL   H13726813   1.853   5.678   5.866  0.5105  1.8239 -1.7327
   79MOL   C13826814   1.885   5.984   5.785  0.4778 -0.7102  0.1289
   79MOL   C13926815   1.898   6.134   5.776 -0.9671 -0.2254  0.1059
   79MOL   C14026816   1.775   6.213   5.806 -0.2406 -0.0501 -0.0084
   79MOL   C14126817   1.742   6.255   5.933  0.1530 -0.4084  0.0088
   79MOL   C14226818   1.614   6.319   5.960 -0.2605 -0.2777 -0.1395
   79MOL   C14326819   1.541   6.356   5.852 -0.3969 -0.4737  0.5418
   79MOL   C14426820   1.571   6.316   5.718 -0.4078  0.3728  0.5888
   79MOL   C14526821   1.688   6.238   5.694  0.4227 -0.4447 -0.3976
   79MOL   O14626822   2.016   6.186   5.837 -0.9395 -0.5559 -0.1449
   79MOL   H14726823   1.789   5.962   5.739  0.7150 -0.6813 -0.3869
   79MOL   H14826824   1.948   5.928   5.716  0.3245 -1.6060  0.7184
   79MOL   H14926825   1.913   6.148   5.669 -1.8287 -2.1836 -0.2883
   79MOL   H15026826   1.804   6.232   6.019  0.2126 -1.0436 -0.2070
   79MOL   H15126827   1.583   6.353   6.058  0.9118 -2.8329  1.1605
   79MOL   H15226828   1.454   6.418   5.860  2.1587  3.3960 -0.2694
   79MOL   H15326829   1.503   6.340   5.637  1.1216  2.2906 -0.1703
   79MOL   H15426830   1.712   6.214   5.591 -2.5618 -2.2709 -0.7368
   79MOL   C15526831   2.038   6.331   5.830 -0.1981 -0.0700 -0.7899
   79MOL   C15626832   2.176   6.358   5.893 -0.8464 -0.3602  0.2443
   79MOL   C15726833   2.202   6.280   6.020 -0.0452 -0.1156  0.3998
   79MOL   C15826834   2.159   6.345   6.140 -0.2691  0.2394 -0.8626
   79MOL   C15926835   2.175   6.279   6.260  0.4215  0.0780 -0.7122
   79MOL   C16026836   2.240   6.152   6.257  0.1848  0.0689 -0.4913
   79MOL   C16126837   2.284   6.085   6.142  0.3115  0.4397  0.3686
   79MOL   C16226838   2.270   6.154   6.021  0.1851  0.6347  0.2684
   79MOL   O16326839   2.283   6.355   5.794  0.4386  0.4646  0.5316
   79MOL   H16426840   1.956   6.385   5.877  0.0555 -1.3805  1.2432
   79MOL   H16526841   2.029   6.361   5.725  0.2923  1.0693 -0.5161
   79MOL   H16626842   2.168   6.463   5.920 -2.6091 -0.0185 -1.5322
   79MOL   H16726843   2.105   6.438   6.146 -5.4042 -2.3824 -3.5326
   79MOL   H16826844   2.141   6.326   6.352 -4.1829 -0.8269 -1.7911
   79MOL   H16926845   2.257   6.106   6.353 -1.1198  1.4356  0.4167
   79MOL   H17026846   2.338   5.994   6.163  0.6662  0.5727  0.0486
   79MOL   H17126847   2.310   6.110   5.931 -1.5189  1.0247 -0.7102
   79MOL   C17226848   2.408   6.406   5.841 -0.5209  0.3649 -0.3833
   79MOL   C17326849   2.515   6.404   5.730 -0.1123 -0.0299 -0.4161
   79MOL   C17426850   2.488   6.474   5.599  0.3074 -0.5681 -0.1726
   79MOL   C17526851   2.383   6.564   5.580  0.3299 -1.0723  0.8233
   79MOL   C17626852   2.369   6.634   5.457 -0.2986  0.3563  0.3177
   79MOL   C17726853   2.453   6.607   5.350  0.9074 -0.1924 -0.0810
   79MOL   C17826854   2.556   6.515   5.368  0.0613  0.8810 -0.4241
   79MOL   C17926855   2.582   6.456   5.491 -0.8955 -0.3188 -0.0075
   79MOL   O18026856   2.563   6.272   5.707  0.5379  1.0767  0.3365
   79MOL   H18126857   2.402   6.498   5.899 -0.2541  1.7333 -2.5078
   79MOL   H18226858   2.446   6.329   5.909 -1.1408 -0.9371 -1.4859
   79MOL   H18326859   2.603   6.460   5.760  0.6390  1.0378 -4.2469
   79MOL   H18426860   2.323   6.586   5.668  1.8701  0.8616  1.4464
   79MOL   H18526861   2.295   6.713   5.445 -0.0830  0.3739 -1.0597
   79MOL   H18626862   2.432   6.658   5.257  1.4389  0.2667  0.0479
   79MOL   H18726863   2.627   6.510   5.287 -1.6259 -0.3264 -1.8871
   79MOL   H18826864   2.668   6.393   5.510  0.1121  0.6450 -1.2992
   79MOL   C18926865   2.484   6.185   5.628  0.3532  0.0572  0.2433
   79MOL   C19026866   2.559   6.054   5.620  0.2162 -0.5918 -0.1680
   79MOL   C19126867   2.592   5.994   5.760  0.8993  0.0742  0.9671
   79MOL   C19226868   2.502   5.907   5.830  0.4290 -0.1194  0.3579
   79MOL   C19326869   2.541   5.850   5.954  0.3181  1.0618  0.2628
   79MOL   C19426870   2.673   5.865   5.997  0.5629  0.6387  0.0381
   79MOL   C19526871   2.761   5.950   5.933  0.0150 -0.2830  0.1619
   79MOL   C19626872   2.716   6.025   5.817  0.6975 -0.0029 -0.2769
   79MOL   O19726873   2.676   6.079   5.540 -0.4166  0.0575 -0.5415
   79MOL   H19826874   2.389   6.170   5.678  0.1816  0.4232  0.0280
   79MOL   H19926875   2.446   6.222   5.533  0.5310  0.6740  0.4094
   79MOL   H20026876   2.492   5.980   5.576  0.8574 -0.8279 -0.7489
   79MOL   H20126877   2.408   5.882   5.783  0.0665  0.0737  0.9705
   79MOL   H20226878   2.475   5.789   6.015  0.5120  0.9456  0.3572
   79MOL   H20326879   2.698   5.806   6.084 -0.0643  0.7093  0.2722
   79MOL   H20426880   2.863   5.951   5.967  0.2048 -0.9724 -0.3779
   79MOL   H20526881   2.778   6.091   5.758  0.8870 -0.7700 -0.9319
   79MOL   C20626882   2.658   6.063   5.403 -0.6647 -0.0038  0.0255
   79MOL   C20726883   2.798   6.034   5.343  0.6037  0.1367 -0.1451
   79MOL   C20826884   2.877   6.164   5.366  0.3255  0.5969  0.0707
   79MOL   C20926885   2.954   6.173   5.479  0.9825 -0.2592 -0.0948
   79MOL   C21026886   3.050   6.277   5.488  0.5885 -0.3607 -0.2442
   79MOL   C21126887   3.055   6.377   5.392  0.6295 -0.4709 -0.1443
   79MOL   C21226888   2.954   6.384   5.292 -0.3964  0.3078  0.5625
   79MOL   C21326889   2.873   6.270   5.274  0.1603 -0.0464 -0.4658
   79MOL   O21426890   2.776   6.005   5.208 -0.2603 -0.4300 -0.1092
   79MOL   H21526891   2.598   5.974   5.385  0.9411 -0.7346 -1.8217
   79MOL   H21626892   2.615   6.151   5.355  0.6343 -0.0784 -1.3329
   79MOL   H21726893   2.843   5.948   5.392 -0.3748  0.1106  0.7165
   79MOL   H21826894   2.956   6.085   5.541 -0.7958 -0.5782 -0.4583
   79MOL   H21926895   3.122   6.273   5.568 -1.9567  0.9799  2.2418
   79MOL   H22026896   3.120   6.464   5.396 -0.4119  0.2853  0.9063
   79MOL   H22126897   2.941   6.469   5.227 -0.4812 -0.2770 -0.1923
   79MOL   H22226898   2.794   6.260   5.202 -1.1659 -2.6805  1.2675
   79MOL   C22326899   2.892   5.961   5.136 -0.3407  0.2793 -0.0590
   79MOL   C22426900   2.850   5.931   4.999 -0.2111 -0.5599  0.7426
   79MOL   C22526901   2.755   5.808   4.989 -0.1242 -0.1262  0.4761
   79MOL   C22626902   2.614   5.831   4.968  0.4709 -0.0914  0.1506
   79MOL   C22726903   2.524   5.724   4.964  0.1985  0.3081  0.2941
   79MOL   C22826904   2.575   5.592   4.971 -0.1934  1.1546  0.1515
   79MOL   C22926905   2.715   5.570   4.995 -0.2462 -1.1899 -0.2093
   79MOL   C23026906   2.800   5.678   5.003 -0.4015  0.2228 -1.0288
   79MOL   O23126907   2.795   6.053   4.951 -0.1232 -0.4797 -0.1657
   79MOL   H23226908   2.958   6.048   5.130  0.2796 -0.2110 -0.4945
   79MOL   H23326909   2.932   5.872   5.185  0.8689  0.6387 -0.3662
   79MOL   H23426910   2.933   5.909   4.932 -0.0846 -0.1153  0.7504
   79MOL   H23526911   2.567   5.928   4.959  0.9039 -0.0773 -2.3068
   79MOL   H23626912   2.418   5.740   4.951  0.6180  2.5612 -0.5224
   79MOL   H23726913   2.512   5.504   4.968  1.0894  0.1595  1.3015
   79MOL   H23826914   2.749   5.468   4.983 -0.8129 -1.0782 -2.9575
   79MOL   H23926915   2.906   5.664   5.013 -0.7801 -0.2145  2.9805
   79MOL   C24026916   2.779   6.059   4.807  0.3538  0.2273  0.0727
   79MOL   C24126917   2.911   6.098   4.741 -0.5790 -0.8488  0.2944
   79MOL   C24226918   2.976   6.217   4.801 -0.5884 -0.3605 -0.5094
   79MOL   C24326919   2.948   6.349   4.744 -0.0931 -0.1630 -0.1903
   79MOL   C24426920   3.017   6.461   4.797  0.4507  0.4491  0.9149
   79MOL   C24526921   3.112   6.448   4.906 -0.1075  0.3601  0.1623
   79MOL   C24626922   3.143   6.321   4.958  0.1974  0.3091 -0.0541
   79MOL   C24726923   3.078   6.211   4.901  0.6157  0.0697 -0.2647
   79MOL   O24826924   2.997   5.986   4.724 -0.0482 -0.1173  0.3645
   79MOL   H24926925   2.723   5.974   4.769 -1.8909  1.5413  0.3266
   79MOL   H25026926   2.714   6.142   4.782  0.6073 -0.1662 -1.9176
   79MOL   H25126927   2.887   6.128   4.639 -1.3989  0.3371  0.8150
   79MOL   H25226928   2.877   6.364   4.664 -1.4946 -2.3200  0.6099
   79MOL   H25326929   3.005   6.556   4.747  1.5550  0.6783  1.0719
   79MOL   H25426930   3.156   6.538   4.947  1.1854 -0.7575  1.2877
   79MOL   H25526931   3.225   6.302   5.026  2.8163 -1.2376 -3.4917
   79MOL   H25626932   3.100   6.113   4.939 -0.9990  0.5329  1.9729
   79MOL   C25726933   3.101   5.989   4.628  1.0667 -0.8037  0.1737
   79MOL   C25826934   3.161   5.843   4.607  0.2673 -0.3092 -0.3164
   79MOL   C25926935   3.050   5.750   4.564 -0.0500  0.4365 -0.4973
   79MOL   C26026936   2.953   5.706   4.660 -0.1997 -0.0907  0.5039
   79MOL   C26126937   2.859   5.609   4.625  0.1514  0.0948  0.2620
   79MOL   C26226938   2.861   5.557   4.494 -0.1086 -0.1895 -0.9568
   79MOL   C26326939   2.956   5.601   4.403 -0.3272  0.6765  0.5746
   79MOL   C26426940   3.053   5.698   4.434  0.0166  0.0097  0.3482
   79MOL   O26526941   3.224   5.809   4.726  0.6240 -0.3384 -0.1668
   79MOL   H26626942   3.188   6.052   4.650 -0.1264  1.0539 -0.3598
   79MOL   H26726943   3.059   6.028   4.536  0.3042 -0.3456  0.7144
   79MOL   H26826944   3.224   5.852   4.518 -0.7019 -1.4350 -1.1431
   79MOL   H26926945   2.955   5.740   4.763  1.7678  0.7745  0.2196
   79MOL   H27026946   2.789   5.572   4.698 -1.2441 -0.1727 -1.1746
   79MOL   H27126947   2.786   5.484   4.466 -1.8472  2.3422 -3.1171
   79MOL   H27226948   2.958   5.566   4.301  0.4998  0.7415  0.5635
   79MOL   H27326949   3.127   5.737   4.365  0.2688  0.9288  1.1350
   79MOL   C27426950   3.303   5.695   4.709 -0.2852  0.1498  0.1545
   79MOL   C27526951   3.442   5.714   4.664  0.1702 -0.8244  0.2026
   79MOL   C27626952   3.517   5.817   4.749  0.5869  0.9955 -0.1202
   79MOL   C27726953   3.495   5.952   4.729 -0.2825  0.2489 -0.6618
   79MOL   C27826954   3.556   6.036   4.825  0.6165  0.3869 -0.1438
   79MOL   C27926955   3.642   5.984   4.920 -0.1597  0.0145  0.0848
   79MOL   C28026956   3.673   5.849   4.931 -0.8340  0.2255  0.1724
   79MOL   C28126957   3.604   5.766   4.845 -0.0302 -0.0248  0.2172
   79MOL   O28226958   3.440   5.754   4.529 -0.2178  0.0790  0.2624
   79MOL   H28326959   3.296   5.648   4.807 -0.4910 -0.0632  0.0378
   79MOL   H28426960   3.264   5.618   4.643 -0.5838  1.7820 -1.6200
   79MOL   H28526961   3.498   5.620   4.661  0.4703 -0.6238 -0.4062
   79MOL   H28626962   3.424   5.987   4.656 -0.2780 -0.4870 -1.0288
   79MOL   H28726963   3.532   6.141   4.818 -1.9679  0.0299  2.2180
   79MOL   H28826964   3.686   6.058   4.985  0.3421  0.0423 -0.2755
   79MOL   H28926965   3.744   5.815   5.005 -1.5080 -2.5282 -0.4115
   79MOL   H29026966   3.634   5.663   4.862 -1.0890 -0.3325  0.2473
   79MOL   C29126967   3.560   5.744   4.461  0.3509  0.5055 -0.1246
   79MOL   C29226968   3.573   5.853   4.355 -0.7996 -0.8922 -0.2800
   79MOL   C29326969   3.701   5.850   4.279 -0.4059  0.3416 -0.6304
   79MOL   C29426970   3.728   5.745   4.194  0.5888 -0.5127 -0.3430
   79MOL   C29526971   3.844   5.739   4.116 -0.3376  0.2831 -0.2295
   79MOL   C29626972   3.928   5.856   4.122 -0.1425  0.5413  0.2748
   79MOL   C29726973   3.905   5.964   4.209  0.1534 -0.0522  0.1459
   79MOL   C29826974   3.785   5.963   4.285 -0.0249 -0.0249  0.3752
   79MOL   O29926975   3.468   5.843   4.263  0.2069  0.0548  0.7958
   79MOL   H30026976   3.555   5.647   4.410  2.3274  0.3749 -0.0898
   79MOL   H30126977   3.646   5.754   4.527  0.5178  0.0436 -0.2711
   79MOL   H30226978   3.567   5.950   4.405 -2.2453 -0.2359 -1.6663
   79MOL   H30326979   3.667   5.656   4.191  0.1499 -0.2284  0.0565
   79MOL   H30426980   3.861   5.658   4.047 -1.4332 -0.8862  0.8414
   79MOL   H30526981   4.017   5.852   4.061  0.4912 -0.7696  1.2546
   79MOL   H30626982   3.964   6.054   4.204 -1.5753  1.1330  0.6481
   79MOL   H30726983   3.751   6.055   4.331 -2.9961 -0.8139 -0.1577
   79MOL   C30826984   3.417   5.969   4.235  0.0956  0.5952  0.0907
   79MOL   C30926985   3.359   5.966   4.099  0.2862  0.2178 -0.2387
   79MOL   C31026986   3.244   5.871   4.098 -0.4662 -0.5709  0.4580
   79MOL   C31126987   3.117   5.916   4.149 -0.2506 -0.0950  0.1369
   79MOL   C31226988   3.010   5.824   4.147  1.2154 -0.0273 -0.4741
   79MOL   C31326989   3.020   5.708   4.068 -0.0884 -0.4328 -0.3365
   79MOL   C31426990   3.139   5.676   3.997 -0.1145 -0.1198 -0.0933
   79MOL   C31526991   3.254   5.756   4.018  0.2779 -0.2533 -0.2213
   79MOL   O31626992   3.327   6.104   4.078  0.0374 -0.3095 -0.8698
   79MOL   H31726993   3.499   6.040   4.243  1.0590 -0.3592 -1.0230
   79MOL   H31826994   3.327   5.993   4.292 -0.3576 -2.7668  0.9467
   79MOL   H31926995   3.439   5.927   4.036 -0.6870  1.9197 -2.5988
   79MOL   H32026996   3.110   6.012   4.197 -1.0127  1.2098 -2.4895
   79MOL   H32126997   2.918   5.843   4.201  0.1770  3.2359 -3.1847
   79MOL   H32226998   2.937   5.640   4.080 -1.4545  1.2465 -0.1337
   79MOL   H32326999   3.152   5.581   3.948 -0.7722  0.6564 -1.8256
   79MOL   H32427000   3.348   5.735   3.970  0.8901  2.5147 -0.3306
   79MOL   C32527001   3.264   6.128   3.948 -0.2599 -0.2766 -0.2282
   79MOL   C32627002   3.317   6.259   3.891  0.1325  0.4054 -0.7726
   79MOL   C32727003   3.261   6.379   3.968 -0.1338  0.1516 -0.8203
   79MOL   C32827004   3.334   6.501   3.948  0.4096  0.0690 -0.3731
   79MOL   C32927005   3.291   6.617   4.013 -0.4816 -0.5375  0.7250
   79MOL   C33027006   3.178   6.617   4.096 -0.4181 -0.8253  0.7368
   79MOL   C33127007   3.104   6.494   4.115 -1.0128 -0.0452 -0.8176
   79MOL   C33227008   3.142   6.379   4.048 -0.5453  0.1054 -0.0831
   79MOL   O33327009   3.459   6.244   3.894  0.2081 -0.6020  0.1135
   79MOL   H33427010   3.155   6.129   3.953 -0.2133  1.5313  0.6856
   79MOL   H33527011   3.298   6.052   3.877 -1.1701 -0.8758 -0.0435
   79MOL   H33627012   3.287   6.261   3.786  1.1231  1.0946 -1.0559
   79MOL   H33727013   3.422   6.516   3.889  2.3323 -0.5577  2.2465
   79MOL   H33827014   3.345   6.710   4.000  0.5311 -1.1623  0.4868
   79MOL   H33927015   3.151   6.717   4.128  0.1060 -0.1639 -0.8492
   79MOL   H34027016   3.014   6.488   4.175 -0.9841 -3.1359 -1.0136
   79MOL   H34127017   3.091   6.287   4.072 -1.9192  1.0833  0.8083
   79MOL   H34227018   3.477   6.210   3.980 -0.2617 -0.3530  0.3156
   80MOL     C127019   6.787   7.787   4.659  0.8198  0.5679 -0.0320
   80MOL     C227020   6.766   7.751   4.808  0.0543 -0.3795  0.7030
   80MOL     C327021   6.894   7.710   4.884 -0.6070  0.5606 -0.4141
   80MOL     C427022   6.940   7.786   4.993  0.3394  0.3817  0.0821
   80MOL     C527023   7.065   7.760   5.047 -1.2340 -0.3924 -0.4923
   80MOL     C627024   7.147   7.659   4.992 -0.5033 -0.2093 -0.4833
   80MOL     C727025   7.105   7.584   4.882  0.0612 -0.5843 -0.0550
   80MOL     C827026   6.979   7.611   4.832 -0.0377  0.0797  0.6585
   80MOL     O927027   6.671   7.646   4.804 -0.3883 -0.0078 -0.1819
   80MOL    H1027028   6.862   7.865   4.650 -0.0932  1.7073  1.9132
   80MOL    H1127029   6.832   7.704   4.605 -2.3724 -0.7996 -0.7273
   80MOL    H1227030   6.707   7.836   4.842 -0.0511  1.2075 -3.1130
   80MOL    H1327031   6.879   7.864   5.036  2.0444  0.6862  2.0891
   80MOL    H1427032   7.103   7.811   5.135  1.4008  0.2562 -1.9529
   80MOL    H1527033   7.244   7.641   5.035 -0.9393 -1.0281  0.1818
   80MOL    H1627034   7.175   7.513   4.841  1.8285  0.5915  0.8448
   80MOL    H1727035   6.946   7.550   4.749  1.1419  0.8608 -0.4013
   80MOL    H1827036   6.711   7.823   4.589  0.5721 -0.0283 -0.0803
   80MOL    C1927037   6.620   7.588   4.922  1.1092  0.3273  0.1305
   80MOL    C2027038   6.555   7.450   4.900 -0.1712  0.0274 -0.1917
   80MOL    C2127039   6.636   7.384   4.789 -0.1966  0.5251  0.8447
   80MOL    C2227040   6.585   7.373   4.659 -0.0692  0.5174 -0.0705
   80MOL    C2327041   6.674   7.321   4.559  0.0077 -0.4500  0.5884
   80MOL    C2427042   6.798   7.257   4.596 -0.0870 -0.6970  0.5640
   80MOL    C2527043   6.843   7.270   4.728 -0.6922 -0.3238  0.5780
   80MOL    C2627044   6.762   7.334   4.824 -0.2536  0.0564  0.3015
   80MOL    O2727045   6.421   7.470   4.866  0.0633  0.1666 -0.3217
   80MOL    H2827046   6.704   7.564   4.987  0.9569  1.5270  0.7791
   80MOL    H2927047   6.553   7.644   4.988 -1.4661 -3.1445  0.6556
   80MOL    H3027048   6.569   7.389   4.990 -1.8359 -2.6455 -1.6611
   80MOL    H3127049   6.484   7.405   4.638  0.1363 -0.7428 -3.2915
   80MOL    H3227050   6.643   7.318   4.455  0.9818  0.9969  0.2311
   80MOL    H3327051   6.856   7.214   4.516  1.5960  1.5680  0.5335
   80MOL    H3427052   6.946   7.249   4.752 -0.4250  1.1092  0.7425
   80MOL    H3527053   6.797   7.347   4.925  0.3428  0.6552  0.0213
   80MOL    C3627054   6.337   7.354   4.867 -0.3271  0.5381 -0.5275
   80MOL    C3727055   6.268   7.337   5.002 -0.4815 -0.2087  1.3189
   80MOL    C3827056   6.187   7.467   5.023 -0.2184 -0.3037  0.4023
   80MOL    C3927057   6.061   7.466   4.952  1.1087 -0.2485 -0.0561
   80MOL    C4027058   5.977   7.583   4.957  0.0139  1.2446 -0.7116
   80MOL    C4127059   6.022   7.695   5.027  0.2950 -0.1828 -0.0666
   80MOL    C4227060   6.140   7.692   5.111  0.4100  0.1089 -0.2928
   80MOL    C4327061   6.227   7.580   5.095 -0.9398 -0.0896  0.3062
   80MOL    O4427062   6.368   7.316   5.102  0.0041 -0.0430  0.2068
   80MOL    H4527063   6.271   7.375   4.783  1.0959  0.5558 -1.6602
   80MOL    H4627064   6.376   7.256   4.839 -0.6211 -0.0492  1.0803
   80MOL    H4727065   6.198   7.253   4.998  1.4932 -1.8824  1.4813
   80MOL    H4827066   6.023   7.384   4.892  0.4787  1.2583 -1.7925
   80MOL    H4927067   5.882   7.578   4.907 -0.7772 -0.9791  0.9019
   80MOL    H5027068   5.960   7.783   5.019  1.8603  1.1195  1.6186
   80MOL    H5127069   6.175   7.771   5.175 -0.2128 -0.2683  0.5268
   80MOL    H5227070   6.323   7.579   5.145  0.1695 -0.1970 -1.7678
   80MOL    C5327071   6.315   7.269   5.229  0.2337 -0.0005  0.0501
   80MOL    C5427072   6.415   7.295   5.342 -0.2238  0.6002 -0.1997
   80MOL    C5527073   6.538   7.207   5.305  0.3837 -0.9870  0.5223
   80MOL    C5627074   6.646   7.263   5.232 -0.2841  0.2707 -0.5415
   80MOL    C5727075   6.755   7.182   5.196 -0.3752  0.1836  0.1577
   80MOL    C5827076   6.762   7.045   5.239  0.2716 -0.0736  0.5163
   80MOL    C5927077   6.657   6.987   5.310 -0.3264  0.4030  0.3156
   80MOL    C6027078   6.550   7.067   5.344  0.4195  0.1209  0.2293
   80MOL    O6127079   6.446   7.427   5.377  0.5905  0.3906  0.0272
   80MOL    H6227080   6.227   7.326   5.257  0.2720  0.0045  0.1587
   80MOL    H6327081   6.289   7.164   5.215  1.1117 -0.2224  0.0605
   80MOL    H6427082   6.365   7.262   5.432  1.0987 -0.2960  0.2255
   80MOL    H6527083   6.642   7.363   5.191  1.2701 -0.5783 -2.8534
   80MOL    H6627084   6.842   7.220   5.143 -0.2077  2.2424  1.8572
   80MOL    H6727085   6.848   6.984   5.214 -0.5654 -1.2572  0.4588
   80MOL    H6827086   6.653   6.880   5.325  1.8833 -0.0047 -1.6764
   80MOL    H6927087   6.468   7.024   5.400 -1.4278  2.6374 -0.4382
   80MOL    C7027088   6.526   7.447   5.492 -0.4361 -0.0442 -0.3954
   80MOL    C7127089   6.516   7.595   5.537 -0.0125  0.5587  0.1648
   80MOL    C7227090   6.562   7.686   5.426 -0.0147  0.2725 -0.4576
   80MOL    C7327091   6.482   7.732   5.326 -0.2689  0.7520  0.5490
   80MOL    C7427092   6.528   7.811   5.226 -0.1960  0.5147 -0.1245
   80MOL    C7527093   6.664   7.844   5.213 -0.0812 -0.0261 -0.2805
   80MOL    C7627094   6.749   7.802   5.318  1.0005  0.6821  0.3422
   80MOL    C7727095   6.698   7.733   5.428  0.1071  0.1476 -0.0815
   80MOL    O7827096   6.598   7.604   5.654  0.1747 -0.3956 -0.9193
   80MOL    H7927097   6.488   7.384   5.572  1.1155 -1.0088 -0.4053
   80MOL    H8027098   6.630   7.420   5.472 -0.4906 -1.0267  0.5757
   80MOL    H8127099   6.410   7.618   5.545  0.0491  1.6403 -1.8217
   80MOL    H8227100   6.378   7.702   5.319  0.6997 -2.8057  0.4473
   80MOL    H8327101   6.460   7.844   5.149 -0.5142 -1.6788 -0.8120
   80MOL    H8427102   6.709   7.904   5.136  1.8391 -2.6564 -1.3020
   80MOL    H8527103   6.846   7.849   5.320  1.1529  0.4994 -1.4949
   80MOL    H8627104   6.773   7.700   5.499 -0.3153  1.6921  1.1141
   80MOL    C8727105   6.526   7.599   5.775  0.2102  0.2786  0.4239
   80MOL    C8827106   6.455   7.724   5.814 -0.2180  1.1234 -0.0911
   80MOL    C8927107   6.560   7.838   5.836 -0.2362  0.1841 -0.3255
   80MOL    C9027108   6.594   7.886   5.961  0.2065 -0.1321  1.0831
   80MOL    C9127109   6.697   7.978   5.985 -0.0685  0.6991 -0.4286
   80MOL    C9227110   6.772   8.032   5.875  0.6834  0.0418  0.3711
   80MOL    C9327111   6.722   7.995   5.744  0.0757  0.4203 -0.1519
   80MOL    C9427112   6.618   7.904   5.729  0.1559  0.1697 -0.4960
   80MOL    O9527113   6.376   7.698   5.924 -0.5765 -0.1195 -0.4045
   80MOL    H9627114   6.592   7.555   5.849 -1.0944 -2.4989 -0.0127
   80MOL    H9727115   6.451   7.521   5.762  0.0009  0.3103  1.4313
   80MOL    H9827116   6.389   7.755   5.733  0.0442  3.8020  0.6986
   80MOL    H9927117   6.540   7.835   6.040  0.7513 -0.3492  1.3210
   80MOL   H10027118   6.714   8.008   6.087 -1.0611  0.9531 -0.3272
   80MOL   H10127119   6.852   0.022   5.895  1.1678 -0.6468  0.8859
   80MOL   H10227120   6.773   8.032   5.656  0.3976 -0.5078 -0.3607
   80MOL   H10327121   6.575   7.868   5.637  0.3111  0.6670 -0.7610
   80MOL   C10427122   6.260   7.781   5.936  1.3346 -0.1153 -0.4906
   80MOL   C10527123   6.133   7.708   5.880 -0.7620  0.3992  0.1380
   80MOL   C10627124   6.140   7.683   5.728 -0.7595 -0.4460  0.2916
   80MOL   C10727125   6.134   7.790   5.635  0.0145 -0.2793  0.3108
   80MOL   C10827126   6.125   7.760   5.494  0.0731 -0.3092 -0.3377
   80MOL   C10927127   6.128   7.629   5.447  0.0269 -0.0587 -0.5524
   80MOL   C11027128   6.139   7.524   5.537 -0.0428  0.1096 -0.0477
   80MOL   C11127129   6.146   7.554   5.674  0.4345  0.1621 -0.4483
   80MOL   O11227130   6.107   7.580   5.951 -0.3409  0.7135 -0.1128
   80MOL   H11327131   6.245   7.808   6.040  0.8807 -0.8565 -0.3588
   80MOL   H11427132   6.281   7.878   5.892 -1.8930 -0.0548 -2.0113
   80MOL   H11527133   6.059   7.787   5.894  0.4821  1.3822  1.4562
   80MOL   H11627134   6.127   7.894   5.661 -0.0365 -0.6102  1.6663
   80MOL   H11727135   6.114   7.846   5.430 -2.2540 -0.3653 -0.0836
   80MOL   H11827136   6.135   7.605   5.342  0.1354  1.7246 -0.9778
   80MOL   H11927137   6.149   7.426   5.491 -1.9466  1.0115 -2.4375
   80MOL   H12027138   6.162   7.472   5.743  3.2722 -0.4087 -1.7500
   80MOL   C12127139   6.110   7.574   6.094 -0.0718  0.5318  0.2497
   80MOL   C12227140   5.986   7.644   6.147  0.4920  0.8534  0.5909
   80MOL   C12327141   5.957   7.616   6.288  0.2646 -0.2958  0.6702
   80MOL   C12427142   5.850   7.540   6.326  0.3310 -0.6464  0.2325
   80MOL   C12527143   5.826   7.501   6.462  1.0894  0.3194  0.7684
   80MOL   C12627144   5.922   7.528   6.553 -0.5323  0.0896 -0.5038
   80MOL   C12727145   6.038   7.601   6.520  0.1249 -1.0348 -0.1398
   80MOL   C12827146   6.057   7.638   6.387  0.2399 -0.3355  0.3895
   80MOL   O12927147   6.027   7.780   6.141  0.0602  0.2903  0.6352
   80MOL   H13027148   6.207   7.601   6.135  1.9591 -1.8409 -2.7506
   80MOL   H13127149   6.101   7.465   6.101 -0.6673  0.3768 -2.3072
   80MOL   H13227150   5.896   7.629   6.087  1.2877  1.8508 -0.8774
   80MOL   H13327151   5.776   7.510   6.253 -1.4214 -0.2323  1.7797
   80MOL   H13427152   5.730   7.463   6.493  0.2992  1.6787  0.0040
   80MOL   H13527153   5.911   7.501   6.657 -0.9135 -0.6960 -0.7435
   80MOL   H13627154   6.113   7.623   6.595 -0.3828 -0.3345  0.1626
   80MOL   H13727155   6.141   7.699   6.357 -1.1919  1.8444  0.7049
   80MOL   C13827156   5.917   7.865   6.104 -0.8312 -0.7685 -0.3984
   80MOL   C13927157   5.964   8.016   6.090  0.3800 -0.3262  0.2947
   80MOL   C14027158   6.023   8.071   6.216 -0.1732  0.0591 -0.1180
   80MOL   C14127159   6.146   8.021   6.264  0.0724 -0.0312  0.7377
   80MOL   C14227160   6.205   0.001   6.373 -0.2067 -0.0288 -0.6731
   80MOL   C14327161   6.143   0.106   6.447  0.3891 -0.6225 -0.3393
   80MOL   C14427162   6.017   0.145   6.408 -0.0549 -0.1005 -0.1697
   80MOL   C14527163   5.961   0.096   6.286 -0.6505  0.6358 -0.1093
   80MOL   O14627164   6.057   8.041   5.990 -0.7145 -0.4788 -0.6049
   80MOL   H14727165   5.841   7.852   6.182  1.2091 -2.0549  1.4274
   80MOL   H14827166   5.861   7.846   6.013 -1.6415  0.5870 -0.2092
   80MOL   H14927167   5.874   8.069   6.060  0.6571  0.1834  0.3574
   80MOL   H15027168   6.204   7.940   6.222 -0.5120 -0.2178  0.2893
   80MOL   H15127169   6.298   8.041   6.412 -0.2091 -0.1227 -0.7620
   80MOL   H15227170   6.187   0.158   6.531  1.2714 -1.1586 -0.4558
   80MOL   H15327171   5.958   0.221   6.457 -0.8783 -0.5978 -0.3647
   80MOL   H15427172   5.861   0.121   6.256 -1.1984 -1.0699  0.2214
   80MOL   C15527173   6.034   0.083   5.915 -0.3171  0.1960 -0.3994
   80MOL   C15627174   6.160   0.134   5.843 -0.4549 -0.3567  0.4380
   80MOL   C15727175   6.269   0.181   5.943 -0.1197 -0.2201  0.1514
   80MOL   C15827176   6.321   0.312   5.929  0.3529  0.0426  1.2711
   80MOL   C15927177   6.425   0.357   6.008 -0.5247  0.1437  0.9642
   80MOL   C16027178   6.491   0.268   6.100  0.0340 -0.1863 -0.6050
   80MOL   C16127179   6.449   0.135   6.115  0.1319 -0.3511  0.1591
   80MOL   C16227180   6.340   0.093   6.034  0.1010  0.2663 -0.2846
   80MOL   O16327181   6.197   0.034   5.754 -0.0407  0.2539  0.0638
   80MOL   H16427182   5.994   0.166   5.973  2.3127  0.9095  0.4799
   80MOL   H16527183   5.954   0.049   5.850  0.7331  0.1773 -1.6944
   80MOL   H16627184   6.133   0.223   5.785  1.4390 -0.6637 -0.9575
   80MOL   H16727185   6.279   0.376   5.852  2.0461 -1.3203 -0.8278
   80MOL   H16827186   6.441   0.463   5.998  0.5794 -0.0617  0.5245
   80MOL   H16927187   6.561   0.310   6.171 -1.4704  1.4721 -0.0779
   80MOL   H17027188   6.503   0.071   6.184  3.6699  0.9392 -1.3440
   80MOL   H17127189   6.315   8.069   6.049 -1.6721  0.5782 -0.9990
   80MOL   C17227190   6.315   0.040   5.678  0.1121 -0.4210 -0.0095
   80MOL   C17327191   6.313   0.127   5.557 -0.1412 -0.6159 -0.4546
   80MOL   C17427192   6.221   0.071   5.458  0.6007 -1.0652 -0.2797
   80MOL   C17527193   6.270   8.061   5.358  0.2278 -0.1044 -1.0514
   80MOL   C17627194   6.184   8.036   5.252 -0.7784 -0.2312  0.1897
   80MOL   C17727195   6.054   8.079   5.246  0.8012  0.6853  0.4229
   80MOL   C17827196   6.002   0.082   5.344 -0.1147  0.4753 -1.0142
   80MOL   C17927197   6.083   0.114   5.454  0.4954 -0.1041  0.5061
   80MOL   O18027198   6.455   0.137   5.519  0.5594 -0.4522 -0.1805
   80MOL   H18127199   6.396   0.076   5.743  0.5130 -0.4517 -0.4882
   80MOL   H18227200   6.344   8.019   5.647 -1.2880 -1.1774  1.0953
   80MOL   H18327201   6.280   0.225   5.593  1.4405  0.6210 -2.2798
   80MOL   H18427202   6.370   8.022   5.356  1.2241  2.1904  0.9210
   80MOL   H18527203   6.220   7.977   5.169  0.9500 -0.9068  1.3735
   80MOL   H18627204   5.988   8.040   5.169  0.7919  1.6979 -0.1030
   80MOL   H18727205   5.897   0.103   5.338 -0.5659 -0.8125  1.4959
   80MOL   H18827206   6.045   0.189   5.522  1.4797  1.5903 -0.7623
   80MOL   C18927207   6.488   0.231   5.422 -0.1720 -0.1258  0.3279
   80MOL   C19027208   6.557   0.355   5.482  0.9087  0.5017  0.1201
   80MOL   C19127209   6.670   0.310   5.580 -0.3912  0.2929  0.0472
   80MOL   C19227210   6.805   0.315   5.533 -0.1152  1.0587 -0.6812
   80MOL   C19327211   6.917   0.290   5.623 -0.0152  0.0801 -0.5476
   80MOL   C19427212   6.889   0.270   5.763  0.0669 -0.2440  0.6965
   80MOL   C19527213   6.757   0.255   5.800 -0.2507  0.8308 -0.1362
   80MOL   C19627214   6.649   0.284   5.716  0.7097 -0.1012  0.6994
   80MOL   O19727215   6.455   0.427   5.548  0.2935  0.3119  0.0390
   80MOL   H19827216   6.539   0.178   5.341 -0.6729  1.7618 -1.2681
   80MOL   H19927217   6.404   0.267   5.363 -0.0672 -1.9525 -0.9919
   80MOL   H20027218   6.609   0.408   5.402  0.5807 -1.2673 -1.3152
   80MOL   H20127219   6.821   0.344   5.430  2.5967 -1.7423 -1.1353
   80MOL   H20227220   7.018   0.296   5.584 -0.2640 -0.4748 -1.2928
   80MOL   H20327221   6.968   0.269   5.837  1.7971  1.3961 -1.0843
   80MOL   H20427222   6.733   0.238   5.903  0.1925 -2.4270 -0.5281
   80MOL   H20527223   6.546   0.279   5.748  0.0435  1.7915 -1.0396
   80MOL   C20627224   6.494   0.562   5.591  0.4562 -0.3850  0.3867
   80MOL   C20727225   6.464   0.680   5.500  0.0584  0.2929  0.3978
   80MOL   C20827226   6.524   0.655   5.362  0.4195  0.5903 -0.5742
   80MOL   C20927227   6.444   0.612   5.256 -0.1915  0.1982  1.0614
   80MOL   C21027228   6.506   0.607   5.127 -0.1063  0.4054 -0.1354
   80MOL   C21127229   6.638   0.623   5.112 -0.4088 -0.6027  0.8825
   80MOL   C21227230   6.722   0.666   5.217  0.3479  0.0685 -0.3635
   80MOL   C21327231   6.663   0.687   5.346  0.0095  0.2707  0.4329
   80MOL   O21427232   6.512   0.797   5.567  0.2022  0.5167 -0.1554
   80MOL   H21527233   6.447   0.568   5.689 -0.8550  0.9594 -0.3043
   80MOL   H21627234   6.601   0.554   5.606  0.4995  0.5077  0.5898
   80MOL   H21727235   6.356   0.693   5.488 -0.0567  2.0025  2.9017
   80MOL   H21827236   6.338   0.594   5.267 -0.5639  0.6986 -1.3786
   80MOL   H21927237   6.449   0.579   5.040  0.0552  1.2175 -0.5059
   80MOL   H22027238   6.684   0.592   5.019  0.3793  3.6638 -0.2656
   80MOL   H22127239   6.827   0.681   5.199  0.7668 -0.3952  1.6137
   80MOL   H22227240   6.715   0.728   5.432  0.9368 -0.7248  0.3742
   80MOL   C22327241   6.462   0.921   5.515 -0.4566  0.2518  0.2534
   80MOL   C22427242   6.524   1.034   5.601  0.0157  0.2200  0.0503
   80MOL   C22527243   6.677   1.028   5.626  0.8473  0.6237 -0.2856
   80MOL   C22627244   6.731   1.045   5.755  0.3849  0.5984 -0.3041
   80MOL   C22727245   6.871   1.032   5.783 -0.7835 -0.0141 -0.1654
   80MOL   C22827246   6.955   1.012   5.670  0.0996 -1.0864  0.1530
   80MOL   C22927247   6.905   0.990   5.539  0.6836  0.7524 -0.1892
   80MOL   C23027248   6.762   0.994   5.516  0.2206  0.5071  0.2899
   80MOL   O23127249   6.482   1.156   5.536  0.2854 -0.1149  0.2832
   80MOL   H23227250   6.480   0.936   5.408 -0.0999  0.0449  0.2860
   80MOL   H23327251   6.353   0.930   5.515 -0.3189  2.0978 -0.0581
   80MOL   H23427252   6.489   1.038   5.704  0.6602 -0.0490  0.2785
   80MOL   H23527253   6.661   1.073   5.832 -0.2753 -1.5842 -0.0652
   80MOL   H23627254   6.916   1.053   5.879 -1.4643 -0.5243  0.2667
   80MOL   H23727255   7.063   1.014   5.676  0.0632 -1.1245  0.8203
   80MOL   H23827256   6.979   0.979   5.461 -2.1660 -1.9833 -2.6405
   80MOL   H23927257   6.728   0.972   5.415 -2.4305  1.5019  0.9207
   80MOL   C24027258   6.442   1.261   5.632  0.4384  0.0312 -0.1549
   80MOL   C24127259   6.391   1.379   5.543 -0.3109 -0.2722 -0.4831
   80MOL   C24227260   6.278   1.327   5.459  0.5573 -0.0735 -0.4964
   80MOL   C24327261   6.149   1.300   5.510  0.5466 -0.3379  0.0844
   80MOL   C24427262   6.042   1.263   5.427  0.1901  0.6279  0.4094
   80MOL   C24527263   6.063   1.232   5.290  0.5887  0.4643  0.0863
   80MOL   C24627264   6.193   1.254   5.238 -0.3393  0.1458 -0.2319
   80MOL   C24727265   6.302   1.304   5.322  0.3251  0.3931 -0.5198
   80MOL   O24827266   6.350   1.484   5.628  0.1736 -0.4314  0.2162
   80MOL   H24927267   6.365   1.210   5.691  0.0321  0.5114 -0.2721
   80MOL   H25027268   6.524   1.293   5.697 -1.1376 -0.8523  2.3348
   80MOL   H25127269   6.466   1.420   5.475  0.3447 -1.5813 -0.5650
   80MOL   H25227270   6.136   1.319   5.616  2.3418 -0.8319  0.4057
   80MOL   H25327271   5.945   1.257   5.473  0.0666 -1.8014 -0.0846
   80MOL   H25427272   5.995   1.215   5.207  0.4316  0.3347  0.2411
   80MOL   H25527273   6.195   1.248   5.130 -1.2052  1.1061 -0.3075
   80MOL   H25627274   6.397   1.327   5.274  0.1935  1.4825 -0.2704
   80MOL   C25727275   6.323   1.603   5.546 -0.0319 -0.2601 -0.0459
   80MOL   C25827276   6.315   1.721   5.641  0.5903  0.0390  0.0487
   80MOL   C25927277   6.178   1.724   5.714  0.5306  0.7536  0.2848
   80MOL   C26027278   6.061   1.769   5.641 -0.1989  0.0020 -0.5084
   80MOL   C26127279   5.940   1.774   5.710 -0.5419  0.1678  0.1297
   80MOL   C26227280   5.926   1.733   5.842 -0.2632  0.2048 -0.4328
   80MOL   C26327281   6.041   1.683   5.904 -0.8781  0.6624  0.2405
   80MOL   C26427282   6.164   1.672   5.836 -0.3783 -0.6270  1.2378
   80MOL   O26527283   6.331   1.842   5.557  0.8828  0.4230  0.4577
   80MOL   H26627284   6.230   1.583   5.493 -1.0336  0.1623  1.5195
   80MOL   H26727285   6.400   1.624   5.471  0.6402 -1.4386  0.2934
   80MOL   H26827286   6.398   1.712   5.712  0.5637  2.7381  0.4601
   80MOL   H26927287   6.061   1.796   5.536 -0.1770 -1.9896 -1.0374
   80MOL   H27027288   5.851   1.814   5.664 -0.7967  1.8729  2.0056
   80MOL   H27127289   5.835   1.731   5.899  0.2443 -1.1314  0.3690
   80MOL   H27227290   6.039   1.653   6.008 -0.9941  2.3651  0.7357
   80MOL   H27327291   6.246   1.629   5.892 -0.1604 -0.6803  0.8769
   80MOL   C27427292   6.348   1.960   5.636  0.5730 -0.9340  0.4531
   80MOL   C27527293   6.329   2.081   5.546  0.2248 -0.2447 -0.0178
   80MOL   C27627294   6.341   2.213   5.614  1.0783 -0.3830  0.1167
   80MOL   C27727295   6.431   2.308   5.569  0.4329  0.8600  0.2196
   80MOL   C27827296   6.428   2.438   5.620 -0.0891 -0.1467 -0.0247
   80MOL   C27927297   6.348   2.471   5.729  0.4738  0.3363 -0.0349
   80MOL   C28027298   6.269   2.370   5.788 -0.2326  0.1452  0.2221
   80MOL   C28127299   6.261   2.243   5.725  0.0770 -0.1921 -0.5528
   80MOL   O28227300   6.200   2.065   5.482  1.1474 -0.2061  0.0854
   80MOL   H28327301   6.274   1.968   5.716 -0.6679  0.2752 -0.7934
   80MOL   H28427302   6.447   1.969   5.681 -0.3840  0.7970  2.3117
   80MOL   H28527303   6.408   2.071   5.470 -1.1684  1.3584 -1.7299
   80MOL   H28627304   6.495   2.292   5.484 -0.9329 -2.3170 -0.3048
   80MOL   H28727305   6.491   2.516   5.580  0.3677 -1.4369 -1.8885
   80MOL   H28827306   6.347   2.569   5.774  1.3163  0.5762 -0.5358
   80MOL   H28927307   6.211   2.397   5.874  0.0414  4.1922 -0.7516
   80MOL   H29027308   6.199   2.164   5.763  1.4095 -1.1556 -0.3388
   80MOL   C29127309   6.179   2.162   5.379 -0.3840 -0.1394 -0.4023
   80MOL   C29227310   6.038   2.151   5.310  0.1378  0.4985 -0.2240
   80MOL   C29327311   6.035   2.209   5.175  0.3255  0.7000 -0.1149
   80MOL   C29427312   5.954   2.321   5.145  0.1849 -0.5228  1.3422
   80MOL   C29527313   5.947   2.374   5.016 -0.3658 -0.4178  0.6193
   80MOL   C29627314   6.016   2.317   4.910  0.6069  0.0628 -0.6851
   80MOL   C29727315   6.099   2.209   4.942 -0.3182  0.0512  0.2695
   80MOL   C29827316   6.110   2.155   5.071  0.5549 -0.7679  0.6934
   80MOL   O29927317   6.005   2.011   5.294 -0.6212 -0.0337  0.1436
   80MOL   H30027318   6.262   2.142   5.312 -2.8553  0.6885 -3.8732
   80MOL   H30127319   6.169   2.261   5.423  0.2929 -0.7185  1.0814
   80MOL   H30227320   5.965   2.190   5.380  2.6245  0.0576  2.7153
   80MOL   H30327321   5.909   2.371   5.230 -1.3322  2.1459 -0.9387
   80MOL   H30427322   5.878   2.456   4.999 -0.3579 -0.2703  1.2777
   80MOL   H30527323   6.004   2.348   4.808 -0.8882  1.7243 -0.0184
   80MOL   H30627324   6.158   2.164   4.863 -1.3481  0.7125 -0.9048
   80MOL   H30727325   6.161   2.061   5.089 -0.4263 -1.4393  0.0011
   80MOL   C30827326   5.866   1.997   5.309  0.0521  0.3042 -0.0801
   80MOL   C30927327   5.812   1.866   5.250 -0.5565 -0.3524  0.6297
   80MOL   C31027328   5.664   1.843   5.282 -0.9245 -0.8699  0.3183
   80MOL   C31127329   5.632   1.785   5.404 -0.4528  0.4006 -0.6845
   80MOL   C31227330   5.498   1.757   5.435  0.5078 -0.3965  0.3613
   80MOL   C31327331   5.403   1.786   5.338 -0.1768 -0.8652  0.2670
   80MOL   C31427332   5.429   1.851   5.216 -0.0527 -0.1188 -0.1782
   80MOL   C31527333   5.563   1.885   5.193 -0.1660 -0.2660  0.0369
   80MOL   O31627334   5.836   1.897   5.118  0.0696  0.5159 -0.3161
   80MOL   H31727335   5.801   2.076   5.272 -0.4168 -0.9702 -2.0140
   80MOL   H31827336   5.856   2.001   5.418  0.0542 -2.5757  0.0437
   80MOL   H31927337   5.873   1.786   5.291  1.1038  0.1522 -0.7952
   80MOL   H32027338   5.715   1.760   5.468  0.0781  0.2314 -1.4281
   80MOL   H32127339   5.454   1.720   5.526 -1.6028  0.0176 -0.4526
   80MOL   H32227340   5.298   1.762   5.348 -0.1665 -1.0328 -0.0257
   80MOL   H32327341   5.353   1.865   5.140 -0.5307  0.5763  0.4189
   80MOL   H32427342   5.587   1.918   5.093 -0.5913  1.4097  0.4755
   80MOL   C32527343   5.867   1.783   5.044  0.3403 -0.1207  0.7959
   80MOL   C32627344   5.873   1.813   4.899 -0.1418  0.0020  0.1883
   80MOL   C32727345   5.752   1.893   4.852 -0.0475  0.3252 -0.3435
   80MOL   C32827346   5.761   2.028   4.814  0.2576  0.2215 -0.3712
   80MOL   C32927347   5.648   2.112   4.793 -0.2455  0.8727 -0.2741
   80MOL   C33027348   5.530   2.045   4.772  0.4484  0.0913  0.0116
   80MOL   C33127349   5.516   1.907   4.797 -0.4070  0.1749 -0.1585
   80MOL   C33227350   5.624   1.825   4.841  0.2837  0.0256  0.0772
   80MOL   O33327351   5.995   1.882   4.876 -0.2714  0.2952 -0.2643
   80MOL   H33427352   5.781   1.718   5.060  0.1366  0.8578  4.0523
   80MOL   H33527353   5.955   1.726   5.075 -0.1710 -0.6177  1.3508
   80MOL   H33627354   5.866   1.723   4.837  0.3595 -1.2693  1.9305
   80MOL   H33727355   5.855   2.079   4.827  0.3548 -0.0460  0.0006
   80MOL   H33827356   5.654   2.218   4.774 -1.0532  0.7226 -1.3913
   80MOL   H33927357   5.441   2.097   4.739 -1.8184 -3.5586  0.0877
   80MOL   H34027358   5.414   1.870   4.791 -0.3268  0.1754 -1.4833
   80MOL   H34127359   5.606   1.724   4.876 -0.5344  0.6880  1.5757
   80MOL   H34227360   6.023   1.906   4.963  0.4660 -0.5476 -0.2650
   81MOL     C127361   4.583   7.842   6.952  0.1586  0.1113 -0.6100
   81MOL     C227362   4.447   7.793   6.994 -0.4397  0.6188  0.2072
   81MOL     C327363   4.447   7.652   7.048 -0.2371  0.0886  0.0580
   81MOL     C427364   4.524   7.553   6.993 -0.3870 -0.5514 -0.6445
   81MOL     C527365   4.512   7.418   7.032 -0.2700 -0.0007 -0.4720
   81MOL     C627366   4.405   7.384   7.117 -0.8933 -0.1373 -0.2805
   81MOL     C727367   4.326   7.486   7.172 -0.1554 -1.3213  0.3285
   81MOL     C827368   4.350   7.619   7.139  0.2894 -0.2520 -0.3456
   81MOL     O927369   4.368   7.803   6.874  0.3213  0.1144 -0.4336
   81MOL    H1027370   4.592   7.939   6.903  0.0263  0.5528  0.2292
   81MOL    H1127371   4.655   7.842   7.034  0.4144  1.3827 -0.8215
   81MOL    H1227372   4.413   7.872   7.062 -0.8171 -0.2975  1.1089
   81MOL    H1327373   4.600   7.579   6.921 -0.6085 -0.4830 -0.8527
   81MOL    H1427374   4.574   7.339   6.993  1.4755  2.3902 -2.7671
   81MOL    H1527375   4.385   7.285   7.154  0.0888 -0.4180 -0.5079
   81MOL    H1627376   4.254   7.465   7.249  0.9175 -1.6878  1.2528
   81MOL    H1727377   4.290   7.695   7.186  1.5131 -0.1371  1.1037
   81MOL    H1827378   4.632   7.772   6.884  0.7524 -2.7079  2.5490
   81MOL    C1927379   4.228   7.790   6.884  0.1738  0.2833 -0.1587
   81MOL    C2027380   4.145   7.903   6.959 -0.1175 -0.1170 -0.6005
   81MOL    C2127381   4.189   8.042   6.936 -0.5933 -0.8143 -0.1570
   81MOL    C2227382   4.194   0.057   7.045  0.1050  0.2812 -0.1975
   81MOL    C2327383   4.231   0.194   7.024  0.4311 -0.8112 -0.4247
   81MOL    C2427384   4.262   0.235   6.891 -0.0786 -0.3317 -0.0741
   81MOL    C2527385   4.258   0.142   6.782  0.6543  0.1193 -0.2388
   81MOL    C2627386   4.219   0.008   6.803 -0.1828  0.1680 -0.5135
   81MOL    O2727387   4.137   7.869   7.097  0.4112 -0.6348  0.1842
   81MOL    H2827388   4.199   7.793   6.779  3.0455  0.8966 -0.9696
   81MOL    H2927389   4.197   7.694   6.925 -0.3655  0.1684 -0.8303
   81MOL    H3027390   4.046   7.887   6.915  0.2367 -1.4109 -0.9399
   81MOL    H3127391   4.167   0.028   7.146 -1.5983 -4.5394 -1.8616
   81MOL    H3227392   4.238   0.261   7.108  0.7810 -0.7994 -0.4612
   81MOL    H3327393   4.299   0.334   6.870 -0.7148 -0.2904 -1.0585
   81MOL    H3427394   4.295   0.171   6.685  0.9983  3.1159  0.7381
   81MOL    H3527395   4.203   8.018   6.722 -3.4545  0.6552 -0.3671
   81MOL    C3627396   4.014   7.809   7.133 -0.0847 -0.1344  0.0033
   81MOL    C3727397   3.991   7.809   7.283 -0.2921 -0.1412 -0.2476
   81MOL    C3827398   3.996   7.946   7.350 -0.7114 -0.0352  0.4227
   81MOL    C3927399   4.123   8.002   7.394  0.6647 -0.4156  1.0585
   81MOL    C4027400   4.129   0.054   7.450 -0.6430 -0.4815 -0.3511
   81MOL    C4127401   4.009   0.134   7.456  0.2560  0.2121 -0.0574
   81MOL    C4227402   3.881   0.071   7.406 -0.1018  0.3731  0.6548
   81MOL    C4327403   3.883   8.021   7.354 -0.4067 -0.1688 -0.8422
   81MOL    O4427404   4.086   7.718   7.343  0.2201 -0.1304  0.4781
   81MOL    H4527405   3.932   7.870   7.095 -0.3651 -1.2584 -1.2400
   81MOL    H4627406   3.998   7.709   7.091 -0.4034  0.0590 -0.3365
   81MOL    H4727407   3.890   7.769   7.290 -0.4964  0.8439  3.2920
   81MOL    H4827408   4.212   7.944   7.377  1.0663  0.0371  1.6035
   81MOL    H4927409   4.224   0.102   7.470 -1.2809  0.3202  0.8120
   81MOL    H5027410   4.006   0.234   7.496  0.3790 -0.0977  0.7346
   81MOL    H5127411   3.794   0.135   7.412  1.1258  1.9759  1.8709
   81MOL    H5227412   3.787   7.978   7.328 -0.8449 -0.7574  1.6124
   81MOL    C5327413   4.073   7.705   7.486  0.2307  0.8653 -0.2849
   81MOL    C5427414   4.152   7.577   7.521  0.6685  0.0241 -0.2419
   81MOL    C5527415   4.187   7.582   7.664 -0.1367  0.6277 -0.0334
   81MOL    C5627416   4.311   7.641   7.708  0.5288 -0.6427  0.2992
   81MOL    C5727417   4.347   7.639   7.841 -0.1653  0.9142  0.0666
   81MOL    C5827418   4.251   7.612   7.937 -0.8489 -0.8168  0.2129
   81MOL    C5927419   4.121   7.568   7.901  0.0810 -0.3392 -0.1765
   81MOL    C6027420   4.093   7.547   7.764 -0.5908 -0.2612 -0.3225
   81MOL    O6127421   4.077   7.462   7.485  0.1025  0.4412 -0.1190
   81MOL    H6227422   4.129   7.787   7.531  1.8493  1.4815 -3.2336
   81MOL    H6327423   3.973   7.723   7.525 -0.4419 -0.3746 -1.3942
   81MOL    H6427424   4.253   7.571   7.479  1.1098  0.3323  0.7407
   81MOL    H6527425   4.387   7.678   7.640  1.7643  2.0625  2.9898
   81MOL    H6627426   4.443   7.684   7.863  1.1362 -0.9643 -1.6273
   81MOL    H6727427   4.289   7.623   8.037  1.9366  0.4364 -0.9320
   81MOL    H6827428   4.035   7.545   7.962  0.2253 -0.3457  0.0247
   81MOL    H6927429   3.994   7.514   7.736 -1.0774  1.8371 -1.1685
   81MOL    C7027430   4.139   7.336   7.513  0.3978 -0.1772  0.3745
   81MOL    C7127431   4.064   7.210   7.460  0.0765  0.7422  0.0596
   81MOL    C7227432   4.101   7.077   7.524 -0.8183  0.1422  0.6928
   81MOL    C7327433   4.216   7.011   7.483  0.1220  0.5836  0.7421
   81MOL    C7427434   4.236   6.878   7.522 -0.1797  0.5440 -0.2678
   81MOL    C7527435   4.158   6.817   7.619  0.2607  0.3833  0.2405
   81MOL    C7627436   4.045   6.890   7.671 -0.2479 -0.2312  0.7806
   81MOL    C7727437   4.018   7.017   7.619  1.2229 -0.2496  0.4558
   81MOL    O7827438   4.099   7.198   7.315 -0.0169  0.5679  0.1938
   81MOL    H7927439   4.248   7.337   7.499  0.1743 -0.1359 -1.4109
   81MOL    H8027440   4.129   7.332   7.622 -0.3681 -1.9293  0.2533
   81MOL    H8127441   3.955   7.221   7.463  0.0738  1.1468 -1.1252
   81MOL    H8227442   4.277   7.058   7.408 -2.4655  0.6694 -1.3662
   81MOL    H8327443   4.309   6.819   7.468  0.8962  1.4665  0.1896
   81MOL    H8427444   4.169   6.714   7.649 -0.8892  0.1231 -0.1995
   81MOL    H8527445   3.968   6.850   7.736  0.1460 -2.2651  0.0413
   81MOL    H8627446   3.933   7.075   7.652  1.3900  1.0938 -1.3596
   81MOL    C8727447   4.036   7.288   7.220  0.0781  0.0141 -0.6387
   81MOL    C8827448   4.060   7.245   7.072  0.3512  0.3769 -0.1875
   81MOL    C8927449   3.984   7.345   6.978  1.0222  0.2293  0.1414
   81MOL    C9027450   3.861   7.309   6.923  0.7913  0.1742  0.2743
   81MOL    C9127451   3.800   7.385   6.825  0.2275  0.2913  0.8391
   81MOL    C9227452   3.857   7.503   6.778  0.2398  0.4060  0.2807
   81MOL    C9327453   3.980   7.548   6.838 -0.1026  0.5116  0.4768
   81MOL    C9427454   4.043   7.471   6.941  0.0280 -0.4775  0.6367
   81MOL    O9527455   4.021   7.109   7.061 -0.0787  0.0056 -0.6303
   81MOL    H9627456   4.064   7.388   7.254 -0.8992  0.3029 -0.6525
   81MOL    H9727457   3.929   7.274   7.231  0.3898 -2.5880 -0.7424
   81MOL    H9827458   4.169   7.249   7.059  0.6337 -1.1941  1.3890
   81MOL    H9927459   3.816   7.220   6.964  0.7011  0.6796  1.2855
   81MOL   H10027460   3.706   7.351   6.785  0.1595  0.3154  0.9749
   81MOL   H10127461   3.803   7.553   6.699 -1.5472 -1.7936  0.0779
   81MOL   H10227462   4.024   7.640   6.803 -0.6793  1.3741  1.9839
   81MOL   H10327463   4.138   7.501   6.981 -0.1793 -0.2003  0.9195
   81MOL   C10427464   4.080   7.026   6.959  0.1826 -1.1320  0.2647
   81MOL   C10527465   3.988   6.903   6.943 -0.3625  0.5420  0.3219
   81MOL   C10627466   3.969   6.832   7.073  0.0198 -0.7521  0.9545
   81MOL   C10727467   3.858   6.856   7.155 -0.1066 -0.3915  0.1984
   81MOL   C10827468   3.838   6.787   7.278  1.2832 -0.4430 -0.7296
   81MOL   C10927469   3.943   6.730   7.344 -0.4502 -0.5743 -0.3809
   81MOL   C11027470   4.057   6.703   7.263 -0.0557 -0.5395  0.4363
   81MOL   C11127471   4.066   6.753   7.130  0.0735 -0.3215 -0.5934
   81MOL   O11227472   3.871   6.943   6.869  0.4951 -0.5183  0.2875
   81MOL   H11327473   4.087   7.079   6.864  0.7895 -1.0517  0.3519
   81MOL   H11427474   4.179   6.998   6.994  0.2985 -0.4047  0.5210
   81MOL   H11527475   4.049   6.830   6.889  0.6374  0.0892  2.0326
   81MOL   H11627476   3.781   6.915   7.109  0.8810  2.6542  2.2792
   81MOL   H11727477   3.746   6.803   7.331  1.9611 -1.8064  0.8946
   81MOL   H11827478   3.932   6.687   7.443 -0.4178  1.0658  0.3471
   81MOL   H11927479   4.130   6.636   7.306  0.6542  0.2351  0.4425
   81MOL   H12027480   4.158   6.729   7.080  0.8263 -0.0779  0.6618
   81MOL   C12127481   3.777   6.840   6.831  0.0936 -0.3232  1.1990
   81MOL   C12227482   3.673   6.907   6.735 -0.1471 -0.0532 -0.0181
   81MOL   C12327483   3.736   6.921   6.593  0.3807  0.1440 -0.0355
   81MOL   C12427484   3.722   6.818   6.499  0.3814 -0.6814 -0.5816
   81MOL   C12527485   3.783   6.826   6.369  0.0317  0.1131  1.2812
   81MOL   C12627486   3.853   6.947   6.334 -0.0114 -0.3887 -0.1661
   81MOL   C12727487   3.867   7.052   6.431  0.3077 -0.3400  0.7932
   81MOL   C12827488   3.810   7.037   6.559 -0.4175  0.2642  0.1880
   81MOL   O12927489   3.554   6.829   6.745  0.1081  0.4154  0.4046
   81MOL   H13027490   3.731   6.809   6.925  1.0457  1.4230  2.2849
   81MOL   H13127491   3.822   6.753   6.784  0.1092  0.2372  0.1508
   81MOL   H13227492   3.649   7.003   6.779  2.4239 -0.1445  1.7027
   81MOL   H13327493   3.665   6.729   6.519  0.0024  0.0199  1.5274
   81MOL   H13427494   3.789   6.740   6.304 -0.0544  2.7518 -2.3979
   81MOL   H13527495   3.876   6.954   6.228  3.2378 -1.2452  0.4214
   81MOL   H13627496   3.922   7.142   6.408  0.5826 -0.9212 -0.8880
   81MOL   H13727497   3.819   7.118   6.630  1.1019  2.0209 -1.9440
   81MOL   C13827498   3.442   6.904   6.701  0.9197  0.0799 -0.4352
   81MOL   C13927499   3.371   6.995   6.805  0.2038 -0.1800  0.1904
   81MOL   C14027500   3.382   6.950   6.948  0.6921 -0.1192 -0.2638
   81MOL   C14127501   3.296   6.853   7.000 -0.2389  0.6665 -0.2155
   81MOL   C14227502   3.297   6.821   7.137 -0.3134 -0.7080 -0.3324
   81MOL   C14327503   3.394   6.877   7.224  0.0016  0.8015  0.0061
   81MOL   C14427504   3.476   6.984   7.179 -0.1408 -0.4094 -0.1143
   81MOL   C14527505   3.472   7.011   7.043 -0.0935  0.0912 -0.7479
   81MOL   O14627506   3.418   7.127   6.776  0.2870 -0.1383 -1.2540
   81MOL   H14727507   3.373   6.827   6.669  0.1135  1.3318 -1.7911
   81MOL   H14827508   3.467   6.959   6.610 -0.4382 -0.5754 -1.2162
   81MOL   H14927509   3.265   6.975   6.791 -0.4676  0.6161  3.6626
   81MOL   H15027510   3.221   6.801   6.941 -0.9289 -0.0331  1.2387
   81MOL   H15127511   3.224   6.754   7.180  0.8607 -1.9148 -0.1777
   81MOL   H15227512   3.399   6.853   7.330 -0.2024 -1.7671 -0.5327
   81MOL   H15327513   3.554   7.034   7.234 -0.9899  0.3300  0.4308
   81MOL   H15427514   3.542   7.086   7.008 -1.7433  3.0981  2.1203
   81MOL   C15527515   3.324   7.235   6.768 -0.0174  0.5183 -0.1046
   81MOL   C15627516   3.280   7.269   6.916  0.1960 -1.2713  0.2790
   81MOL   C15727517   3.224   7.406   6.926 -0.6329  0.6958  0.0749
   81MOL   C15827518   3.108   7.445   6.857  0.2862 -0.2077  0.8076
   81MOL   C15927519   3.066   7.579   6.855  0.1878  0.3203 -0.4344
   81MOL   C16027520   3.140   7.672   6.938  0.1815 -0.2387  0.1546
   81MOL   C16127521   3.255   7.630   7.010 -0.0145 -0.0790 -0.3435
   81MOL   C16227522   3.299   7.499   6.999 -0.0420  0.4232 -0.3632
   81MOL   O16327523   3.179   7.178   6.942  0.6222  0.6638  0.0098
   81MOL   H16427524   3.245   7.228   6.694  1.5205  1.2312 -1.8665
   81MOL   H16527525   3.377   7.319   6.723 -0.3151  0.8289  0.1236
   81MOL   H16627526   3.370   7.259   6.978 -0.9802 -0.6021  2.1289
   81MOL   H16727527   3.040   7.375   6.811 -0.7980 -0.2683  2.4781
   81MOL   H16827528   2.979   7.613   6.802  0.2479  0.3675 -0.5024
   81MOL   H16927529   3.120   7.778   6.934 -0.7938 -0.3398  1.9395
   81MOL   H17027530   3.306   7.701   7.074 -1.1808  0.8998 -0.4749
   81MOL   H17127531   3.388   7.460   7.046 -1.8871 -2.9515  0.4338
   81MOL   C17227532   3.142   7.159   7.082  0.6253 -0.5448  0.2907
   81MOL   C17327533   3.001   7.086   7.095 -0.3593 -0.4179  0.2479
   81MOL   C17427534   2.907   7.133   6.980  0.0457 -0.3429  0.0765
   81MOL   C17527535   2.907   7.063   6.861  0.0064  0.0667 -0.7419
   81MOL   C17627536   2.817   7.096   6.752 -0.1188  0.0513  0.8298
   81MOL   C17727537   2.714   7.187   6.776 -0.0612 -0.9155 -0.0098
   81MOL   C17827538   2.724   7.267   6.890 -0.7002  0.0356 -0.0054
   81MOL   C17927539   2.819   7.240   6.996  0.3764  0.0599  0.3261
   81MOL   O18027540   2.950   7.130   7.213 -0.1865 -0.4245 -0.3520
   81MOL   H18127541   3.228   7.102   7.118  2.4305  0.8810 -1.6330
   81MOL   H18227542   3.135   7.258   7.128  2.2242 -1.5459  2.8397
   81MOL   H18327543   3.005   6.978   7.090 -0.3118 -0.3172 -3.0496
   81MOL   H18427544   2.977   6.982   6.850  1.9031  1.2230  2.3086
   81MOL   H18527545   2.838   7.051   6.656  1.9610  2.3080  0.1906
   81MOL   H18627546   2.632   7.207   6.709 -0.8419 -2.8394  0.3455
   81MOL   H18727547   2.655   7.351   6.895 -1.0367 -0.3174  1.5940
   81MOL   H18827548   2.819   7.300   7.086 -1.1205  1.5688 -0.6666
   81MOL   C18927549   3.007   7.078   7.331  0.4708 -0.4947 -0.2495
   81MOL   C19027550   3.065   7.184   7.429 -0.0488  0.3413 -0.1251
   81MOL   C19127551   2.964   7.297   7.464 -0.1653 -0.0442 -0.9138
   81MOL   C19227552   2.886   7.285   7.578  0.4021  0.8023  0.1158
   81MOL   C19327553   2.811   7.390   7.625 -0.0583  0.2589  0.2230
   81MOL   C19427554   2.802   7.509   7.553 -0.5260  0.1184 -0.6769
   81MOL   C19527555   2.869   7.523   7.429 -0.5530  0.6606  0.1142
   81MOL   C19627556   2.953   7.412   7.387  0.5266  0.0078  0.7899
   81MOL   O19727557   3.183   7.225   7.369 -0.4034 -0.7445  0.4709
   81MOL   H19827558   2.932   7.012   7.374 -1.7276  0.4531 -2.5058
   81MOL   H19927559   3.094   7.017   7.308  0.1692 -0.4301 -1.6015
   81MOL   H20027560   3.096   7.134   7.521 -3.6095  0.8098  1.4037
   81MOL   H20127561   2.891   7.186   7.623 -1.4797  0.6162 -0.0405
   81MOL   H20227562   2.761   7.375   7.720 -0.7271  0.2168 -0.1274
   81MOL   H20327563   2.743   7.596   7.577 -1.0927 -0.4589  0.0594
   81MOL   H20427564   2.858   7.613   7.370  0.3890  0.9465  0.3687
   81MOL   H20527565   3.001   7.422   7.290 -2.6907  0.8339 -0.7739
   81MOL   C20627566   3.248   7.326   7.443 -0.3505  0.0164 -0.1154
   81MOL   C20727567   3.381   7.278   7.502 -0.4135  0.1177 -0.1524
   81MOL   C20827568   3.363   7.209   7.636 -0.8249  0.2704  0.3453
   81MOL   C20927569   3.339   7.069   7.647 -0.0100 -0.2584 -0.0767
   81MOL   C21027570   3.288   7.011   7.764  0.3557  0.1341 -0.3550
   81MOL   C21127571   3.258   7.091   7.877 -0.2092  0.4678 -0.4845
   81MOL   C21227572   3.283   7.227   7.873  0.6046  0.5342  1.0248
   81MOL   C21327573   3.333   7.288   7.755  0.0321  0.1756  1.0625
   81MOL   O21427574   3.453   7.398   7.511  0.1674 -0.6101  0.5603
   81MOL   H21527575   3.275   7.406   7.375  1.3262 -1.3777 -1.1448
   81MOL   H21627576   3.188   7.372   7.522 -1.3968 -0.9653 -0.3294
   81MOL   H21727577   3.425   7.201   7.439  2.1198  3.0895 -2.2239
   81MOL   H21827578   3.356   7.003   7.564  2.3707  1.5185 -1.0687
   81MOL   H21927579   3.268   6.905   7.769  0.2661  0.2127  1.1179
   81MOL   H22027580   3.215   7.046   7.965  1.5606 -0.4556 -0.0764
   81MOL   H22127581   3.261   7.290   7.958 -1.8279  1.2685 -0.1163
   81MOL   H22227582   3.339   7.395   7.749 -1.1146  0.2154  0.5547
   81MOL   C22327583   3.595   7.380   7.525  0.0711  0.1091 -0.3334
   81MOL   C22427584   3.675   7.514   7.535  0.1907 -0.8664 -0.4747
   81MOL   C22527585   3.655   7.593   7.403 -0.4706 -0.6971 -0.4792
   81MOL   C22627586   3.738   7.555   7.294  0.2112  1.1292 -0.7147
   81MOL   C22727587   3.718   7.598   7.165  1.5706 -0.2380  0.0505
   81MOL   C22827588   3.613   7.691   7.151  0.5237  0.2218 -0.0275
   81MOL   C22927589   3.544   7.741   7.261 -0.7304  0.8075  0.1892
   81MOL   C23027590   3.554   7.688   7.391  0.3195  0.8187 -0.4949
   81MOL   O23127591   3.622   7.589   7.649 -0.1207  0.1034  0.1018
   81MOL   H23227592   3.610   7.319   7.614 -0.4554  0.0487 -0.2870
   81MOL   H23327593   3.640   7.318   7.447  0.1055 -1.9503  1.2658
   81MOL   H23427594   3.782   7.498   7.546  0.2138 -1.7182 -1.7586
   81MOL   H23527595   3.810   7.475   7.306 -0.6098  0.2387 -1.6394
   81MOL   H23627596   3.788   7.555   7.095  0.2684 -2.0564 -0.1434
   81MOL   H23727597   3.586   7.741   7.059 -1.4537 -0.5293  0.1304
   81MOL   H23827598   3.471   7.819   7.252 -0.4907  1.0075 -0.0162
   81MOL   H23927599   3.493   7.722   7.473  2.3400  2.1750  0.5059
   81MOL   C24027600   3.713   7.692   7.694 -0.0590 -0.4188 -0.5568
   81MOL   C24127601   3.678   7.772   7.819 -0.5045  0.1760 -0.0442
   81MOL   C24227602   3.799   7.853   7.862  0.6754 -0.8103 -0.0556
   81MOL   C24327603   3.840   7.964   7.783  0.4731 -0.3797 -0.0070
   81MOL   C24427604   3.955   8.038   7.824 -0.1989 -0.2751  0.7122
   81MOL   C24527605   4.045   7.990   7.923 -0.3525  0.1572  0.1518
   81MOL   C24627606   3.998   7.876   8.005 -0.2840 -0.4574 -0.2798
   81MOL   C24727607   3.879   7.810   7.971 -0.5637  0.3403 -0.0337
   81MOL   O24827608   3.576   7.854   7.778 -0.3984 -0.1667  0.3065
   81MOL   H24927609   3.802   7.634   7.718  1.5521  1.8556 -0.8662
   81MOL   H25027610   3.732   7.756   7.607 -0.6186 -0.0427 -0.4008
   81MOL   H25127611   3.650   7.695   7.891 -2.1913  0.6314 -0.1799
   81MOL   H25227612   3.770   7.987   7.704  1.3044  0.2886 -0.5585
   81MOL   H25327613   3.990   0.047   7.774  0.5685 -0.5954  0.6696
   81MOL   H25427614   4.139   8.038   7.946 -0.8218  0.9949  0.3555
   81MOL   H25527615   4.053   7.844   0.012 -0.5027  1.1067  0.4443
   81MOL   H25627616   3.851   7.723   8.029  0.6190 -0.3639 -0.4921
   81MOL   C25727617   3.511   7.929   7.880  0.1989 -0.3198  1.0308
   81MOL   C25827618   3.368   7.970   7.842 -0.3659 -0.3402  0.2758
   81MOL   C25927619   3.284   7.850   7.799  0.2458 -0.1434  0.0656
   81MOL   C26027620   3.174   7.810   7.878 -0.6300 -0.1015 -0.3596
   81MOL   C26127621   3.101   7.689   7.849 -0.5012 -0.0840  0.5677
   81MOL   C26227622   3.141   7.617   7.736 -0.4867 -0.1221  0.1352
   81MOL   C26327623   3.250   7.658   7.653  1.1288 -0.0113  0.0030
   81MOL   C26427624   3.315   7.775   7.688  0.2204 -0.3752  0.0398
   81MOL   O26527625   3.386   8.060   7.732  0.3442 -0.3712 -0.1555
   81MOL   H26627626   3.559   8.026   7.892 -1.4851  0.6075  0.5288
   81MOL   H26727627   3.505   7.870   7.972 -0.9674 -2.3127 -0.2964
   81MOL   H26827628   3.324   8.026   7.925  0.4730 -1.4299  1.4775
   81MOL   H26927629   3.152   7.859   7.972  0.2573 -0.1336 -0.1293
   81MOL   H27027630   3.022   7.644   7.906 -1.5748 -1.2793 -1.7791
   81MOL   H27127631   3.097   7.523   7.705 -1.1163 -0.4541  1.9219
   81MOL   H27227632   3.275   7.608   7.561 -2.3202 -0.0977 -0.9490
   81MOL   H27327633   3.383   7.813   7.613 -1.1991 -2.5161 -2.4244
   81MOL   C27427634   3.272   0.054   7.693  0.4800  0.2154 -0.3946
   81MOL   C27527635   3.318   0.130   7.567  0.1218  0.0030  0.1858
   81MOL   C27627636   3.392   0.263   7.598  0.9298  0.0250  0.0344
   81MOL   C27727637   3.536   0.273   7.581  0.1057  0.8374 -0.5275
   81MOL   C27827638   3.610   0.388   7.617  0.4300  0.2510  0.3648
   81MOL   C27927639   3.534   0.495   7.666 -0.2013  0.2650  0.0904
   81MOL   C28027640   3.397   0.485   7.691 -0.2656 -0.0648 -0.6096
   81MOL   C28127641   3.326   0.376   7.653  0.8972 -0.3376  0.1726
   81MOL   O28227642   3.214   0.146   7.475  0.2787  0.3314 -0.3155
   81MOL   H28327643   3.202   8.052   7.673  1.4702 -0.6977 -0.1632
   81MOL   H28427644   3.226   0.114   7.772  0.2851 -3.3498  2.3530
   81MOL   H28527645   3.396   0.081   7.508 -1.1639  0.7491 -2.1665
   81MOL   H28627646   3.594   0.197   7.531  0.2481  0.2541  0.5166
   81MOL   H28727647   3.716   0.397   7.601  0.2323 -0.6712 -1.6344
   81MOL   H28827648   3.578   0.588   7.701 -0.7211  0.2662  0.7488
   81MOL   H28927649   3.343   0.570   7.731  0.0127 -0.0923 -0.1712
   81MOL   H29027650   3.220   0.374   7.673  0.3324 -3.2048 -2.6012
   81MOL   C29127651   3.251   0.173   7.335  0.2519  0.1989 -0.5549
   81MOL   C29227652   3.294   0.053   7.254  0.1474  0.3191 -0.0944
   81MOL   C29327653   3.173   8.032   7.239  0.3042 -0.0981 -0.0414
   81MOL   C29427654   3.165   7.915   7.313  0.7471 -0.1965  0.1643
   81MOL   C29527655   3.058   7.821   7.300 -0.1834 -0.6824 -0.1109
   81MOL   C29627656   2.956   7.855   7.205  0.2734 -0.3267 -0.8058
   81MOL   C29727657   2.965   7.981   7.131  0.0882 -0.8610 -0.6712
   81MOL   C29827658   3.079   8.064   7.143  0.3857  0.1524 -0.2712
   81MOL   O29927659   3.339   0.094   7.129  0.3563  0.0897  0.2333
   81MOL   H30027660   3.326   0.251   7.326  1.2944 -0.8883 -1.5666
   81MOL   H30127661   3.165   0.215   7.283 -0.5123  1.6807  1.8528
   81MOL   H30227662   3.375   0.011   7.314 -2.5752 -2.9583  1.4974
   81MOL   H30327663   3.251   7.874   7.363  0.0610  0.4966  1.9410
   81MOL   H30427664   3.061   7.722   7.343  0.7778 -0.6341 -0.0533
   81MOL   H30527665   2.870   7.791   7.195  2.2205 -2.9998 -0.9529
   81MOL   H30627666   2.878   8.009   7.073 -0.6060 -0.7604  0.3948
   81MOL   H30727667   3.076   0.083   7.101 -1.3849 -0.7225 -2.3531
   81MOL   C30827668   3.430   0.001   7.080  0.5281  0.2249  0.2400
   81MOL   C30927669   3.459   0.039   6.929  0.1477 -0.6222  0.2957
   81MOL   C31027670   3.572   8.029   6.862  0.3576  0.3819  0.0749
   81MOL   C31127671   3.690   0.008   6.821  0.5944 -0.0833 -0.1672
   81MOL   C31227672   3.799   8.010   6.762 -0.0830 -0.2486  0.5238
   81MOL   C31327673   3.781   7.873   6.741  0.2477 -0.2902  0.0614
   81MOL   C31427674   3.663   7.809   6.792  0.0181 -1.0306 -0.5939
   81MOL   C31527675   3.555   7.891   6.840  0.3326 -0.1124  0.4582
   81MOL   O31627676   3.341   0.027   6.856 -0.3426 -0.8703  0.3759
   81MOL   H31727677   3.386   7.982   7.085  1.3290 -0.1535 -0.1482
   81MOL   H31827678   3.524   8.076   7.134  2.9487  2.0073 -3.5239
   81MOL   H31927679   3.487   0.144   6.927  0.6064 -0.7524 -2.6823
   81MOL   H32027680   3.712   0.113   6.834 -0.0156 -0.0419  0.6210
   81MOL   H32127681   3.901   8.044   6.750 -1.2692  3.2391 -0.2405
   81MOL   H32227682   3.870   7.826   6.704  2.5265  2.0733  2.2842
   81MOL   H32327683   3.648   7.703   6.775  0.0929 -0.8232 -2.0232
   81MOL   H32427684   3.461   7.843   6.865  0.9085 -1.5072  0.0018
   81MOL   C32527685   3.342   0.097   6.734  0.0176  0.3767 -0.1971
   81MOL   C32627686   3.202   0.122   6.682  0.0332 -0.5156  0.4424
   81MOL   C32727687   3.137   0.005   6.615  0.4722  0.7541  0.4667
   81MOL   C32827688   3.065   7.992   6.692 -0.1241 -0.0758 -0.0919
   81MOL   C32927689   3.004   7.888   6.627  0.6403  0.0113 -0.5511
   81MOL   C33027690   3.010   7.875   6.481  0.1153 -0.3735 -0.1432
   81MOL   C33127691   3.081   7.974   6.408  0.1451  0.1589  0.0502
   81MOL   C33227692   3.143   8.076   6.479 -0.0319 -0.1226 -0.2735
   81MOL   O33327693   3.131   0.165   6.796  0.1188 -0.2495  0.3887
   81MOL   H33427694   3.402   0.049   6.656 -2.6857 -1.9719 -0.8887
   81MOL   H33527695   3.380   0.196   6.762  2.8477 -0.5037 -0.7492
   81MOL   H33627696   3.212   0.212   6.621 -1.5602  0.3179  1.3590
   81MOL   H33727697   3.040   7.995   6.797  0.2652  1.8854 -0.0268
   81MOL   H33827698   2.932   7.834   6.687  2.3394 -1.5843  0.0839
   81MOL   H33927699   2.963   7.799   6.421  0.0154 -1.3066  1.0880
   81MOL   H34027700   3.081   7.969   6.300 -0.2342  2.1447 -0.0644
   81MOL   H34127701   3.197   0.072   6.425 -0.5138  0.3972 -0.0275
   81MOL   H34227702   3.163   0.111   6.866 -0.1313  0.3959  1.0105
   82MOL     C127703   2.541   4.431   2.006 -0.3247 -0.5182 -0.2554
   82MOL     C227704   2.444   4.426   1.884  0.2583  0.3256 -0.3395
   82MOL     C327705   2.520   4.370   1.760 -0.0957  0.3018 -0.4036
   82MOL     C427706   2.596   4.464   1.683  0.6223  0.6067 -0.3178
   82MOL     C527707   2.659   4.427   1.562 -0.5086 -0.5744 -0.7088
   82MOL     C627708   2.642   4.295   1.516 -0.0840 -0.0036  0.1395
   82MOL     C727709   2.582   4.196   1.600  0.1765 -0.8798  0.3469
   82MOL     C827710   2.521   4.231   1.721 -0.2014 -0.4080 -1.5742
   82MOL     O927711   2.392   4.552   1.848  0.3056 -0.6567 -0.0333
   82MOL    H1027712   2.611   4.514   1.998  0.9280 -1.5196  0.2960
   82MOL    H1127713   2.486   4.449   2.099 -0.0449  0.5180 -0.2807
   82MOL    H1227714   2.368   4.355   1.915  3.6115 -2.2111  2.6136
   82MOL    H1327715   2.589   4.571   1.700 -1.3502  0.3314  0.8017
   82MOL    H1427716   2.697   4.497   1.490  0.9466 -1.1450 -0.5024
   82MOL    H1527717   2.681   4.281   1.416 -1.2083  1.0726 -0.4534
   82MOL    H1627718   2.572   4.094   1.565  2.3589 -0.9614 -0.0950
   82MOL    H1727719   2.454   4.162   1.769  0.0087  0.4590 -0.0169
   82MOL    H1827720   2.596   4.337   2.010 -0.7865 -0.7503  1.1568
   82MOL    C1927721   2.317   4.604   1.954  0.4594 -0.1025  0.1610
   82MOL    C2027722   2.252   4.738   1.913 -0.2280 -0.1134  0.2963
   82MOL    C2127723   2.351   4.836   1.853  0.5190 -0.2772  0.9122
   82MOL    C2227724   2.397   4.950   1.930  0.6657 -0.1770  0.6386
   82MOL    C2327725   2.483   5.043   1.868 -0.6316 -0.8312 -0.7785
   82MOL    C2427726   2.522   5.022   1.730 -0.4689 -0.2343 -0.7930
   82MOL    C2527727   2.474   4.914   1.653 -0.7116  0.1630  0.2675
   82MOL    C2627728   2.386   4.823   1.718  0.6679  1.1131 -0.2506
   82MOL    O2727729   2.183   4.796   2.027 -0.3880 -0.0408 -0.5169
   82MOL    H2827730   2.240   4.536   1.989 -1.1955  1.1266 -1.0361
   82MOL    H2927731   2.376   4.635   2.040  1.0661 -0.4450 -0.1227
   82MOL    H3027732   2.176   4.706   1.842 -1.4122 -0.4818  1.6979
   82MOL    H3127733   2.379   4.955   2.036 -1.2026 -0.6591  0.3548
   82MOL    H3227734   2.520   5.127   1.925 -0.7002 -1.9366  0.9141
   82MOL    H3327735   2.596   5.088   1.687  0.4048 -0.7708 -0.1209
   82MOL    H3427736   2.524   4.892   1.560  1.9340 -0.3843  1.7459
   82MOL    H3527737   2.332   4.749   1.661 -2.3199  1.3957  2.0728
   82MOL    C3627738   2.052   4.850   1.989  0.2254 -0.2473 -0.4625
   82MOL    C3727739   2.047   5.001   2.015 -1.1228  0.1984  0.4490
   82MOL    C3827740   2.045   5.046   2.160 -0.5446 -0.7200 -0.5780
   82MOL    C3927741   1.938   5.126   2.217 -0.2471 -0.3771 -0.0809
   82MOL    C4027742   1.936   5.149   2.356 -0.2961 -0.2764  0.7749
   82MOL    C4127743   2.031   5.088   2.441 -0.3336 -0.8800 -0.2598
   82MOL    C4227744   2.129   5.006   2.388  0.1909 -0.1241  0.5073
   82MOL    C4327745   2.137   4.985   2.247  0.9530 -0.5602  0.4709
   82MOL    O4427746   1.925   5.031   1.944 -0.3310 -0.0137  0.0260
   82MOL    H4527747   2.020   4.827   1.888 -2.4864 -3.0968  0.9540
   82MOL    H4627748   1.976   4.799   2.048 -0.1578 -0.8623 -1.4864
   82MOL    H4727749   2.134   5.053   1.976 -0.6975 -2.0767 -1.8240
   82MOL    H4827750   1.866   5.182   2.158 -2.4381 -1.1585  1.7662
   82MOL    H4927751   1.872   5.221   2.405 -1.0602 -0.0293 -0.5551
   82MOL    H5027752   2.034   5.099   2.548 -0.1010 -0.2556 -0.3282
   82MOL    H5127753   2.205   4.955   2.445  0.5952 -0.2692 -0.1533
   82MOL    H5227754   2.216   4.920   2.213  2.3592  1.2994  0.1193
   82MOL    C5327755   1.937   5.156   1.875 -0.1310  0.4785 -0.3723
   82MOL    C5427756   2.018   5.147   1.749  0.0879 -0.3423  1.1555
   82MOL    C5527757   2.003   5.028   1.656  0.9110 -0.0032  0.0598
   82MOL    C5627758   2.098   5.011   1.558 -0.1305  0.3972  0.1120
   82MOL    C5727759   2.091   4.908   1.458  0.0965 -0.0442  0.0441
   82MOL    C5827760   1.980   4.823   1.462  0.5853  0.7461 -0.4471
   82MOL    C5927761   1.882   4.831   1.560  0.2681  0.1889  0.1927
   82MOL    C6027762   1.893   4.936   1.657  0.4176  0.7117 -0.0386
   82MOL    O6127763   1.960   5.249   1.671 -0.3688 -0.0802 -0.2750
   82MOL    H6227764   1.841   5.203   1.856 -0.4853 -0.4454 -0.9178
   82MOL    H6327765   1.986   5.224   1.945 -2.4212  0.6157  1.1298
   82MOL    H6427766   2.126   5.140   1.767  0.3411 -0.4171 -0.3314
   82MOL    H6527767   2.183   5.078   1.553  0.2764 -0.0437  0.9731
   82MOL    H6627768   2.165   4.906   1.380 -1.2540  1.7085 -1.3249
   82MOL    H6727769   1.972   4.748   1.385  2.9552 -1.2191  1.1355
   82MOL    H6827770   1.788   4.777   1.552 -0.6238  1.2373  2.9514
   82MOL    H6927771   1.807   4.960   1.717  0.1916  0.4729 -0.2687
   82MOL    C7027772   1.992   5.381   1.708  0.5857  0.1995  0.1604
   82MOL    C7127773   1.875   5.468   1.690  0.5514  0.0949  0.0208
   82MOL    C7227774   1.923   5.612   1.694 -0.5997 -0.6788 -0.3985
   82MOL    C7327775   1.994   5.656   1.813 -0.1522  0.5369 -0.6408
   82MOL    C7427776   2.028   5.793   1.822 -0.7921 -0.0013 -0.5957
   82MOL    C7527777   2.001   5.877   1.718 -0.1169  0.3944  0.0304
   82MOL    C7627778   1.956   5.836   1.593  0.5634  0.2120  0.0359
   82MOL    C7727779   1.918   5.697   1.583  0.5219  0.1616 -0.7445
   82MOL    O7827780   1.794   5.442   1.799 -0.0613 -0.0624  0.0884
   82MOL    H7927781   2.033   5.376   1.809  0.9979 -1.6375 -0.0865
   82MOL    H8027782   2.070   5.420   1.643  1.4805  1.4101  1.8993
   82MOL    H8127783   1.822   5.450   1.597  1.1034  0.5068 -0.3775
   82MOL    H8227784   2.013   5.587   1.894 -1.3728 -1.9032 -2.3670
   82MOL    H8327785   2.074   5.833   1.912  1.1323  1.4047 -2.1589
   82MOL    H8427786   2.027   5.980   1.736  0.3524  0.3325 -0.2587
   82MOL    H8527787   1.940   5.898   1.506  2.1766  0.8133  0.1539
   82MOL    H8627788   1.870   5.666   1.492 -0.0033  0.6467 -0.6321
   82MOL    C8727789   1.657   5.460   1.779 -0.1869  0.0386  0.1957
   82MOL    C8827790   1.599   5.439   1.920 -0.5883  0.4224  0.1693
   82MOL    C8927791   1.450   5.464   1.914  0.1821 -0.1532  0.4713
   82MOL    C9027792   1.369   5.348   1.914 -0.7451 -0.2578 -0.5253
   82MOL    C9127793   1.227   5.358   1.921  0.0225  0.1984  0.3691
   82MOL    C9227794   1.168   5.485   1.932 -0.4960  0.7472  0.0800
   82MOL    C9327795   1.252   5.601   1.950  0.7178 -0.6047  0.4342
   82MOL    C9427796   1.389   5.593   1.926 -0.2691  0.1339  0.5610
   82MOL    O9527797   1.654   5.536   2.008 -0.2035 -0.2246 -0.0941
   82MOL    H9627798   1.616   5.381   1.717 -0.7614  1.6640 -1.5551
   82MOL    H9727799   1.639   5.560   1.739  4.1182  0.2302 -1.5316
   82MOL    H9827800   1.620   5.335   1.946 -1.2504 -0.5452 -3.0519
   82MOL    H9927801   1.411   5.249   1.922  0.5215  0.2522 -0.6452
   82MOL   H10027802   1.161   5.273   1.926  0.5840 -0.2972 -0.4969
   82MOL   H10127803   1.060   5.487   1.943 -0.8000 -0.7955 -2.2306
   82MOL   H10227804   1.211   5.692   1.991 -1.5531 -1.4519  0.1201
   82MOL   H10327805   1.451   5.682   1.918 -0.0581  0.0260  0.9825
   82MOL   C10427806   1.730   5.470   2.113  0.5538  0.0050  0.6124
   82MOL   C10527807   1.752   5.571   2.228 -0.1139 -0.2652 -0.2951
   82MOL   C10627808   1.618   5.599   2.296 -1.1316 -0.0987  0.6399
   82MOL   C10727809   1.534   5.714   2.265 -0.1382 -0.0231  0.0822
   82MOL   C10827810   1.413   5.736   2.330  0.2336 -0.6814  0.0901
   82MOL   C10927811   1.373   5.651   2.435  0.3261 -0.3211 -0.7947
   82MOL   C11027812   1.458   5.545   2.477 -0.3978 -0.2635  0.2173
   82MOL   C11127813   1.578   5.518   2.412 -0.0666  0.0462 -0.1468
   82MOL   O11227814   1.832   5.495   2.321  0.3538 -0.0969 -0.2999
   82MOL   H11327815   1.672   5.385   2.148  1.6808 -1.3007 -0.6496
   82MOL   H11427816   1.827   5.447   2.071  1.0647  3.4476 -0.3051
   82MOL   H11527817   1.809   5.653   2.184 -0.1410  0.2562  0.6497
   82MOL   H11627818   1.566   5.781   2.186 -2.4452 -1.5149 -2.1764
   82MOL   H11727819   1.349   5.817   2.299  0.3132 -1.3434 -1.8435
   82MOL   H11827820   1.280   5.670   2.485  2.8493  1.5695  3.4733
   82MOL   H11927821   1.425   5.483   2.559 -0.2296  0.9393  1.2168
   82MOL   H12027822   1.633   5.430   2.440  0.2031 -0.6500 -2.6770
   82MOL   C12127823   1.916   5.566   2.411 -0.5117 -0.0570  0.0654
   82MOL   C12227824   2.047   5.629   2.363  0.4622  0.0776  0.0368
   82MOL   C12327825   2.146   5.526   2.302 -0.1410  0.0478 -0.0785
   82MOL   C12427826   2.118   5.473   2.172  0.6092 -0.7654  0.8582
   82MOL   C12527827   2.205   5.380   2.110 -0.0850  0.1401  0.1082
   82MOL   C12627828   2.314   5.327   2.177  0.0718  0.6900 -0.8992
   82MOL   C12727829   2.338   5.373   2.307  0.1987 -0.4197  0.0372
   82MOL   C12827830   2.256   5.474   2.373 -0.1604  0.5465  0.0199
   82MOL   O12927831   2.025   5.731   2.266 -0.0316  0.2365 -0.1768
   82MOL   H13027832   1.946   5.486   2.479 -0.7713  1.3259  1.8254
   82MOL   H13127833   1.861   5.631   2.479 -0.4462 -0.9454  0.9883
   82MOL   H13227834   2.097   5.662   2.454 -2.7717 -0.1666  1.9833
   82MOL   H13327835   2.027   5.515   2.131  0.7277  0.0722  1.4420
   82MOL   H13427836   2.183   5.332   2.015 -0.5450 -0.1087  0.3410
   82MOL   H13527837   2.386   5.258   2.135  1.8957  2.3176 -0.4829
   82MOL   H13627838   2.424   5.324   2.351  0.6546 -0.0407 -0.4357
   82MOL   H13727839   2.287   5.499   2.473  0.6725  0.1615 -0.1374
   82MOL   C13827840   1.978   5.859   2.316 -0.8738  0.1965 -0.5650
   82MOL   C13927841   2.092   5.966   2.342 -0.1399 -0.2135 -0.0294
   82MOL   C14027842   2.207   5.897   2.407 -0.3249 -0.4630 -0.7457
   82MOL   C14127843   2.215   5.891   2.545 -0.1115 -0.4020  0.2809
   82MOL   C14227844   2.321   5.815   2.605 -0.1174  0.6064  0.1569
   82MOL   C14327845   2.420   5.757   2.521  0.7614 -0.0651  0.3076
   82MOL   C14427846   2.414   5.767   2.383 -0.5312  0.6270 -0.2187
   82MOL   C14527847   2.306   5.838   2.325 -1.0047  0.7655  0.3980
   82MOL   O14627848   2.124   6.020   2.213  0.2867 -0.5961 -0.3153
   82MOL   H14727849   1.924   5.851   2.410  1.2514  0.8966  0.7548
   82MOL   H14827850   1.901   5.895   2.248 -0.1269  0.5029 -1.2501
   82MOL   H14927851   2.045   6.046   2.399 -0.4773 -1.3552  1.3105
   82MOL   H15027852   2.134   5.925   2.607 -1.6922 -1.7297 -1.0238
   82MOL   H15127853   2.334   5.794   2.710 -2.4048  0.3538  0.4182
   82MOL   H15227854   2.508   5.715   2.569  1.3673  2.3245  1.3266
   82MOL   H15327855   2.491   5.726   2.319  0.2495 -0.1960  1.2042
   82MOL   H15427856   2.290   5.848   2.219  0.8710  2.5203  0.2515
   82MOL   C15527857   2.200   6.146   2.213 -0.1654  0.3394 -0.3300
   82MOL   C15627858   2.255   6.186   2.078 -0.2820  0.1326 -0.7947
   82MOL   C15727859   2.308   6.329   2.073 -0.1374  0.3657 -0.0674
   82MOL   C15827860   2.448   6.357   2.089  0.3158  0.4843 -0.2740
   82MOL   C15927861   2.493   6.487   2.065 -0.0385  1.1681 -0.0056
   82MOL   C16027862   2.402   6.591   2.046 -0.1425  0.0615  0.6531
   82MOL   C16127863   2.263   6.565   2.047 -0.7181 -0.1925  0.3413
   82MOL   C16227864   2.215   6.430   2.061 -0.7237  0.1786  0.2238
   82MOL   O16327865   2.355   6.088   2.048 -0.7384 -0.8482  0.0249
   82MOL   H16427866   2.280   6.149   2.287  1.4828 -0.5626 -2.0531
   82MOL   H16527867   2.125   6.221   2.242  0.6389  0.0246  2.7891
   82MOL   H16627868   2.185   6.187   1.994  0.8830 -1.2819 -1.7981
   82MOL   H16727869   2.520   6.279   2.108 -0.1313  1.0010  3.9501
   82MOL   H16827870   2.600   6.498   2.065 -0.0254  1.0896  1.0772
   82MOL   H16927871   2.438   6.692   2.036  1.0719 -0.5008 -0.9638
   82MOL   H17027872   2.188   6.638   2.020 -0.2328 -0.2306 -1.1698
   82MOL   H17127873   2.109   6.409   2.055 -0.5960 -1.6780  3.3344
   82MOL   C17227874   2.335   5.980   1.961 -0.8334 -0.4703  0.4814
   82MOL   C17327875   2.469   5.913   1.928  0.7711 -0.7330 -0.2198
   82MOL   C17427876   2.571   5.982   1.836 -0.2902  0.1967 -0.4995
   82MOL   C17527877   2.584   5.944   1.698  0.7824 -0.2885  0.1831
   82MOL   C17627878   2.681   6.007   1.620 -0.4792 -0.1467  0.1456
   82MOL   C17727879   2.772   6.101   1.670  0.8426  0.4180 -0.2134
   82MOL   C17827880   2.760   6.145   1.803  0.4792 -0.1215 -0.0392
   82MOL   C17927881   2.660   6.081   1.880  0.8436 -0.3507  0.4906
   82MOL   O18027882   2.440   5.773   1.897 -0.2851 -0.4125 -0.1159
   82MOL   H18127883   2.265   5.917   2.015 -2.3083  0.9872  0.3031
   82MOL   H18227884   2.274   6.014   1.877  1.3274 -1.2322 -1.4752
   82MOL   H18327885   2.516   5.909   2.026 -1.4543 -1.0554  0.8692
   82MOL   H18427886   2.517   5.873   1.653  1.9284 -0.9580 -0.4584
   82MOL   H18527887   2.692   5.975   1.518 -1.2285 -0.4292  0.1501
   82MOL   H18627888   2.855   6.133   1.608  0.4024 -0.0982 -1.0762
   82MOL   H18727889   2.811   6.232   1.842  1.3840 -1.6991  2.4016
   82MOL   H18827890   2.642   6.112   1.983 -2.7871  1.4043 -0.5661
   82MOL   C18927891   2.550   5.684   1.922  0.1755  0.0350  0.4946
   82MOL   C19027892   2.508   5.545   1.863  0.1434  0.2755  0.2603
   82MOL   C19127893   2.609   5.438   1.899  1.0877 -0.4232  0.2390
   82MOL   C19227894   2.661   5.357   1.799 -0.4749  0.1571 -0.2456
   82MOL   C19327895   2.754   5.254   1.827 -0.1391 -0.3791  0.6584
   82MOL   C19427896   2.774   5.224   1.963  0.1921  0.8583 -0.5059
   82MOL   C19527897   2.725   5.307   2.066 -0.0280  0.4052  0.3424
   82MOL   C19627898   2.641   5.412   2.032  0.4701  0.4151 -0.5200
   82MOL   O19727899   2.503   5.553   1.720  0.2801 -0.6864  0.0520
   82MOL   H19827900   2.641   5.723   1.877  0.2400 -0.5114  0.1438
   82MOL   H19927901   2.564   5.675   2.030 -0.5439 -0.2175  0.5704
   82MOL   H20027902   2.412   5.519   1.907 -0.9983  0.6479 -1.9460
   82MOL   H20127903   2.636   5.370   1.695 -0.6054  1.0050 -0.1077
   82MOL   H20227904   2.810   5.194   1.756 -0.0758  0.9598 -0.4424
   82MOL   H20327905   2.831   5.139   1.996 -1.5097  0.0372  0.3843
   82MOL   H20427906   2.733   5.281   2.171  1.1241  2.6618  0.8593
   82MOL   H20527907   2.595   5.467   2.113  0.5227 -0.2111 -0.0665
   82MOL   C20627908   2.374   5.593   1.676  0.3691 -0.2512 -0.0231
   82MOL   C20727909   2.353   5.555   1.531 -0.6938  0.4330  0.0410
   82MOL   C20827910   2.435   5.639   1.439  0.5899  0.4523 -0.4635
   82MOL   C20927911   2.563   5.603   1.392 -0.4124 -0.2527 -0.5099
   82MOL   C21027912   2.633   5.692   1.305  0.1786  0.2668 -0.5903
   82MOL   C21127913   2.573   5.813   1.265 -0.8419  0.6748 -0.1646
   82MOL   C21227914   2.446   5.849   1.309 -0.2847 -0.0066 -0.1873
   82MOL   C21327915   2.375   5.766   1.404 -0.9660  0.1637  0.1516
   82MOL   O21427916   2.215   5.546   1.518  0.8708 -0.0555  0.1516
   82MOL   H21527917   2.308   5.526   1.731 -0.3240  0.7674  0.3955
   82MOL   H21627918   2.329   5.691   1.692  1.5492  0.4127 -0.6323
   82MOL   H21727919   2.384   5.451   1.527 -1.3365  0.1972  0.9994
   82MOL   H21827920   2.615   5.513   1.423 -1.7592 -0.5442  0.9431
   82MOL   H21927921   2.733   5.672   1.269  0.4898  0.0299  0.4116
   82MOL   H22027922   2.627   5.880   1.199 -0.7544  1.3050  0.5351
   82MOL   H22127923   2.399   5.941   1.278  0.6767  1.4819  2.6039
   82MOL   H22227924   2.280   5.791   1.449 -0.6167  0.8861  0.4916
   82MOL   C22327925   2.164   5.511   1.385  0.4966  0.5207  0.5108
   82MOL   C22427926   2.169   5.361   1.365 -0.5722 -0.1462 -0.5637
   82MOL   C22527927   2.066   5.312   1.266 -0.2336 -0.1846  0.2491
   82MOL   C22627928   1.936   5.264   1.316  0.2310  0.2800  0.1843
   82MOL   C22727929   1.835   5.243   1.223  0.0892 -0.4014  0.3034
   82MOL   C22827930   1.859   5.246   1.085  0.1014 -0.2483 -0.4354
   82MOL   C22927931   1.984   5.299   1.030 -0.1344 -0.2619  0.2712
   82MOL   C23027932   2.084   5.324   1.121 -0.2140 -0.2198 -0.3202
   82MOL   O23127933   2.300   5.325   1.318 -0.1983  0.3730  0.0229
   82MOL   H23227934   2.065   5.553   1.400 -0.9467 -2.3108 -0.6352
   82MOL   H23327935   2.211   5.575   1.310  0.2927 -0.0978 -0.1612
   82MOL   H23427936   2.152   5.315   1.462  2.7241  2.8651  1.5877
   82MOL   H23527937   1.917   5.252   1.422 -0.1429 -3.4558 -0.2639
   82MOL   H23627938   1.737   5.208   1.252 -0.0751  0.1491  0.4143
   82MOL   H23727939   1.778   5.213   1.020 -0.7424 -0.1333  0.5460
   82MOL   H23827940   2.002   5.307   0.924 -1.1283 -1.6726 -0.0335
   82MOL   H23927941   2.174   5.376   1.089 -1.6520  1.6423 -1.4557
   82MOL   C24027942   2.345   5.193   1.340  0.8280  0.1131  0.2686
   82MOL   C24127943   2.436   5.156   1.219 -0.0692  0.0438  0.7842
   82MOL   C24227944   2.562   5.237   1.201  0.4780  1.0021  0.7441
   82MOL   C24327945   2.677   5.219   1.289  0.1777 -0.1462 -0.4796
   82MOL   C24427946   2.780   5.306   1.287  0.0174  0.5398 -0.0956
   82MOL   C24527947   2.777   5.416   1.196 -0.4889  1.0526 -0.0096
   82MOL   C24627948   2.679   5.431   1.096  0.0105  0.0231  0.1371
   82MOL   C24727949   2.574   5.338   1.103  0.4363  0.1206  0.6383
   82MOL   O24827950   2.465   5.008   1.228 -0.1600 -0.5174 -0.1194
   82MOL   H24927951   2.389   5.191   1.439 -3.0178  1.5700  2.1101
   82MOL   H25027952   2.261   5.124   1.349  0.6981 -0.2092 -2.6969
   82MOL   H25127953   2.374   5.162   1.130  0.1527 -0.7814  0.5667
   82MOL   H25227954   2.673   5.143   1.364 -0.3391  0.2123 -0.1416
   82MOL   H25327955   2.857   5.293   1.362 -0.0737  0.2991 -0.0441
   82MOL   H25427956   2.861   5.483   1.197  0.5344 -0.2094  0.7436
   82MOL   H25527957   2.687   5.505   1.018 -2.0058  1.7800  1.5283
   82MOL   H25627958   2.498   5.343   1.026  0.3783  2.7546  0.8350
   82MOL   C25727959   2.504   4.957   1.104 -0.2705  0.2658  0.1126
   82MOL   C25827960   2.527   4.805   1.109 -0.3176 -0.3949 -0.1567
   82MOL   C25927961   2.424   4.733   1.201  0.1677  1.3299  0.3637
   82MOL   C26027962   2.463   4.658   1.310 -0.1599  0.3688  0.4907
   82MOL   C26127963   2.357   4.585   1.385  0.2188  0.0718 -0.0014
   82MOL   C26227964   2.228   4.578   1.338 -0.5773  0.1831 -1.1654
   82MOL   C26327965   2.192   4.657   1.228 -0.2051 -0.5160  0.7907
   82MOL   C26427966   2.285   4.735   1.160  0.3527 -0.0217  0.2011
   82MOL   O26527967   2.665   4.792   1.147  0.0936 -0.1223  0.6925
   82MOL   H26627968   2.584   5.012   1.056  0.7850 -0.3874  1.1023
   82MOL   H26727969   2.426   4.981   1.031  0.2450  1.0860 -0.1775
   82MOL   H26827970   2.508   4.758   1.013  0.1873 -2.2276  0.6229
   82MOL   H26927971   2.565   4.660   1.344 -0.1777 -1.2574  0.6826
   82MOL   H27027972   2.374   4.516   1.467  1.4342 -0.8347 -0.9900
   82MOL   H27127973   2.160   4.506   1.382 -0.6430  1.0247  0.1521
   82MOL   H27227974   2.090   4.648   1.192  0.4171  0.7519 -1.4128
   82MOL   H27327975   2.258   4.792   1.073 -2.4316 -1.2249  0.2439
   82MOL   C27427976   2.733   4.692   1.073  1.6204 -0.4930  0.7216
   82MOL   C27527977   2.879   4.662   1.097  0.2096 -1.4165 -0.3302
   82MOL   C27627978   2.911   4.646   1.241  0.2314  0.0543  0.0567
   82MOL   C27727979   2.955   4.750   1.326  1.0059 -0.4686 -0.3436
   82MOL   C27827980   3.004   4.731   1.454 -0.5323 -0.2626  0.1220
   82MOL   C27927981   3.012   4.593   1.499 -0.0062 -0.0606 -0.0312
   82MOL   C28027982   2.950   4.491   1.426 -0.7416 -0.4443  0.3407
   82MOL   C28127983   2.903   4.520   1.299 -0.8835  0.0336 -0.0311
   82MOL   O28227984   2.953   4.755   1.022  0.0689  0.2491  0.0097
   82MOL   H28327985   2.677   4.602   1.099 -2.2319  1.7335  0.5688
   82MOL   H28427986   2.711   4.701   0.966  1.6335  0.2756  0.7783
   82MOL   H28527987   2.906   4.568   1.048 -0.2193 -0.5219 -2.3383
   82MOL   H28627988   2.948   4.853   1.295 -0.0527 -0.8635 -1.4630
   82MOL   H28727989   3.050   4.802   1.521  1.0716 -0.2212 -1.0023
   82MOL   H28827990   3.048   4.562   1.596  0.1478 -2.8044 -0.9220
   82MOL   H28927991   2.949   4.388   1.458  0.4480 -0.7664 -0.5959
   82MOL   H29027992   2.873   4.433   1.244 -2.7847  1.0899 -0.7156
   82MOL   C29127993   3.095   4.736   1.040 -0.2296 -0.3674  0.0866
   82MOL   C29227994   3.174   4.832   0.946  0.5122  0.2486 -0.0052
   82MOL   C29327995   3.147   4.805   0.796 -0.0684 -0.2878  0.4959
   82MOL   C29427996   3.026   4.835   0.727 -0.5320 -0.5252 -0.3892
   82MOL   C29527997   3.001   4.801   0.592 -0.5256  0.3812 -0.6017
   82MOL   C29627998   3.106   4.741   0.527  0.4079  0.2046 -0.3455
   82MOL   C29727999   3.224   4.702   0.590 -0.0264  0.1420  0.2473
   82MOL   C29828000   3.244   4.738   0.722  0.1156  0.2529  0.1644
   82MOL   O29928001   3.145   4.967   0.993 -0.7204 -0.2097 -0.3089
   82MOL   H30028002   3.131   4.637   1.011 -0.6872 -0.7984  0.9478
   82MOL   H30128003   3.119   4.755   1.145  1.4402 -1.8004 -0.0138
   82MOL   H30228004   3.278   4.807   0.968  0.0104 -1.3650  0.6815
   82MOL   H30328005   2.946   4.888   0.776 -0.7365 -0.4491 -0.7964
   82MOL   H30428006   2.905   4.831   0.552 -0.7018 -0.2288 -0.6432
   82MOL   H30528007   3.091   4.714   0.423 -0.1754 -1.0830  0.0660
   82MOL   H30628008   3.304   4.650   0.539  0.1503 -0.0278  0.7020
   82MOL   H30728009   3.345   4.712   0.751 -0.0161  2.0352  2.3196
   82MOL   C30828010   3.235   5.060   0.947 -0.3060 -0.1330 -0.0622
   82MOL   C30928011   3.170   5.199   0.946 -0.3495  1.2657  0.4209
   82MOL   C31028012   3.277   5.301   0.904  0.8520 -0.7091  0.4514
   82MOL   C31128013   3.308   5.331   0.767  0.2616 -0.4558 -0.0928
   82MOL   C31228014   3.403   5.434   0.735 -0.4601 -0.3178  0.0983
   82MOL   C31328015   3.474   5.495   0.839 -0.0873  0.9403  0.3351
   82MOL   C31428016   3.450   5.463   0.972  0.0569  0.4281  0.2858
   82MOL   C31528017   3.343   5.372   1.003 -0.4726  0.2456 -0.1566
   82MOL   O31628018   3.061   5.202   0.852 -0.3712 -0.8257  0.2643
   82MOL   H31728019   3.266   5.035   0.846 -2.2462  1.4616 -1.0881
   82MOL   H31828020   3.320   5.060   1.016  0.4203  0.9047 -0.9222
   82MOL   H31928021   3.137   5.221   1.048  2.9914  1.1871  1.6078
   82MOL   H32028022   3.259   5.281   0.684  0.5084  0.5114 -0.8317
   82MOL   H32128023   3.415   5.459   0.631 -2.1759 -1.1849 -0.3254
   82MOL   H32228024   3.540   5.578   0.818 -0.8020  0.8148 -2.6209
   82MOL   H32328025   3.500   5.521   1.049  2.4903 -0.3519 -0.6641
   82MOL   H32428026   3.324   5.361   1.109 -0.9062  1.2889 -0.1215
   82MOL   C32528027   2.985   5.323   0.864 -0.3224  0.1872  0.1147
   82MOL   C32628028   2.849   5.290   0.793  0.2963 -0.1743 -0.0771
   82MOL   C32728029   2.854   5.278   0.647 -0.1921 -0.4994  0.1300
   82MOL   C32828030   2.803   5.377   0.560 -0.2358  0.1978  0.8996
   82MOL   C32928031   2.795   5.348   0.423 -0.0541  0.3715 -0.7466
   82MOL   C33028032   2.850   5.229   0.373  0.7659 -0.4858  0.5966
   82MOL   C33128033   2.921   5.138   0.457 -0.6123  0.5205 -0.3307
   82MOL   C33228034   2.928   5.168   0.598 -0.4782  1.0294 -0.0844
   82MOL   O33328035   2.801   5.169   0.860  0.5318 -0.8598  0.4736
   82MOL   H33428036   3.036   5.409   0.821 -2.1647  0.8791 -0.7732
   82MOL   H33528037   2.965   5.348   0.968 -0.3156  0.6649  0.0008
   82MOL   H33628038   2.783   5.371   0.822  0.1900 -0.1988 -0.2497
   82MOL   H33728039   2.756   5.463   0.603 -2.0966 -0.1177 -0.4396
   82MOL   H33828040   2.745   5.409   0.350  0.5232  1.3034 -0.3716
   82MOL   H33928041   2.842   5.210   0.267  1.4571 -0.5945  0.5610
   82MOL   H34028042   2.969   5.048   0.424  0.1182  1.5065 -2.0014
   82MOL   H34128043   2.985   5.107   0.666 -2.0705  0.5105  0.8111
   82MOL   H34228044   2.868   5.103   0.860  1.7481  0.3519  1.4404
   83MOL     C128045   0.240   5.138   5.785  0.0418  0.0905  0.1679
   83MOL     C228046   0.143   5.216   5.874 -0.4430 -0.0991 -0.0044
   83MOL     C328047   0.005   5.191   5.818  0.1696  0.5215  0.4049
   83MOL     C428048   8.018   5.083   5.882  0.1251 -0.3829  0.2623
   83MOL     C528049   7.891   5.043   5.829 -0.3285  0.1291 -0.1297
   83MOL     C628050   7.844   5.106   5.717 -0.5304 -0.4485 -0.2892
   83MOL     C728051   7.915   5.207   5.656  0.5359  0.3297  1.1399
   83MOL     C828052   8.030   5.260   5.704  0.3901 -0.5869  0.1474
   83MOL     O928053   0.175   5.351   5.869  0.3134  0.7580 -0.1479
   83MOL    H1028054   0.240   5.034   5.819  2.2015  0.4592  1.3876
   83MOL    H1128055   0.218   5.138   5.679  0.9127 -0.9109 -0.0270
   83MOL    H1228056   0.153   5.181   5.977 -1.6550 -0.5995 -0.0402
   83MOL    H1328057   8.057   5.036   5.971 -1.7457 -0.6527  0.9642
   83MOL    H1428058   7.825   4.972   5.877  1.7939 -1.0067  1.1630
   83MOL    H1528059   7.745   5.080   5.683 -1.0034 -0.8366  1.3624
   83MOL    H1628060   7.872   5.250   5.566 -1.4738  0.6117  2.2133
   83MOL    H1728061   0.009   5.334   5.652 -2.2716 -0.0848 -2.2974
   83MOL    H1828062   0.340   5.177   5.805 -0.7336  0.9438  2.5583
   83MOL    C1928063   0.142   5.422   5.986  0.3020 -0.8290  0.3019
   83MOL    C2028064   0.172   5.574   5.962  0.1701  0.4329  0.1975
   83MOL    C2128065   0.325   5.583   5.960  0.4923 -0.3032 -0.5068
   83MOL    C2228066   0.397   5.638   6.069  0.0018  0.8648  0.1059
   83MOL    C2328067   0.534   5.645   6.073  0.0895 -0.5540 -0.0401
   83MOL    C2428068   0.606   5.615   5.958  0.6387 -0.1392  0.8968
   83MOL    C2528069   0.540   5.562   5.843  0.0762  0.1867  0.2532
   83MOL    C2628070   0.401   5.542   5.846  0.0897 -0.2715 -0.6566
   83MOL    O2728071   0.102   5.657   6.055 -0.0568 -0.1456  0.0802
   83MOL    H2828072   0.037   5.410   6.009  0.7776 -0.3845  2.8048
   83MOL    H2928073   0.192   5.392   6.078  0.5311 -0.7689  0.1977
   83MOL    H3028074   0.137   5.599   5.861 -0.6268 -1.2597  0.0345
   83MOL    H3128075   0.342   5.674   6.155 -2.0449 -0.4419 -0.6028
   83MOL    H3228076   0.581   5.683   6.163  0.1366  0.2891 -0.4260
   83MOL    H3328077   0.713   5.623   5.952  0.6431  2.2331  3.0134
   83MOL    H3428078   0.602   5.549   5.756 -1.9280 -2.7001 -0.8321
   83MOL    H3528079   0.344   5.500   5.765 -0.5735 -0.8292  0.0879
   83MOL    C3628080   0.092   5.793   6.004  0.2298  0.1577  0.5324
   83MOL    C3728081   0.041   5.900   6.095 -0.1110 -0.0113  0.9951
   83MOL    C3828082   0.112   5.904   6.226 -0.1235 -0.0837 -0.3366
   83MOL    C3928083   0.061   5.833   6.342 -0.0562  0.1612  1.0294
   83MOL    C4028084   0.141   5.816   6.462  0.7105  0.1812  0.2307
   83MOL    C4128085   0.268   5.878   6.464 -0.1196  0.2578  0.5731
   83MOL    C4228086   0.309   5.961   6.360 -0.7910 -0.4807 -0.2938
   83MOL    C4328087   0.241   5.964   6.241  0.4059 -0.3566  0.8235
   83MOL    O4428088   7.978   5.892   6.105  0.3921 -0.0822  0.2638
   83MOL    H4528089   0.182   5.814   5.946  1.3643 -1.0406  1.8037
   83MOL    H4628090   0.020   5.794   5.922  0.4719 -0.7880  0.3014
   83MOL    H4728091   0.068   5.990   6.040 -4.9877  0.1892 -1.3265
   83MOL    H4828092   8.045   5.782   6.338 -0.6176  1.3303 -1.1645
   83MOL    H4928093   0.112   5.761   6.550  1.9365  0.6036  0.9011
   83MOL    H5028094   0.326   5.873   6.556 -0.2126  1.8603  0.7390
   83MOL    H5128095   0.401   6.018   6.366 -1.7675  1.0885 -0.0044
   83MOL    H5228096   0.287   6.023   6.164 -1.3361 -2.0568 -1.5670
   83MOL    C5328097   7.919   6.002   6.162  0.4344 -0.3623  0.3817
   83MOL    C5428098   7.874   6.106   6.060  0.4848  1.1471 -0.1675
   83MOL    C5528099   7.792   6.217   6.115  0.7542  0.4040 -0.3050
   83MOL    C5628100   7.847   6.330   6.162 -0.7820 -0.6487 -0.1369
   83MOL    C5728101   7.771   6.434   6.211 -0.3965 -0.4103  0.6035
   83MOL    C5828102   7.630   6.436   6.191 -0.5999  0.5825  0.0398
   83MOL    C5928103   7.569   6.319   6.144  1.2058 -0.3403 -0.7301
   83MOL    C6028104   7.649   6.216   6.100  0.9845  0.1056 -0.0796
   83MOL    O6128105   7.991   6.154   5.992  0.2489  0.4905  0.2388
   83MOL    H6228106   7.830   5.967   6.215  0.4045 -0.3657  0.3294
   83MOL    H6328107   7.977   6.058   6.234  0.5848 -3.4075  2.7420
   83MOL    H6428108   7.822   6.047   5.985 -0.1406  1.2418  0.1853
   83MOL    H6528109   7.953   6.347   6.173 -1.4862  3.3999  1.3817
   83MOL    H6628110   7.819   6.523   6.250  1.9242 -0.8005 -1.1874
   83MOL    H6728111   7.569   6.518   6.227 -0.7639  0.1333  0.7961
   83MOL    H6828112   7.462   6.309   6.133  1.4431 -1.0125 -2.4927
   83MOL    H6928113   7.598   6.133   6.053  0.0828  1.2557 -1.1853
   83MOL    C7028114   7.981   6.235   5.879  0.1535  0.5415 -0.0923
   83MOL    C7128115   7.943   6.160   5.746 -0.6290  0.6292 -0.4270
   83MOL    C7228116   7.959   6.250   5.623  0.1706 -0.2888  0.4460
   83MOL    C7328117   0.001   6.269   5.550 -0.5838 -0.1479 -0.1077
   83MOL    C7428118   0.009   6.350   5.439  0.5667  0.0329  0.3850
   83MOL    C7528119   7.977   6.405   5.387 -0.3080 -0.4578 -0.6605
   83MOL    C7628120   7.855   6.406   5.465  0.6461  0.1270 -0.7240
   83MOL    C7728121   7.851   6.330   5.581  0.1620 -0.7438 -0.5264
   83MOL    O7828122   7.814   6.098   5.765  0.0508  0.0437  0.0145
   83MOL    H7928123   7.918   6.321   5.899 -0.2945  0.3607 -0.7211
   83MOL    H8028124   0.003   6.273   5.869  0.5021 -0.5484 -0.7906
   83MOL    H8128125   8.025   6.089   5.754  0.6769  2.1878  0.5440
   83MOL    H8228126   0.083   6.203   5.573  0.0048  0.3380 -0.7888
   83MOL    H8328127   0.102   6.350   5.384  1.2435  0.7136  1.5091
   83MOL    H8428128   7.988   6.466   5.299  0.6558 -0.4018 -0.5040
   83MOL    H8528129   7.764   6.458   5.439  0.3121 -0.4167 -0.6667
   83MOL    H8628130   7.767   6.339   5.649  0.3593  1.7372 -0.5507
   83MOL    C8728131   7.808   5.963   5.734  0.1526  0.3397  0.6126
   83MOL    C8828132   7.799   5.945   5.571  0.4432 -0.6860  0.0632
   83MOL    C8928133   7.720   5.818   5.543 -0.1227  0.1099  0.7799
   83MOL    C9028134   7.776   5.692   5.569 -0.1283  0.3981  0.3128
   83MOL    C9128135   7.704   5.578   5.531 -0.5792  0.7033 -0.8006
   83MOL    C9228136   7.591   5.585   5.454  0.1194 -0.1459 -0.4093
   83MOL    C9328137   7.539   5.710   5.419  0.2319 -0.1719 -0.4341
   83MOL    C9428138   7.600   5.826   5.471  0.8429 -0.5221 -0.0344
   83MOL    O9528139   7.933   5.940   5.519 -0.6533 -0.1521 -0.6057
   83MOL    H9628140   7.709   5.936   5.771  0.0812  0.1455  0.2845
   83MOL    H9728141   7.883   5.894   5.772 -1.5814 -0.3004  2.9245
   83MOL    H9828142   7.741   6.024   5.523  1.0550  0.8399  1.7578
   83MOL    H9928143   7.868   5.666   5.618 -0.1028 -1.1524 -0.5390
   83MOL   H10028144   7.749   5.483   5.554  1.0713  1.4800 -0.7989
   83MOL   H10128145   7.536   5.495   5.430  0.3984 -0.5960  0.6438
   83MOL   H10228146   7.446   5.720   5.365 -0.1508 -0.8018  0.1002
   83MOL   H10328147   7.565   5.923   5.440  1.7930 -0.2846 -0.3858
   83MOL   C10428148   7.947   5.965   5.376  0.2788  0.0732 -0.8332
   83MOL   C10528149   8.071   5.911   5.325  0.7905 -0.0008 -0.5046
   83MOL   C10628150   0.036   5.783   5.388  0.8979 -0.0745  0.1005
   83MOL   C10728151   0.000   5.658   5.328 -0.7314  0.4224  0.3094
   83MOL   C10828152   0.052   5.539   5.385  0.6361 -0.2981  0.2259
   83MOL   C10928153   0.146   5.542   5.488  0.2405  0.7075 -0.7906
   83MOL   C11028154   0.181   5.668   5.548  0.3268 -0.1116  0.5177
   83MOL   C11128155   0.122   5.785   5.498 -0.1162  0.1507 -0.3064
   83MOL   O11228156   8.068   5.921   5.184 -0.2894 -0.2178 -0.1479
   83MOL   H11328157   7.859   5.919   5.330 -0.7252  0.1853  0.9228
   83MOL   H11428158   7.933   6.072   5.359 -1.0204  0.4785  2.5049
   83MOL   H11528159   0.057   5.992   5.358  0.5765 -0.6537  1.6073
   83MOL   H11628160   8.014   5.649   5.244 -1.9852  0.1147  1.3155
   83MOL   H11728161   0.026   5.443   5.342  0.1215 -1.1319  2.3032
   83MOL   H11828162   0.188   5.450   5.526  0.7904  0.8444 -1.0629
   83MOL   H11928163   0.243   5.677   5.636  1.3729  2.1935 -0.4105
   83MOL   H12028164   0.148   5.877   5.548  0.1345 -0.2633  0.3283
   83MOL   C12128165   0.113   5.963   5.131 -0.3002  0.9879  0.2125
   83MOL   C12228166   0.114   5.982   4.979 -0.0213  0.1785  0.1909
   83MOL   C12328167   0.012   6.089   4.946  0.8589  0.0290  0.6171
   83MOL   C12428168   0.053   6.225   4.963  0.6064  1.3064  0.0691
   83MOL   C12528169   8.039   6.326   4.923 -0.1309 -0.1145  0.0420
   83MOL   C12628170   7.901   6.303   4.897  0.0952  0.5608  0.0712
   83MOL   C12728171   7.865   6.166   4.882 -0.3415 -0.0407  0.6788
   83MOL   C12828172   7.958   6.061   4.904 -0.6407  0.3691  0.5092
   83MOL   O12928173   0.245   6.021   4.938  0.4126 -0.5439 -0.1388
   83MOL   H13028174   0.193   5.896   5.161  0.1448  1.7427  0.7349
   83MOL   H13128175   0.139   6.056   5.181 -2.6853  1.8232 -0.0221
   83MOL   H13228176   0.082   5.886   4.938 -1.2221  0.2138  1.0396
   83MOL   H13328177   0.151   6.245   5.004  0.9475  0.8156 -0.4990
   83MOL   H13428178   8.069   6.430   4.919 -0.2528 -0.0612  0.4615
   83MOL   H13528179   7.832   6.381   4.870 -0.3032  0.0554 -0.3802
   83MOL   H13628180   7.764   6.135   4.860 -1.4421  1.3851  3.3838
   83MOL   H13728181   7.935   5.958   4.882 -0.2135  0.4297 -0.2226
   83MOL   C13828182   0.281   5.992   4.805  0.2150 -1.2531 -0.2923
   83MOL   C13928183   0.329   5.840   4.790  0.3956 -0.5735  0.4616
   83MOL   C14028184   0.393   5.787   4.918  0.5767  0.0905  0.3435
   83MOL   C14128185   0.316   5.713   5.009 -0.3908 -0.9950  0.1855
   83MOL   C14228186   0.375   5.664   5.120  0.2144  0.4309  0.2051
   83MOL   C14328187   0.512   5.673   5.142 -0.7209  0.3582  0.3976
   83MOL   C14428188   0.589   5.751   5.056  0.3005  0.0692 -0.9787
   83MOL   C14528189   0.526   5.818   4.949  0.1153 -0.9895 -0.2313
   83MOL   O14628190   0.214   5.764   4.754  0.9292  0.1774 -0.2848
   83MOL   H14728191   0.366   6.054   4.779  0.0122 -1.2975 -1.0642
   83MOL   H14828192   0.199   6.024   4.741 -0.4289  1.5572  1.8483
   83MOL   H14928193   0.400   5.830   4.708  1.6247  1.9632  1.1660
   83MOL   H15028194   0.213   5.685   4.997  0.1094 -2.0712 -1.7807
   83MOL   H15128195   0.316   5.620   5.199 -0.3812 -1.3205 -1.1750
   83MOL   H15228196   0.555   5.641   5.236 -1.2281 -1.0687  0.1599
   83MOL   H15328197   0.690   5.777   5.082 -0.3918  2.4115 -0.5227
   83MOL   H15428198   0.583   5.882   4.882  0.4164 -1.4715 -0.4413
   83MOL   C15528199   0.195   5.755   4.607  0.5759  0.6460  0.3459
   83MOL   C15628200   0.059   5.714   4.561 -0.2479  0.1355 -0.0980
   83MOL   C15728201   0.034   5.566   4.599 -0.1187 -0.3815 -0.6059
   83MOL   C15828202   8.079   5.529   4.729  0.6052 -0.1129  0.8624
   83MOL   C15928203   8.070   5.394   4.762 -0.4991 -0.1865 -0.7625
   83MOL   C16028204   0.014   5.290   4.666 -0.5599 -0.2154  1.0528
   83MOL   C16128205   0.052   5.326   4.538 -0.0735 -0.7566  0.6708
   83MOL   C16228206   0.061   5.466   4.506 -0.0096  0.2192 -0.0745
   83MOL   O16328207   8.033   5.798   4.616 -0.3032  0.5276 -0.6683
   83MOL   H16428208   0.273   5.683   4.579 -0.6765 -1.0042  1.0273
   83MOL   H16528209   0.230   5.849   4.566 -0.6366  0.8931 -0.1340
   83MOL   H16628210   0.063   5.711   4.452  1.3211  0.8305 -0.0643
   83MOL   H16728211   8.051   5.600   4.806 -3.6030 -1.1716  0.4305
   83MOL   H16828212   8.029   5.380   4.861  1.9118 -0.4597  0.2357
   83MOL   H16928213   0.013   5.185   4.692  2.0024 -0.3293  0.8198
   83MOL   H17028214   0.068   5.257   4.456 -2.9950  0.9984 -1.5108
   83MOL   H17128215   0.099   5.493   4.408  0.6381  1.6557  0.5604
   83MOL   C17228216   8.023   5.934   4.564 -0.2273  0.0747  0.0894
   83MOL   C17328217   7.978   5.956   4.418  0.1135  0.5323 -0.6972
   83MOL   C17428218   7.836   5.900   4.395  0.2535 -0.1754  0.1223
   83MOL   C17528219   7.819   5.758   4.383  0.1027  0.0181 -0.5894
   83MOL   C17628220   7.690   5.711   4.359 -0.4575  0.5456 -1.4754
   83MOL   C17728221   7.580   5.799   4.334  0.1841 -0.1551 -0.3169
   83MOL   C17828222   7.605   5.934   4.336  0.2738 -0.4571  0.2864
   83MOL   C17928223   7.728   5.991   4.358 -0.0810 -0.2580 -0.1678
   83MOL   O18028224   8.074   5.894   4.335  0.2235 -0.3743  0.2205
   83MOL   H18128225   7.954   5.987   4.629  0.3881  1.3235 -0.2641
   83MOL   H18228226   0.038   5.985   4.583  1.0421 -2.0632 -0.2636
   83MOL   H18328227   7.976   6.064   4.403 -2.4685  0.3460 -1.7889
   83MOL   H18428228   7.905   5.699   4.409 -0.4697  0.4881  2.6569
   83MOL   H18528229   7.685   5.605   4.339 -0.1394  0.0051  1.1609
   83MOL   H18628230   7.489   5.770   4.284  0.0171  0.6251 -0.4633
   83MOL   H18728231   7.521   6.002   4.322  0.0637 -0.8750 -0.5269
   83MOL   H18828232   7.731   6.099   4.368 -2.2249 -0.0610 -1.3081
   83MOL   C18928233   8.069   5.920   4.197 -0.6636 -0.4020 -0.0583
   83MOL   C19028234   0.092   5.831   4.126 -1.4469  0.1045 -0.2162
   83MOL   C19128235   0.074   5.680   4.145 -0.7424  0.6568 -0.6144
   83MOL   C19228236   0.191   5.597   4.133  0.3747 -0.6352  0.3016
   83MOL   C19328237   0.187   5.457   4.148  0.1987  0.1138 -0.4022
   83MOL   C19428238   0.058   5.405   4.164 -0.2479  0.7367  0.0909
   83MOL   C19528239   8.021   5.484   4.171  0.3024  0.2211 -0.6978
   83MOL   C19628240   8.035   5.622   4.165  0.3966 -0.4849  0.4839
   83MOL   O19728241   0.224   5.878   4.168  0.0352 -0.2643  0.0764
   83MOL   H19828242   7.969   5.896   4.160 -0.2255 -0.2447 -1.3829
   83MOL   H19928243   0.012   6.025   4.177  3.0747 -0.8790  1.3928
   83MOL   H20028244   0.083   5.855   4.020  0.2698  1.9020  0.0025
   83MOL   H20128245   0.287   5.646   4.124  0.6854 -1.0972  1.0747
   83MOL   H20228246   0.279   5.400   4.145 -0.1013 -0.4226  0.3368
   83MOL   H20328247   0.042   5.299   4.180  0.0983  0.9661  2.1375
   83MOL   H20428248   7.926   5.435   4.180  0.9471 -1.0391 -0.6051
   83MOL   H20528249   7.949   5.687   4.174  1.6649  1.1788  0.9379
   83MOL   C20628250   0.301   5.926   4.060 -0.3000 -0.5903 -0.3546
   83MOL   C20728251   0.440   5.960   4.125  0.4939 -0.4495 -0.4437
   83MOL   C20828252   0.510   5.842   4.197  0.4418 -0.0841 -0.8414
   83MOL   C20928253   0.632   5.794   4.147 -0.6417  0.2086 -0.2566
   83MOL   C21028254   0.707   5.699   4.217  0.0103  0.3482  0.7774
   83MOL   C21128255   0.657   5.649   4.340  0.2442  0.1104  0.2623
   83MOL   C21228256   0.541   5.699   4.396  0.2985  0.0826  0.4790
   83MOL   C21328257   0.464   5.786   4.313  0.2672 -0.4789 -0.6113
   83MOL   O21428258   0.414   6.068   4.215  0.1823  0.7350  0.4412
   83MOL   H21528259   0.312   5.852   3.981 -1.9869 -0.0047 -1.1760
   83MOL   H21628260   0.252   6.017   4.023  0.6603  0.3383  0.6414
   83MOL   H21728261   0.514   5.994   4.053  0.1711  1.8294  0.2729
   83MOL   H21828262   0.679   5.816   4.053  1.5659 -0.8756  0.5485
   83MOL   H21928263   0.801   5.657   4.184  0.1845  0.5055  1.0770
   83MOL   H22028264   0.715   5.577   4.395  1.4537 -1.0736 -2.4580
   83MOL   H22128265   0.496   5.667   4.489  0.9134 -1.3873  0.2912
   83MOL   H22228266   0.371   5.811   4.363  0.5248 -0.3436 -0.1974
   83MOL   C22328267   0.522   6.162   4.238 -0.1619 -0.1144 -0.0243
   83MOL   C22428268   0.442   6.280   4.302  0.0841  0.0808 -0.2572
   83MOL   C22528269   0.532   6.375   4.377  0.4230  0.4710 -0.0201
   83MOL   C22628270   0.531   6.373   4.519  0.2225 -0.3973  0.0808
   83MOL   C22728271   0.605   6.457   4.594 -0.6466 -0.1377  0.3680
   83MOL   C22828272   0.689   6.552   4.529  0.0311 -0.1422  0.5431
   83MOL   C22928273   0.697   6.560   4.389 -0.2833  0.1357  0.5850
   83MOL   C23028274   0.613   6.475   4.316 -0.2500 -0.2221  0.1548
   83MOL   O23128275   0.378   6.357   4.193 -0.1728 -0.0793 -0.3497
   83MOL   H23228276   0.579   6.112   4.316  1.4894 -0.7647 -1.6181
   83MOL   H23328277   0.583   6.188   4.152 -0.7660 -1.5861 -0.9317
   83MOL   H23428278   0.364   6.247   4.371 -1.2365  0.3792 -1.5854
   83MOL   H23528279   0.476   6.294   4.568 -0.4870 -0.3233 -0.5762
   83MOL   H23628280   0.619   6.444   4.700 -0.3358 -1.5448  0.1657
   83MOL   H23728281   0.749   6.619   4.588  0.5442 -0.8247  0.8056
   83MOL   H23828282   0.756   6.638   4.343  0.3661  0.0631  1.3015
   83MOL   H23928283   0.605   6.475   4.209  1.7965  0.3196 -0.0188
   83MOL   C24028284   0.253   6.306   4.147  0.4934  0.0613  0.5977
   83MOL   C24128285   0.165   6.423   4.097 -0.4477 -0.0782  0.0135
   83MOL   C24228286   0.036   6.377   4.023 -0.2323  0.5390 -0.1350
   83MOL   C24328287   0.027   6.402   3.885  0.3103  0.1908 -0.3099
   83MOL   C24428288   7.992   6.349   3.815 -0.0360  0.1151  0.4642
   83MOL   C24528289   7.897   6.277   3.884  0.2341  0.3453  0.0761
   83MOL   C24628290   7.908   6.261   4.025  0.6630 -0.0284  0.5030
   83MOL   C24728291   8.022   6.307   4.097 -0.0188  0.3275 -0.2109
   83MOL   O24828292   0.133   6.505   4.213  0.0529 -0.1134 -0.4713
   83MOL   H24928293   0.282   6.241   4.065 -1.6243 -2.1730  1.5666
   83MOL   H25028294   0.205   6.249   4.226 -1.9462  1.2414  0.0411
   83MOL   H25128295   0.212   6.489   4.024  0.4982 -1.2377 -0.4389
   83MOL   H25228296   0.090   6.475   3.836 -0.6320  0.7195 -0.7604
   83MOL   H25328297   7.979   6.359   3.708  1.0693  1.9508  0.4759
   83MOL   H25428298   7.808   6.248   3.832  0.5557 -1.2531  0.3937
   83MOL   H25528299   7.826   6.219   4.081 -0.0971  0.7355 -0.0158
   83MOL   H25628300   8.022   6.281   4.202  0.5876  1.3952  0.0543
   83MOL   C25728301   0.067   6.632   4.194  0.2809  0.3249  1.1432
   83MOL   C25828302   8.067   6.668   4.321  0.4396 -0.2354 -0.4315
   83MOL   C25928303   8.030   6.547   4.396 -0.0736 -0.5029 -0.7249
   83MOL   C26028304   7.898   6.499   4.376 -0.1399 -0.5674 -0.3480
   83MOL   C26128305   7.856   6.382   4.447  0.6375  0.2687  0.1967
   83MOL   C26228306   7.941   6.315   4.536 -0.1780  0.3294  0.5865
   83MOL   C26328307   8.072   6.364   4.552 -0.1223 -0.3677 -0.1631
   83MOL   C26428308   0.034   6.477   4.482  0.2722 -1.0919 -0.0933
   83MOL   O26528309   7.947   6.747   4.283 -0.6310 -0.2332 -0.0231
   83MOL   H26628310   8.068   6.617   4.120  0.5945 -2.3996  1.3254
   83MOL   H26728311   0.140   6.704   4.156  1.5675 -2.7263 -2.5611
   83MOL   H26828312   0.039   6.736   4.389  0.9190 -1.1282  0.1014
   83MOL   H26928313   7.829   6.552   4.312  0.2503 -0.1302 -0.4080
   83MOL   H27028314   7.752   6.353   4.443 -0.0272  2.1004  2.4341
   83MOL   H27128315   7.914   6.227   4.592 -2.9717  1.7088  1.4837
   83MOL   H27228316   0.054   6.308   4.619  0.0985 -0.5289 -0.5018
   83MOL   H27328317   0.137   6.505   4.499 -0.2978 -0.4487  2.5286
   83MOL   C27428318   7.890   6.823   4.387  0.0801 -0.3739  0.4878
   83MOL   C27528319   7.794   6.934   4.334 -0.2063 -0.2918  0.1963
   83MOL   C27628320   7.780   7.046   4.437 -0.2043 -0.2103  0.6435
   83MOL   C27728321   7.834   7.177   4.418  0.2319  0.5042  0.1777
   83MOL   C27828322   7.795   7.281   4.506  0.0914  0.1804 -0.2799
   83MOL   C27928323   7.720   7.257   4.625 -0.1773 -0.2408 -0.4856
   83MOL   C28028324   7.669   7.128   4.643 -0.3965  0.2695  0.4817
   83MOL   C28128325   7.692   7.020   4.550 -0.1745 -0.2512  0.4685
   83MOL   O28228326   7.665   6.869   4.307 -0.2083  0.2187 -0.3762
   83MOL   H28328327   7.854   6.750   4.459  0.8045 -1.5591 -0.3377
   83MOL   H28428328   7.968   6.884   4.434 -0.9545  1.3787 -0.0231
   83MOL   H28528329   7.832   6.986   4.247  1.8087  0.2763  1.4007
   83MOL   H28628330   7.893   7.193   4.329  2.8157  0.1707  1.7797
   83MOL   H28728331   7.840   7.378   4.495  1.1682  0.1649  3.2965
   83MOL   H28828332   7.681   7.338   4.686 -0.6345  0.0903 -1.2035
   83MOL   H28928333   7.600   7.110   4.725  2.1554 -1.9350  2.2159
   83MOL   H29028334   7.640   6.926   4.563 -0.3146 -0.4838 -1.6911
   83MOL   C29128335   7.584   6.948   4.220 -0.1052  0.1443 -0.7328
   83MOL   C29228336   7.491   6.867   4.127  0.3729  0.3939 -0.3040
   83MOL   C29328337   7.571   6.763   4.040 -0.0558  0.2103 -1.0194
   83MOL   C29428338   7.577   6.786   3.904  0.0201  0.1395  0.3700
   83MOL   C29528339   7.653   6.700   3.815 -0.8301 -0.0666  0.3315
   83MOL   C29628340   7.727   6.589   3.872 -0.1604  0.1050  0.1663
   83MOL   C29728341   7.724   6.570   4.011 -0.4208  0.8146  0.7566
   83MOL   C29828342   7.654   6.659   4.096 -0.6438 -0.3155  0.2982
   83MOL   O29928343   7.380   6.804   4.184  0.7661  0.0395  0.3012
   83MOL   H30028344   7.648   7.020   4.168  0.4050 -0.6837 -1.2610
   83MOL   H30128345   7.529   7.018   4.283  0.4240  0.8045 -0.9881
   83MOL   H30228346   7.448   6.939   4.057  1.9819 -0.2387 -1.9818
   83MOL   H30328347   7.517   6.863   3.858 -1.5422 -1.0546  0.3558
   83MOL   H30428348   7.650   6.705   3.707 -0.3894 -2.2290  0.1990
   83MOL   H30528349   7.781   6.516   3.814 -1.6403 -1.0424  0.2372
   83MOL   H30628350   7.779   6.489   4.056 -1.0805 -0.9881 -1.5534
   83MOL   H30728351   7.652   6.640   4.202 -0.1752  0.6169  0.4797
   83MOL   C30828352   7.267   6.880   4.227 -0.3302 -0.1738  0.4384
   83MOL   C30928353   7.149   6.787   4.254 -0.3987  0.1207 -0.4028
   83MOL   C31028354   7.022   6.862   4.290 -1.0956 -0.1376 -0.3485
   83MOL   C31128355   6.946   6.925   4.184 -0.0855  0.6973 -0.3621
   83MOL   C31228356   6.825   6.991   4.211  0.1332  0.5692 -0.1176
   83MOL   C31328357   6.773   6.995   4.343  0.0569  0.0698 -0.3691
   83MOL   C31428358   6.850   6.929   4.441  0.6448  0.2497 -1.2533
   83MOL   C31528359   6.973   6.868   4.423 -0.7731  0.3634 -0.1480
   83MOL   O31628360   7.127   6.716   4.130  0.0554 -0.1582 -0.2778
   83MOL   H31728361   7.241   6.949   4.147  3.8317 -0.3017 -1.1456
   83MOL   H31828362   7.290   6.938   4.317 -1.5863 -0.8654  1.2114
   83MOL   H31928363   7.167   6.719   4.337 -0.1896  0.7252  0.0553
   83MOL   H32028364   6.981   6.928   4.082  0.0777  3.2704 -0.2571
   83MOL   H32128365   6.772   7.040   4.131  0.4896  2.0307  0.5170
   83MOL   H32228366   6.676   7.034   4.369  0.0523 -0.5384  0.5665
   83MOL   H32328367   6.814   6.925   4.543  1.7686 -0.2551 -0.8682
   83MOL   H32428368   7.018   6.807   4.500 -1.3146  1.7549  1.3070
   83MOL   C32528369   7.104   6.581   4.154 -0.3995 -0.1231 -0.4878
   83MOL   C32628370   7.062   6.494   4.027  0.2075  0.1806 -0.3734
   83MOL   C32728371   7.154   6.485   3.904  0.4132 -0.5758 -0.4640
   83MOL   C32828372   7.301   6.492   3.911 -0.1526 -0.6198  0.3327
   83MOL   C32928373   7.383   6.491   3.793 -0.5190  0.3978  0.3556
   83MOL   C33028374   7.317   6.480   3.669  0.2965  0.4564  0.2372
   83MOL   C33128375   7.176   6.480   3.658 -0.0055 -0.3457  0.1396
   83MOL   C33228376   7.099   6.469   3.777 -0.4999 -0.1572 -0.1491
   83MOL   O33328377   7.015   6.361   4.061  0.4065 -0.9939 -0.0325
   83MOL   H33428378   7.033   6.566   4.236  0.6117 -1.2316  0.2186
   83MOL   H33528379   7.199   6.549   4.198 -0.2125 -0.7533 -1.3310
   83MOL   H33628380   6.974   6.542   3.984  0.0727 -1.6745 -2.2334
   83MOL   H33728381   7.339   6.521   4.007  1.5289  4.0772 -1.6310
   83MOL   H33828382   7.491   6.491   3.795 -0.5337  0.8403  1.3967
   83MOL   H33928383   7.380   6.476   3.582 -0.3265 -3.1230 -0.1285
   83MOL   H34028384   7.130   6.457   3.563 -0.0481 -0.5964  0.2217
   83MOL   H34128385   6.992   6.453   3.765 -0.5317  0.8553 -1.2865
   83MOL   H34228386   7.007   6.311   3.980  0.4603 -0.4138 -0.3953
   84MOL     C128387   2.147   6.322   5.406  0.5114  0.6805  0.0893
   84MOL     C228388   2.154   6.190   5.318  0.4944  0.5591  0.4781
   84MOL     C328389   2.208   6.067   5.389  0.1874 -0.8487  0.4717
   84MOL     C428390   2.165   6.041   5.516  0.2178  0.2305 -0.8670
   84MOL     C528391   2.204   5.925   5.587 -0.0865  0.1845 -0.1675
   84MOL     C628392   2.292   5.837   5.524 -0.3614  0.1205  0.4454
   84MOL     C728393   2.332   5.859   5.393 -0.0316  0.3294 -0.2659
   84MOL     C828394   2.299   5.979   5.326 -0.0731  0.1174 -0.1056
   84MOL     O928395   2.183   6.201   5.183 -0.1728 -0.3915 -0.4671
   84MOL    H1028396   2.100   6.404   5.352  1.8995 -0.5997 -3.1855
   84MOL    H1128397   2.100   6.303   5.503  0.0734 -2.1179 -0.6396
   84MOL    H1228398   2.048   6.163   5.321  0.8103 -0.8637 -0.8044
   84MOL    H1328399   2.109   6.112   5.575 -0.0219  0.7967 -1.7668
   84MOL    H1428400   2.178   5.904   5.689  0.3588 -0.4053 -0.1700
   84MOL    H1528401   2.320   5.743   5.569  0.0933 -0.3872 -0.8663
   84MOL    H1628402   2.397   5.799   5.331 -1.0352 -2.0566  0.9179
   84MOL    H1728403   2.337   5.990   5.226  1.3294 -0.4668  0.3492
   84MOL    H1828404   2.252   6.344   5.421  0.2536 -0.2883  3.8545
   84MOL    C1928405   2.285   6.291   5.143 -0.2492  0.7997 -0.2581
   84MOL    C2028406   2.349   6.227   5.017  0.6976  0.1619 -0.6778
   84MOL    C2128407   2.465   6.314   4.968  0.1611 -0.2259  0.3626
   84MOL    C2228408   2.437   6.441   4.899  0.4781  0.8695 -0.1931
   84MOL    C2328409   2.545   6.524   4.866 -0.0036  0.3909 -0.1629
   84MOL    C2428410   2.679   6.482   4.885 -0.9190  0.9830 -0.3599
   84MOL    C2528411   2.700   6.366   4.967 -0.7193 -0.0060 -0.0223
   84MOL    C2628412   2.594   6.287   5.009 -0.1679 -0.2023 -0.5586
   84MOL    O2728413   2.252   6.212   4.914  0.2907  0.2718  0.0007
   84MOL    H2828414   2.252   6.393   5.122  0.4348  1.2839  0.9525
   84MOL    H2928415   2.355   6.286   5.226  1.5636  0.0422 -1.7967
   84MOL    H3028416   2.386   6.132   5.058 -0.8675  0.2521  1.0192
   84MOL    H3128417   2.335   6.464   4.874 -0.3793 -1.7788  0.7482
   84MOL    H3228418   2.520   6.617   4.818 -1.4058  0.3064  0.3770
   84MOL    H3328419   2.752   6.548   4.840 -0.3899  1.3241  0.9704
   84MOL    H3428420   2.802   6.337   4.986 -0.8213 -0.4959 -0.2151
   84MOL    H3528421   2.626   6.195   5.054 -3.8837 -1.4959 -0.3690
   84MOL    C3628422   2.219   6.080   4.893  0.2537 -0.2403  0.0572
   84MOL    C3728423   2.128   6.067   4.770  0.3177  0.5578  0.3744
   84MOL    C3828424   2.064   5.926   4.752 -0.1946  0.2835 -0.1316
   84MOL    C3928425   1.935   5.918   4.814  0.3652 -0.0612  0.0800
   84MOL    C4028426   1.857   5.809   4.799 -0.5037 -0.4457  0.1097
   84MOL    C4128427   1.903   5.702   4.728  0.1131 -0.6509 -0.1272
   84MOL    C4228428   2.022   5.707   4.659 -0.4319  0.0408  0.2179
   84MOL    C4328429   2.111   5.820   4.673 -0.2011 -0.1024  0.0420
   84MOL    O4428430   2.208   6.088   4.658 -0.4608  0.0668 -0.0216
   84MOL    H4528431   2.302   6.012   4.877  1.4706  1.1207  0.4459
   84MOL    H4628432   2.158   6.048   4.978 -1.2366  1.5299 -0.3086
   84MOL    H4728433   2.053   6.145   4.762 -0.1099 -0.0838 -2.2161
   84MOL    H4828434   1.893   6.001   4.868 -0.4273  0.0140 -0.6404
   84MOL    H4928435   1.767   5.797   4.858 -0.0492  2.3174  1.4321
   84MOL    H5028436   1.844   5.612   4.721  1.9017 -1.7453 -1.8968
   84MOL    H5128437   2.048   5.623   4.597  0.2692 -0.8119  1.6351
   84MOL    H5228438   2.196   5.833   4.609  1.6777  0.6155  2.6071
   84MOL    C5328439   2.262   6.221   4.628  0.6677 -0.3450  0.1019
   84MOL    C5428440   2.305   6.225   4.482 -0.6645  0.1363  0.4824
   84MOL    C5528441   2.400   6.113   4.428 -0.1070  0.7166  0.6247
   84MOL    C5628442   2.415   6.093   4.292  0.6333  0.2420  0.1023
   84MOL    C5728443   2.508   6.002   4.240  0.2398 -0.9061  0.7775
   84MOL    C5828444   2.590   5.932   4.329 -0.0553  0.4884  0.0920
   84MOL    C5928445   2.586   5.955   4.461  0.0578 -0.4941 -0.0296
   84MOL    C6028446   2.491   6.047   4.514  0.3030 -0.8357  0.6508
   84MOL    O6128447   2.205   6.262   4.389  0.1601 -0.0310 -0.3504
   84MOL    H6228448   2.183   6.291   4.655  0.0892 -1.3302  1.0057
   84MOL    H6328449   2.347   6.236   4.696 -0.2376  0.8123  1.0035
   84MOL    H6428450   2.375   6.306   4.461 -0.7646  0.0229 -0.2827
   84MOL    H6528451   2.353   6.150   4.225 -2.3266 -2.0284  0.7953
   84MOL    H6628452   2.515   5.959   4.141  0.3724 -0.3086  0.5259
   84MOL    H6728453   2.670   5.871   4.290  0.1859  1.0951 -0.3664
   84MOL    H6828454   2.655   5.900   4.523  2.9929  0.9983 -1.8870
   84MOL    H6928455   2.492   6.057   4.622 -0.2381 -0.0475  0.5809
   84MOL    C7028456   2.092   6.172   4.390 -0.0059  0.2326  0.4411
   84MOL    C7128457   1.984   6.204   4.284  0.2121 -0.5748 -0.0516
   84MOL    C7228458   2.047   6.227   4.150 -0.0262  0.6424  0.4247
   84MOL    C7328459   2.098   6.354   4.117  0.7755  0.4654  0.0941
   84MOL    C7428460   2.174   6.377   4.000 -0.7279  0.3628 -0.8056
   84MOL    C7528461   2.182   6.273   3.908 -0.1440 -0.4340  0.2104
   84MOL    C7628462   2.118   6.149   3.933  0.3704 -0.1532  1.0823
   84MOL    C7728463   2.054   6.123   4.055  0.0526  0.7868 -0.3613
   84MOL    O7828464   1.905   6.314   4.341  0.0946  0.4315 -0.4712
   84MOL    H7928465   2.120   6.068   4.376 -1.7626 -0.2079  0.0616
   84MOL    H8028466   2.044   6.177   4.488 -0.5490 -0.2318  0.2010
   84MOL    H8128467   1.920   6.116   4.277 -1.2714  0.2381  2.6268
   84MOL    H8228468   2.077   6.439   4.180 -1.5364  0.7642 -1.0309
   84MOL    H8328469   2.215   6.474   3.976 -0.3149  0.6828  1.1573
   84MOL    H8428470   2.231   6.290   3.813  3.1352 -0.0330  1.9173
   84MOL    H8528471   2.121   6.077   3.853 -2.1662  1.0077 -0.1375
   84MOL    H8628472   2.009   6.025   4.069  0.1034  1.0104  1.5033
   84MOL    C8728473   1.796   6.257   4.415  0.6945 -0.0826  0.1489
   84MOL    C8828474   1.727   6.370   4.497 -0.6167  0.4254 -0.3734
   84MOL    C8928475   1.817   6.409   4.610 -0.5710 -0.8414 -0.6506
   84MOL    C9028476   1.815   6.326   4.719  0.0572  0.6188 -0.3188
   84MOL    C9128477   1.913   6.353   4.823 -0.7426 -0.1027 -0.6611
   84MOL    C9228478   2.000   6.463   4.823 -0.0540 -0.8776  0.6248
   84MOL    C9328479   1.985   6.555   4.717  0.3249  0.3707  0.3119
   84MOL    C9428480   1.896   6.529   4.608  0.1357 -0.1813  0.6397
   84MOL    O9528481   1.598   6.314   4.541  0.3130  0.6775 -0.1847
   84MOL    H9628482   1.819   6.173   4.481 -1.9476  0.4219  1.8228
   84MOL    H9728483   1.734   6.213   4.337  1.0889 -0.4898  0.0596
   84MOL    H9828484   1.702   6.452   4.429 -1.5749  0.2892 -0.1890
   84MOL    H9928485   1.750   6.240   4.713  0.2198  0.2746  2.3272
   84MOL   H10028486   1.912   6.278   4.901  0.9487 -0.1699 -0.7014
   84MOL   H10128487   2.066   6.474   4.908 -3.0702 -1.4323  3.1202
   84MOL   H10228488   2.052   6.641   4.713  2.8082 -1.4608  1.3604
   84MOL   H10328489   1.901   6.605   4.531 -1.9855 -0.2454  0.4157
   84MOL   C10428490   1.507   6.401   4.607  0.5244  0.2274  0.6378
   84MOL   C10528491   1.362   6.348   4.589  0.0104  0.3747  0.6994
   84MOL   C10628492   1.268   6.403   4.691  0.7384  0.6501 -0.0868
   84MOL   C10728493   1.238   6.541   4.690 -0.4505 -0.3838 -0.0577
   84MOL   C10828494   1.153   6.601   4.786 -0.0118 -0.6002  0.2346
   84MOL   C10928495   1.090   6.521   4.887 -0.1278 -0.6796  0.7855
   84MOL   C11028496   1.112   6.382   4.882 -0.2995  0.2385 -0.1193
   84MOL   C11128497   1.199   6.324   4.782  0.2587 -0.2618  0.5559
   84MOL   O11228498   1.320   6.379   4.456  0.0837  0.2102 -0.3779
   84MOL   H11328499   1.537   6.406   4.712  1.4605 -0.2249  0.3904
   84MOL   H11428500   1.509   6.506   4.579  3.1602  0.1250  0.3370
   84MOL   H11528501   1.353   6.240   4.596  1.5819  0.1084 -0.7565
   84MOL   H11628502   1.296   6.612   4.633  1.1926 -0.3549  1.6053
   84MOL   H11728503   1.143   6.708   4.795 -1.8739 -0.9350  2.3911
   84MOL   H11828504   1.026   6.561   4.965  1.0962 -0.0247  1.4825
   84MOL   H11928505   1.051   6.320   4.946 -0.3130 -0.0135 -0.3778
   84MOL   H12028506   1.216   6.217   4.780 -0.2786 -0.3443  0.4214
   84MOL   C12128507   1.201   6.313   4.405  0.0599  0.3628 -0.1396
   84MOL   C12228508   1.227   6.165   4.376 -0.1224 -0.1184  0.2775
   84MOL   C12328509   1.106   6.081   4.406  0.0718  0.3348 -0.2424
   84MOL   C12428510   1.107   6.023   4.536  0.6109 -0.0145 -0.6493
   84MOL   C12528511   0.989   5.963   4.579  0.1876 -0.3385 -0.8741
   84MOL   C12628512   0.878   5.961   4.495 -0.0979 -0.2305 -0.1042
   84MOL   C12728513   0.875   6.024   4.373  0.5832 -0.5239 -0.4707
   84MOL   C12828514   0.996   6.079   4.319  0.6993  0.0008  0.3967
   84MOL   O12928515   1.243   6.148   4.231  0.4137  0.7068  0.0670
   84MOL   H13028516   1.165   6.355   4.311  2.3282 -2.7514 -2.5304
   84MOL   H13128517   1.127   6.332   4.482  0.2927  1.7619 -0.2530
   84MOL   H13228518   1.317   6.125   4.423  0.0349  1.1047  1.0485
   84MOL   H13328519   1.194   6.014   4.598 -0.4298  0.2972  0.8831
   84MOL   H13428520   0.989   5.908   4.673  0.9470  0.7024 -0.2558
   84MOL   H13528521   0.789   5.906   4.521 -0.3432 -0.2902 -1.0465
   84MOL   H13628522   0.788   6.031   4.309  1.2617  4.8589 -1.0492
   84MOL   H13728523   0.997   6.122   4.219  3.0040  1.3266  0.9662
   84MOL   C13828524   1.321   6.032   4.205  0.1839  0.3046 -0.6033
   84MOL   C13928525   1.316   6.012   4.051 -0.1428  0.2146 -0.3095
   84MOL   C14028526   1.180   5.970   3.998 -0.6145 -0.2793 -0.5479
   84MOL   C14128527   1.124   5.842   4.015  0.7143  0.3009  0.9409
   84MOL   C14228528   1.003   5.806   3.960  0.4596 -0.2063  0.4960
   84MOL   C14328529   0.936   5.893   3.875 -0.4394 -0.2600 -0.0009
   84MOL   C14428530   0.990   6.022   3.848  0.3315 -0.0376  0.2837
   84MOL   C14528531   1.111   6.058   3.914 -0.0923  0.2564  0.1367
   84MOL   O14628532   1.373   6.115   3.977 -0.2586 -0.1488 -0.0814
   84MOL   H14728533   1.275   5.945   4.251  2.9555 -1.2579 -0.6584
   84MOL   H14828534   1.423   6.046   4.242  0.6295  0.7085 -1.9728
   84MOL   H14928535   1.372   5.921   4.032 -2.4911 -0.7923 -2.7725
   84MOL   H15028536   1.187   5.772   4.069 -0.3277 -2.8392 -1.7629
   84MOL   H15128537   0.974   5.702   3.961 -0.9404  0.1424 -1.4478
   84MOL   H15228538   0.844   5.858   3.831  0.6914 -1.3485 -1.5185
   84MOL   H15328539   0.930   6.089   3.788 -1.6582 -0.9100  1.2591
   84MOL   H15428540   1.146   6.157   3.891  0.2176 -0.3774 -2.2738
   84MOL   C15528541   1.420   6.085   3.846 -0.1559  0.5720 -0.4941
   84MOL   C15628542   1.564   6.033   3.837 -0.4355 -0.5285 -1.0563
   84MOL   C15728543   1.660   6.149   3.846 -0.1581 -0.3765 -0.3783
   84MOL   C15828544   1.680   6.211   3.971  0.5620 -0.3268  0.4132
   84MOL   C15928545   1.768   6.317   3.987 -0.0389 -0.1831 -0.1409
   84MOL   C16028546   1.854   6.350   3.875 -0.1303 -0.0605  0.1877
   84MOL   C16128547   1.834   6.285   3.752  0.4965 -0.3030 -0.3592
   84MOL   C16228548   1.737   6.189   3.735  0.2998 -0.0962  0.2181
   84MOL   O16328549   1.590   5.940   3.942 -0.1571  0.0947 -0.2428
   84MOL   H16428550   1.413   6.175   3.785  0.1488  2.5256  2.2591
   84MOL   H16528551   1.354   6.010   3.802 -1.3527  1.5216 -0.3335
   84MOL   H16628552   1.575   5.974   3.746  1.7496 -0.5338 -0.8195
   84MOL   H16728553   1.622   6.186   4.059 -0.1470 -1.7485 -0.4343
   84MOL   H16828554   1.783   6.366   4.081  1.9447  0.8636 -0.9813
   84MOL   H16928555   1.919   6.435   3.889  0.6979 -0.8684  1.3821
   84MOL   H17028556   1.885   6.304   3.659  1.3310  0.3102  0.2140
   84MOL   H17128557   1.720   6.133   3.644  0.6545  1.0189 -0.5490
   84MOL   C17228558   1.718   5.882   3.933  0.3183 -0.4366  0.3316
   84MOL   C17328559   1.722   5.753   4.025 -0.0815 -0.0570 -0.5133
   84MOL   C17428560   1.707   5.790   4.171 -0.3634  0.1804 -0.2773
   84MOL   C17528561   1.579   5.779   4.227 -0.0834  0.4043 -0.7014
   84MOL   C17628562   1.562   5.823   4.361 -0.2739 -0.8782 -0.7013
   84MOL   C17728563   1.670   5.877   4.434 -0.1470  0.3309  0.6188
   84MOL   C17828564   1.797   5.878   4.376 -0.6912  0.0583 -0.3064
   84MOL   C17928565   1.818   5.834   4.246  0.0413 -0.0200  0.5255
   84MOL   O18028566   1.848   5.690   4.009 -0.0060 -0.1099  0.3356
   84MOL   H18128567   1.729   5.849   3.830 -0.7027  0.8030 -0.1748
   84MOL   H18228568   1.793   5.951   3.972  1.0405 -0.2407 -1.3566
   84MOL   H18328569   1.637   5.694   3.989 -1.5038  1.2601  0.5917
   84MOL   H18428570   1.494   5.732   4.178  0.2272 -1.3420  0.3725
   84MOL   H18528571   1.463   5.829   4.404  0.2737 -1.0632  0.5854
   84MOL   H18628572   1.664   5.912   4.536  2.2651  0.8319  0.6109
   84MOL   H18728573   1.885   5.911   4.430  0.4052 -2.3024 -0.5799
   84MOL   H18828574   1.916   5.834   4.201 -0.1016  0.3813  0.2126
   84MOL   C18928575   1.844   5.550   4.034 -0.1533 -0.4378  0.3858
   84MOL   C19028576   1.990   5.493   4.024 -0.3724  0.2121  0.0168
   84MOL   C19128577   2.078   5.561   4.126 -0.6057  0.1882  0.0431
   84MOL   C19228578   2.144   5.685   4.104 -0.7270  0.6509  0.4204
   84MOL   C19328579   2.232   5.732   4.203 -0.0149  0.3657  0.1865
   84MOL   C19428580   2.257   5.664   4.327  0.9694 -0.3184 -0.3528
   84MOL   C19528581   2.192   5.543   4.346  0.0235  0.4716 -0.2569
   84MOL   C19628582   2.100   5.497   4.248  0.2812  0.0236 -0.3452
   84MOL   O19728583   2.050   5.530   3.902 -0.8294 -0.0149  0.5153
   84MOL   H19828584   1.809   5.525   4.134 -0.8740 -0.5425  0.1047
   84MOL   H19928585   1.776   5.514   3.958  1.5647  0.9342 -1.8688
   84MOL   H20028586   1.985   5.384   4.023  0.5324  0.1303 -3.0474
   84MOL   H20128587   2.120   5.743   4.016 -1.8791 -1.1268 -0.4721
   84MOL   H20228588   2.277   5.829   4.193  0.5457 -0.2116 -3.5100
   84MOL   H20328589   2.317   5.708   4.405  0.2245 -0.4418  0.2939
   84MOL   H20428590   2.192   5.487   4.439  1.0104 -0.5716 -0.8774
   84MOL   H20528591   2.048   5.404   4.267 -2.3452  1.3961 -0.5989
   84MOL   C20628592   2.030   5.437   3.795  0.2071  0.1884  0.3487
   84MOL   C20728593   2.099   5.503   3.672  0.2897  0.6342  0.4295
   84MOL   C20828594   2.018   5.616   3.620 -0.0003  0.1835 -0.6150
   84MOL   C20928595   2.019   5.739   3.683  0.4070 -0.5514 -0.1541
   84MOL   C21028596   1.933   5.842   3.637 -1.5447 -0.2042 -0.1014
   84MOL   C21128597   1.854   5.815   3.529 -0.5540 -0.6958  0.1425
   84MOL   C21228598   1.855   5.693   3.458  0.0753 -0.0468  0.6169
   84MOL   C21328599   1.949   5.595   3.500  0.2549 -0.7692 -0.6691
   84MOL   O21428600   2.140   5.422   3.562  0.2280 -0.8919  0.3424
   84MOL   H21528601   2.067   5.340   3.826 -0.1488 -0.4678 -1.2240
   84MOL   H21628602   1.922   5.425   3.783  0.3174  0.2537 -0.7359
   84MOL   H21728603   2.192   5.542   3.713 -0.8377  2.7411  1.0280
   84MOL   H21828604   2.071   5.764   3.775 -1.3556  0.0053  0.7280
   84MOL   H21928605   1.918   5.936   3.689 -1.0306  0.0101 -0.3333
   84MOL   H22028606   1.788   5.895   3.495 -2.0883 -1.3222  1.5648
   84MOL   H22128607   1.793   5.667   3.374  0.8458 -0.0054  0.0335
   84MOL   H22228608   1.949   5.496   3.457 -1.3732 -0.5483 -1.1857
   84MOL   C22328609   2.218   5.310   3.587 -0.1284  0.2216  0.0356
   84MOL   C22428610   2.237   5.218   3.456  0.7481 -0.8962 -0.1794
   84MOL   C22528611   2.118   5.243   3.363 -0.5237 -0.0764  0.7665
   84MOL   C22628612   2.029   5.136   3.329 -0.0444  0.2107 -0.8237
   84MOL   C22728613   1.919   5.150   3.244 -0.1968  0.8656 -0.2385
   84MOL   C22828614   1.901   5.275   3.176  0.3296 -0.1839 -0.0584
   84MOL   C22928615   1.991   5.378   3.194 -0.6063  0.3587  0.1799
   84MOL   C23028616   2.104   5.362   3.284 -0.7831  0.0250  0.4631
   84MOL   O23128617   2.361   5.265   3.395  0.0835 -0.0787 -0.5891
   84MOL   H23228618   2.317   5.330   3.628  0.1730  1.7039 -1.3683
   84MOL   H23328619   2.168   5.244   3.658  0.0429  0.8274  0.7274
   84MOL   H23428620   2.254   5.119   3.498  3.2754  0.0806  1.2544
   84MOL   H23528621   2.048   5.035   3.363 -0.0485  0.3929 -0.2685
   84MOL   H23628622   1.859   5.065   3.218  3.2946 -2.6884  2.7909
   84MOL   H23728623   1.818   5.288   3.108  1.9715 -2.1738 -2.5289
   84MOL   H23828624   1.985   5.471   3.140  1.7525 -0.5574 -1.7504
   84MOL   H23928625   2.181   5.436   3.298  0.9472 -1.6212 -0.0951
   84MOL   C24028626   2.394   5.183   3.286 -0.1178  0.0682  0.5515
   84MOL   C24128627   2.540   5.210   3.243  0.0246  0.0772 -0.0244
   84MOL   C24228628   2.608   5.110   3.148  0.0267 -0.2874 -0.1296
   84MOL   C24328629   2.670   4.987   3.195  0.0335  0.5740  0.0139
   84MOL   C24428630   2.724   4.892   3.104  0.3411 -0.2465  0.1820
   84MOL   C24528631   2.714   4.912   2.961  0.0002  0.0488 -0.5024
   84MOL   C24628632   2.657   5.036   2.917 -1.0858  0.0710 -0.1046
   84MOL   C24728633   2.599   5.125   3.005  0.3654 -0.3934  0.2268
   84MOL   O24828634   2.538   5.337   3.183 -0.0356  0.2347  0.1501
   84MOL   H24928635   2.377   5.078   3.311  3.9293 -0.9935 -0.8351
   84MOL   H25028636   2.324   5.211   3.208 -0.6586  1.2539  1.4557
   84MOL   H25128637   2.597   5.208   3.336  1.7145  0.4665 -1.0214
   84MOL   H25228638   2.671   4.969   3.302 -0.9977 -0.4846 -0.1312
   84MOL   H25328639   2.770   4.802   3.142  0.2544 -0.4068 -0.0841
   84MOL   H25428640   2.752   4.839   2.891  0.0972 -0.4899  0.1123
   84MOL   H25528641   2.641   5.057   2.812 -0.8363 -0.4331 -0.2415
   84MOL   H25628642   2.542   5.208   2.967 -1.3157 -0.6427  2.1131
   84MOL   C25728643   2.599   5.439   3.256 -0.5486 -1.0546 -0.1162
   84MOL   C25828644   2.591   5.576   3.180 -0.3505 -0.0966 -0.2243
   84MOL   C25928645   2.659   5.568   3.043  0.2962 -0.3983 -0.1204
   84MOL   C26028646   2.590   5.501   2.937  0.0668  0.0038 -0.2289
   84MOL   C26128647   2.634   5.507   2.803  0.1775  0.3525 -0.2343
   84MOL   C26228648   2.751   5.582   2.774  0.3488 -0.2115  0.2227
   84MOL   C26328649   2.831   5.630   2.880  0.7547 -0.5137  0.7458
   84MOL   C26428650   2.784   5.632   3.015 -0.2951 -0.0995  0.8385
   84MOL   O26528651   2.656   5.670   3.262 -0.5433 -0.2324 -0.3473
   84MOL   H26628652   2.702   5.406   3.272 -0.1500 -0.5308 -1.4638
   84MOL   H26728653   2.558   5.450   3.356  1.4944  0.8030  0.5762
   84MOL   H26828654   2.485   5.601   3.180 -0.6219 -1.2045 -0.3253
   84MOL   H26928655   2.496   5.447   2.944  0.8901 -1.2155  1.9457
   84MOL   H27028656   2.575   5.457   2.728  0.5580 -0.4491 -0.0092
   84MOL   H27128657   2.786   5.587   2.672  0.6568 -1.6865  0.2442
   84MOL   H27228658   2.918   5.688   2.856  0.5340 -1.4114 -2.3930
   84MOL   H27328659   2.831   5.685   3.096 -1.7762  2.5288  0.0401
   84MOL   C27428660   2.580   5.761   3.343  0.0402  0.1180  0.4667
   84MOL   C27528661   2.667   5.843   3.445  0.1399  0.5036 -0.0580
   84MOL   C27628662   2.761   5.937   3.369  0.6741  0.4131 -0.4442
   84MOL   C27728663   2.714   6.056   3.305  0.2021 -0.0251 -0.1658
   84MOL   C27828664   2.805   6.144   3.237 -0.5401  0.6095 -0.9603
   84MOL   C27928665   2.944   6.109   3.249  0.6202  0.6461 -0.1550
   84MOL   C28028666   2.992   5.989   3.310  0.6249 -0.6599  0.2029
   84MOL   C28128667   2.896   5.903   3.369  0.3633 -0.0032  0.3567
   84MOL   O28228668   2.734   5.755   3.532 -0.0440 -0.1571 -0.1283
   84MOL   H28328669   2.537   5.835   3.276  1.9609  0.0469 -0.8675
   84MOL   H28428670   2.494   5.712   3.388  0.2422 -1.6130 -0.9785
   84MOL   H28528671   2.606   5.917   3.497  0.7386  0.4784  0.6783
   84MOL   H28628672   2.607   6.071   3.293  0.3279  0.3330 -0.8933
   84MOL   H28728673   2.756   6.219   3.176  0.6603  2.6595  0.5531
   84MOL   H28828674   3.024   6.158   3.194  1.5965  0.3859  1.0213
   84MOL   H28928675   3.097   5.965   3.305  0.4055 -2.0192  1.8953
   84MOL   H29028676   2.924   5.810   3.417 -0.3120 -0.1402  0.4903
   84MOL   C29128677   2.643   5.684   3.620 -0.3320  0.7955 -0.2475
   84MOL   C29228678   2.735   5.648   3.739  0.2940 -0.3561 -0.0660
   84MOL   C29328679   2.657   5.602   3.854  0.4780 -0.2649  0.1245
   84MOL   C29428680   2.560   5.507   3.826 -0.0159 -0.5056  0.0396
   84MOL   C29528681   2.458   5.483   3.924  0.5630  0.3643 -0.6525
   84MOL   C29628682   2.471   5.545   4.046 -0.1441 -0.2306 -0.1501
   84MOL   C29728683   2.567   5.641   4.069  0.2537  0.6858  0.0571
   84MOL   C29828684   2.660   5.669   3.972 -0.4625 -0.0601  0.6873
   84MOL   O29928685   2.823   5.547   3.690  0.3078  0.4342  0.1935
   84MOL   H30028686   2.599   5.600   3.566 -1.3472  1.1615 -0.0065
   84MOL   H30128687   2.563   5.749   3.655 -1.3099  0.4282 -1.7621
   84MOL   H30228688   2.792   5.738   3.761 -0.2247  0.0298 -0.2770
   84MOL   H30328689   2.560   5.449   3.735 -1.2299 -0.0446 -0.2684
   84MOL   H30428690   2.388   5.402   3.909 -0.5127  1.5309 -2.0919
   84MOL   H30528691   2.407   5.524   4.130  1.9791 -0.9818  1.2877
   84MOL   H30628692   2.574   5.692   4.164 -0.2901 -1.8140  1.4679
   84MOL   H30728693   2.730   5.748   3.997  0.8413 -0.6997 -0.8539
   84MOL   C30828694   2.924   5.505   3.780  0.2131 -0.4222 -0.1763
   84MOL   C30928695   2.987   5.379   3.719 -0.0736  0.2256 -0.3321
   84MOL   C31028696   3.115   5.340   3.786  0.2354 -0.4503  0.0881
   84MOL   C31128697   3.121   5.307   3.925  0.3072  0.3455  0.1387
   84MOL   C31228698   3.244   5.271   3.983  0.2844  0.3445  0.3235
   84MOL   C31328699   3.352   5.247   3.903 -0.6262 -0.4625  0.2574
   84MOL   C31428700   3.347   5.278   3.763  0.2445 -0.8458  0.1734
   84MOL   C31528701   3.230   5.333   3.701 -0.7123 -0.6162 -0.2472
   84MOL   O31628702   2.879   5.291   3.750 -0.5581 -0.1174  0.1627
   84MOL   H31728703   2.879   5.481   3.877  0.6630 -0.7227 -0.0409
   84MOL   H31828704   2.998   5.586   3.789 -0.8502  0.4005  1.5161
   84MOL   H31928705   3.005   5.378   3.611  1.9576 -3.6663 -0.0825
   84MOL   H32028706   3.028   5.302   3.979  0.5826 -1.7817  0.4411
   84MOL   H32128707   3.244   5.255   4.090 -1.4828  1.8942  0.5662
   84MOL   H32228708   3.447   5.218   3.945  0.6765  1.4271 -1.2765
   84MOL   H32328709   3.433   5.277   3.697  0.8847  0.3145  0.9712
   84MOL   H32428710   3.227   5.361   3.597 -1.3491 -0.6644 -0.2448
   84MOL   C32528711   2.879   5.168   3.679  0.0108  0.8135 -0.5921
   84MOL   C32628712   2.736   5.117   3.711 -0.2714  0.2577 -0.0521
   84MOL   C32728713   2.698   4.970   3.681  0.2245 -0.9192  0.4088
   84MOL   C32828714   2.753   4.864   3.753  0.3586 -0.3673  0.1832
   84MOL   C32928715   2.721   4.729   3.718  0.2164 -0.1274  0.5181
   84MOL   C33028716   2.658   4.706   3.591  0.4075 -0.1379 -0.5044
   84MOL   C33128717   2.616   4.814   3.512 -0.3040 -0.3276  0.5981
   84MOL   C33228718   2.633   4.946   3.556 -0.5125 -0.7033 -0.4152
   84MOL   O33328719   2.718   5.146   3.845 -0.4796  0.5778  0.5556
   84MOL   H33428720   2.956   5.101   3.717 -0.4641  0.8548  0.4799
   84MOL   H33528721   2.886   5.186   3.572  0.6798  1.2657 -0.4751
   84MOL   H33628722   2.668   5.168   3.643 -0.3551  1.1994  0.7398
   84MOL   H33728723   2.814   4.892   3.837 -0.2700 -1.6129  1.0767
   84MOL   H33828724   2.760   4.650   3.781  0.8415 -1.3217 -1.3173
   84MOL   H33928725   2.638   4.605   3.558 -1.1962 -0.3828  1.1578
   84MOL   H34028726   2.574   4.789   3.416  3.2306  0.5592 -1.2508
   84MOL   H34128727   2.581   5.023   3.501 -0.4550  2.3779  3.5918
   84MOL   H34228728   2.767   5.226   3.859  0.3061  0.0415  0.8666
   85MOL     C128729   3.873   0.467   4.989  0.5554  0.1413 -1.0280
   85MOL     C228730   3.904   0.344   5.072 -0.3418  0.6438 -0.9626
   85MOL     C328731   3.887   0.375   5.223  0.4906 -0.1820  0.2030
   85MOL     C428732   3.761   0.388   5.284  0.0965 -0.0704  0.2954
   85MOL     C528733   3.752   0.436   5.412  0.1817 -0.5532  0.5744
   85MOL     C628734   3.870   0.453   5.485 -0.1158  0.4771 -0.1400
   85MOL     C728735   3.996   0.442   5.429  0.4534  0.2582  0.3988
   85MOL     C828736   4.005   0.387   5.299 -0.5689 -0.3130  0.6083
   85MOL     O928737   4.034   0.302   5.034  0.4678  0.3073 -0.0222
   85MOL    H1028738   3.880   0.449   4.882  2.9701 -0.5418 -0.7731
   85MOL    H1128739   3.773   0.507   5.006  1.2822  1.5199  0.0773
   85MOL    H1228740   3.834   0.263   5.052 -1.0986  0.5318  1.9033
   85MOL    H1328741   3.672   0.362   5.230  0.1889 -1.2109  0.6933
   85MOL    H1428742   3.651   0.447   5.449 -1.0182  1.4165 -3.0857
   85MOL    H1528743   3.856   0.479   5.589 -3.2157 -2.4852  0.2819
   85MOL    H1628744   4.083   0.469   5.487  1.2522  2.7279 -1.8565
   85MOL    H1728745   4.100   0.367   5.252 -1.1208 -2.5322  0.3975
   85MOL    H1828746   3.939   0.542   5.032  0.7778 -0.4478 -0.3218
   85MOL    C1928747   4.056   0.163   5.058  0.3409 -0.3813  0.5712
   85MOL    C2028748   4.188   0.113   4.987 -0.4513 -1.0221 -0.3805
   85MOL    C2128749   4.182   0.110   4.835  0.5659  0.7748  0.0442
   85MOL    C2228750   4.211   0.238   4.778 -0.5800  0.0922  0.1972
   85MOL    C2328751   4.193   0.257   4.639  0.6052  0.5279  0.4056
   85MOL    C2428752   4.158   0.142   4.556  0.4063 -1.1878  0.3618
   85MOL    C2528753   4.146   0.011   4.617  0.6634  0.5143  0.3679
   85MOL    C2628754   4.156   8.077   4.755  0.3995 -0.3332 -0.4980
   85MOL    O2728755   4.206   8.071   5.040 -0.5000 -0.2503  0.5053
   85MOL    H2828756   4.070   0.152   5.165  1.1049 -1.0029  0.4081
   85MOL    H2928757   3.962   0.117   5.026  0.1651  1.6038 -1.9357
   85MOL    H3028758   4.258   0.188   5.026 -3.0058  0.1581  2.1758
   85MOL    H3128759   4.255   0.321   4.830  0.1851 -0.3491  0.2664
   85MOL    H3228760   4.221   0.356   4.604  0.8015  0.5515  0.6255
   85MOL    H3328761   4.147   0.159   4.450  0.5600  0.8011  0.6456
   85MOL    H3428762   4.128   8.004   4.556  0.8201  1.7984 -1.5859
   85MOL    H3528763   4.136   7.980   4.798 -3.1688  0.9419  0.9937
   85MOL    C3628764   4.338   8.008   5.035  0.0380  0.1048 -0.1939
   85MOL    C3728765   4.437   8.055   5.144 -0.1973  0.0041  0.6997
   85MOL    C3828766   4.390   8.006   5.278 -0.0031  0.0079  0.2190
   85MOL    C3928767   4.449   7.902   5.345  0.1671 -0.2050  0.0143
   85MOL    C4028768   4.408   7.867   5.477  0.6580  0.0695 -0.4234
   85MOL    C4128769   4.300   7.932   5.539 -0.0755 -0.5403 -0.0872
   85MOL    C4228770   4.229   8.034   5.466 -0.3420 -0.7021 -0.8085
   85MOL    C4328771   4.276   8.072   5.340  0.0227  0.6329  0.7284
   85MOL    O4428772   4.453   0.114   5.147  0.3186 -0.7295  0.2921
   85MOL    H4528773   4.336   7.900   5.027 -0.6190  0.2964 -3.3404
   85MOL    H4628774   4.388   8.031   4.941  0.0215  1.2361  0.0573
   85MOL    H4728775   4.531   8.001   5.128  0.4094  1.5637 -1.2329
   85MOL    H4828776   4.530   7.846   5.300 -0.3604 -1.4281  0.5611
   85MOL    H4928777   4.453   7.796   5.545 -0.7022  0.3429  0.7775
   85MOL    H5028778   4.271   7.901   5.638  0.2511 -2.5143 -0.5875
   85MOL    H5128779   4.143   0.006   5.506  1.7214  2.4381 -0.3573
   85MOL    H5228780   4.231   0.077   5.290 -1.0398 -0.2988  0.0843
   85MOL    C5328781   4.549   0.161   5.059 -0.7288  0.0485  0.2129
   85MOL    C5428782   4.587   0.305   5.087 -0.1339  0.3510 -0.0299
   85MOL    C5528783   4.645   0.304   5.226 -0.7538  0.2555  0.0364
   85MOL    C5628784   4.787   0.277   5.242  0.9595 -0.6528  0.2415
   85MOL    C5728785   4.843   0.293   5.368 -0.0426  0.9135 -0.0447
   85MOL    C5828786   4.758   0.330   5.478  0.4991  0.3454 -0.1667
   85MOL    C5928787   4.625   0.368   5.455  0.4395 -1.1133  0.0448
   85MOL    C6028788   4.564   0.354   5.332  0.3776  0.2581 -0.5224
   85MOL    O6128789   4.670   0.362   4.986 -0.4158  0.0226 -0.0459
   85MOL    H6228790   4.634   0.095   5.075 -0.3076  0.9008  1.6065
   85MOL    H6328791   4.510   0.160   4.957 -0.3143  0.4470  0.0458
   85MOL    H6428792   4.501   0.373   5.091  0.2831  0.8432  0.5400
   85MOL    H6528793   4.849   0.249   5.158 -1.4671 -3.4468 -0.6892
   85MOL    H6628794   4.948   0.280   5.391 -0.1411  0.6939  0.2790
   85MOL    H6728795   4.803   0.344   5.575  2.3361  0.4741 -0.9970
   85MOL    H6828796   4.558   0.394   5.536  0.5884 -0.3320 -0.0860
   85MOL    H6928797   4.459   0.374   5.315  0.9835  1.9532 -2.4061
   85MOL    C7028798   4.598   0.422   4.887 -0.3957  1.1136  0.5469
   85MOL    C7128799   4.670   0.410   4.751 -0.3726 -0.1887 -1.7334
   85MOL    C7228800   4.591   0.484   4.643  0.1187  0.5578  0.7676
   85MOL    C7328801   4.602   0.625   4.632 -0.3558 -0.5487 -0.0599
   85MOL    C7428802   4.520   0.697   4.547  0.0673 -0.1046  0.6143
   85MOL    C7528803   4.443   0.629   4.449 -0.3866  0.3751  0.0734
   85MOL    C7628804   4.437   0.490   4.458 -0.3132 -0.0667 -0.2659
   85MOL    C7728805   4.508   0.413   4.558 -0.0739 -0.4395  0.3201
   85MOL    O7828806   4.674   0.270   4.734  0.2015 -0.3608 -0.3479
   85MOL    H7928807   4.493   0.395   4.875  0.0406 -0.0135 -0.9008
   85MOL    H8028808   4.596   0.529   4.906 -0.4607  1.1661  0.2430
   85MOL    H8128809   4.766   0.460   4.751 -1.3550  1.7504 -1.4884
   85MOL    H8228810   4.664   0.686   4.697 -0.4651  0.2190 -0.6725
   85MOL    H8328811   4.523   0.804   4.541  1.0333 -0.1483  0.0807
   85MOL    H8428812   4.400   0.687   4.369 -0.3052  1.0439  0.5093
   85MOL    H8528813   4.378   0.439   4.384 -0.1220 -0.6783 -0.0010
   85MOL    H8628814   4.504   0.305   4.561  0.4337 -0.6172 -3.2845
   85MOL    C8728815   4.806   0.214   4.753 -0.7772  0.5631 -0.6647
   85MOL    C8828816   4.786   0.062   4.752 -0.7336  0.1121 -0.6224
   85MOL    C8928817   4.922   8.068   4.791  0.3995  1.1557 -0.3558
   85MOL    C9028818   4.963   8.080   4.925  0.1380 -0.3540  0.1973
   85MOL    C9128819   5.071   8.005   4.974 -0.4031  0.5088  0.5708
   85MOL    C9228820   5.164   7.951   4.879  0.5171 -0.0344 -0.2293
   85MOL    C9328821   5.122   7.940   4.742  0.4118  0.3917  0.4725
   85MOL    C9428822   5.002   7.998   4.697  0.2549 -0.3177 -0.2340
   85MOL    O9528823   4.739   0.024   4.627 -0.1197  0.4502 -0.5190
   85MOL    H9628824   4.856   0.239   4.847  1.8638  0.2905 -1.9269
   85MOL    H9728825   4.867   0.256   4.673  1.1830  0.1162  0.5402
   85MOL    H9828826   4.711   0.036   4.827  0.7799 -2.4181  0.0834
   85MOL    H9928827   4.905   0.041   5.007 -0.0538 -0.8682  0.3254
   85MOL   H10028828   5.104   8.017   5.076 -0.6283 -1.1557  0.8548
   85MOL   H10128829   5.260   7.914   4.911 -0.5841 -2.0808  0.8376
   85MOL   H10228830   5.188   7.889   4.674 -0.1771  0.0442  0.1595
   85MOL   H10328831   4.974   7.978   4.595 -2.1026  0.4301  0.2342
   85MOL   C10428832   4.623   8.033   4.608  0.0216  0.0205  0.6629
   85MOL   C10528833   4.603   7.992   4.456  0.2780  0.2983  0.1519
   85MOL   C10628834   4.572   0.037   4.376 -1.0193  0.2348  1.1809
   85MOL   C10728835   4.681   0.105   4.320 -0.9321  0.1425  0.0034
   85MOL   C10828836   4.657   0.216   4.238 -0.0332  0.2801 -0.1812
   85MOL   C10928837   4.527   0.255   4.206 -0.1456 -0.1153 -0.5493
   85MOL   C11028838   4.418   0.191   4.269 -0.0681  0.1840 -0.2018
   85MOL   C11128839   4.444   0.090   4.361  0.3027 -0.0073  0.3736
   85MOL   O11228840   4.718   7.911   4.416 -0.2682  0.7225 -0.1288
   85MOL   H11328841   4.621   7.934   4.652 -0.3217 -0.1495  0.2579
   85MOL   H11428842   4.532   0.004   4.639  0.7251  1.3893  0.5234
   85MOL   H11528843   4.509   7.936   4.449  1.0770 -1.0355 -0.2861
   85MOL   H11628844   4.783   0.073   4.335 -0.7813  0.5599 -0.1298
   85MOL   H11728845   4.745   0.269   4.207  1.4357 -0.7185  2.0852
   85MOL   H11828846   4.503   0.329   4.131 -1.2644 -0.4231 -0.5045
   85MOL   H11928847   4.319   0.230   4.254 -0.5439 -0.0158  2.2840
   85MOL   H12028848   4.358   0.030   4.388 -0.3098  0.0469 -1.3722
   85MOL   C12128849   4.699   7.841   4.297  0.4647  0.3206 -0.5586
   85MOL   C12228850   4.829   7.752   4.269  0.5563 -1.0812 -0.0118
   85MOL   C12328851   4.787   7.638   4.178 -0.2737  0.2919 -0.6777
   85MOL   C12428852   4.695   7.544   4.228  0.4644  0.2694  0.2027
   85MOL   C12528853   4.628   7.452   4.147 -0.2746  0.3654  0.2085
   85MOL   C12628854   4.666   7.439   4.011 -0.3686 -0.2230 -0.1680
   85MOL   C12728855   4.769   7.523   3.957  0.4841  0.3318 -0.1896
   85MOL   C12828856   4.833   7.622   4.041  0.0286  0.1969 -0.3032
   85MOL   O12928857   4.932   7.826   4.201 -0.3002 -0.0675  0.1339
   85MOL   H13028858   4.675   7.893   4.205  1.0107  1.5079 -0.0470
   85MOL   H13128859   4.610   7.780   4.307  0.7675 -0.3843 -1.9944
   85MOL   H13228860   4.870   7.703   4.357  1.2775 -0.8365 -0.2084
   85MOL   H13328861   4.665   7.552   4.331 -1.2351  0.8824 -0.3338
   85MOL   H13428862   4.557   7.384   4.192 -3.0251  1.1782 -2.7386
   85MOL   H13528863   4.625   7.362   3.948  0.0989 -0.1740 -0.5369
   85MOL   H13628864   4.793   7.523   3.852  0.0677  0.2917 -0.2823
   85MOL   H13728865   4.905   7.691   3.999  1.3937 -0.0952  1.4980
   85MOL   C13828866   5.026   7.878   4.284  1.0227  0.1423  0.3358
   85MOL   C13928867   5.164   7.885   4.206 -0.3308  0.2243  0.2192
   85MOL   C14028868   5.266   7.991   4.260  0.6426 -0.1169 -0.2265
   85MOL   C14128869   5.294   8.000   4.401  0.0864  0.3576  0.0391
   85MOL   C14228870   5.405   8.079   4.444 -0.7526 -0.4679 -0.3203
   85MOL   C14328871   5.480   0.073   4.348  0.3206  0.8746 -0.6290
   85MOL   C14428872   5.450   0.063   4.210  0.1299 -0.1298  0.7630
   85MOL   C14528873   5.345   8.057   4.169 -0.2090 -0.4135  0.0045
   85MOL   O14628874   5.231   7.760   4.232  0.6724 -0.3288 -0.5216
   85MOL   H14728875   5.038   7.822   4.377  0.0132  0.6368  0.7728
   85MOL   H14828876   4.999   7.978   4.317 -1.8310 -0.7397  0.8149
   85MOL   H14928877   5.147   7.910   4.101 -0.5193 -1.7559 -0.2323
   85MOL   H15028878   5.245   7.931   4.468  1.3357  1.3392  1.9951
   85MOL   H15128879   5.432   8.078   4.549 -0.0276 -1.9892 -0.5057
   85MOL   H15228880   5.566   0.133   4.372  1.8635 -1.4239 -0.1858
   85MOL   H15328881   5.510   0.108   4.131 -1.7704 -0.3798 -0.8701
   85MOL   H15428882   5.329   8.043   4.063  4.5348 -2.3094 -0.5716
   85MOL   C15528883   5.170   7.648   4.171  0.1776  0.0641 -0.0063
   85MOL   C15628884   5.260   7.522   4.172 -0.4877  0.1083  0.0923
   85MOL   C15728885   5.188   7.390   4.169 -0.9377  0.2132 -0.7688
   85MOL   C15828886   5.227   7.287   4.079 -0.8178 -0.3640 -0.1881
   85MOL   C15928887   5.154   7.165   4.068  0.3731 -0.3731 -0.2000
   85MOL   C16028888   5.042   7.142   4.153 -0.0255 -0.1292 -0.4353
   85MOL   C16128889   5.003   7.241   4.238 -0.2688  1.1098 -0.4148
   85MOL   C16228890   5.074   7.364   4.251  0.0531 -0.0671  0.6905
   85MOL   O16328891   5.347   7.539   4.062 -0.3138  0.1318 -0.2402
   85MOL   H16428892   5.134   7.665   4.069  0.0110 -0.0957  0.0256
   85MOL   H16528893   5.082   7.624   4.231  1.0949 -2.3594  0.4285
   85MOL   H16628894   5.317   7.504   4.263  0.0863 -3.0889 -0.8540
   85MOL   H16728895   5.317   7.299   4.020 -0.9515 -2.2182 -0.8004
   85MOL   H16828896   5.191   7.082   4.009 -2.6010 -0.6155 -1.8490
   85MOL   H16928897   5.005   7.040   4.151  0.7952 -0.4483  0.6508
   85MOL   H17028898   4.919   7.230   4.304  0.6103  2.2500  0.9089
   85MOL   H17128899   5.043   7.429   4.332 -0.9839  1.2665 -0.7569
   85MOL   C17228900   5.462   7.623   4.090  0.3625  0.4787  0.4456
   85MOL   C17328901   5.593   7.554   4.093 -0.0468 -0.2345 -0.2121
   85MOL   C17428902   5.594   7.431   4.189 -1.3155 -0.1763  0.0190
   85MOL   C17528903   5.564   7.306   4.135  0.4040  0.1381  0.1220
   85MOL   C17628904   5.532   7.198   4.215  0.6477 -0.0776 -0.8439
   85MOL   C17728905   5.534   7.220   4.359 -0.8505 -1.4742  0.2558
   85MOL   C17828906   5.570   7.349   4.412 -1.0973 -0.2873  0.0476
   85MOL   C17928907   5.598   7.450   4.326 -0.3499  0.6499 -0.6838
   85MOL   O18028908   5.694   7.643   4.127  0.2719 -0.5928  0.4580
   85MOL   H18128909   5.476   7.705   4.019 -1.0481 -0.9491 -1.5558
   85MOL   H18228910   5.448   7.679   4.182 -0.7217  0.0567  0.5478
   85MOL   H18328911   5.612   7.514   3.994  2.7579  0.2514  0.0804
   85MOL   H18428912   5.563   7.289   4.028  2.7513  2.7986 -0.3980
   85MOL   H18528913   5.497   7.105   4.172  1.0322 -1.4092  1.6510
   85MOL   H18628914   5.503   7.143   4.428 -0.7553 -2.1995 -0.5087
   85MOL   H18728915   5.572   7.373   4.518  0.3111  1.4526 -0.3579
   85MOL   H18828916   5.608   7.552   4.359  1.4773  0.2699 -0.0002
   85MOL   C18928917   5.823   7.606   4.087  0.4098 -0.6469  0.6134
   85MOL   C19028918   5.920   7.713   4.134 -0.6375  0.5638  0.0306
   85MOL   C19128919   6.056   7.670   4.080 -0.6967  0.2990 -0.5510
   85MOL   C19228920   6.088   7.678   3.944  1.1696  0.2644 -0.1335
   85MOL   C19328921   6.212   7.648   3.895 -0.6829  0.5088 -0.0820
   85MOL   C19428922   6.310   7.596   3.987  0.2877  1.3638  0.1328
   85MOL   C19528923   6.283   7.588   4.125  0.2824  0.4453  0.2240
   85MOL   C19628924   6.156   7.623   4.173  0.1928  0.0815 -0.1280
   85MOL   O19728925   5.923   7.715   4.275 -0.2817  0.0779 -0.4001
   85MOL   H19828926   5.857   7.516   4.139  1.4536  0.0370  1.1339
   85MOL   H19928927   5.833   7.596   3.979 -1.6293  2.0424  0.1470
   85MOL   H20028928   5.895   7.812   4.095 -0.0276 -0.2571 -2.5935
   85MOL   H20128929   6.016   7.708   3.869  2.2309 -1.4192 -1.8851
   85MOL   H20228930   6.232   7.651   3.789 -1.2907 -1.0181 -0.2521
   85MOL   H20328931   6.409   7.566   3.956  0.1241  1.4232 -0.4647
   85MOL   H20428932   6.354   7.546   4.196 -0.9207 -2.1021 -0.0304
   85MOL   H20528933   6.133   7.620   4.279 -1.5824  1.0487 -0.4679
   85MOL   C20628934   5.832   7.803   4.334  0.0546  0.2409 -0.3159
   85MOL   C20728935   5.846   7.772   4.483 -0.5458 -0.0247 -0.1346
   85MOL   C20828936   5.747   7.834   4.582  0.1059 -0.1377  0.3934
   85MOL   C20928937   5.765   7.956   4.647 -0.5944 -0.4900  0.7389
   85MOL   C21028938   5.661   8.007   4.729 -0.3493 -0.0184  0.2524
   85MOL   C21128939   5.537   7.942   4.741 -0.0563 -0.5011 -0.8860
   85MOL   C21228940   5.522   7.820   4.673 -0.2757  0.2039 -0.3057
   85MOL   C21328941   5.627   7.771   4.594  0.3893 -0.3343 -0.2475
   85MOL   O21428942   5.977   7.816   4.509  0.1813  0.0947  0.1982
   85MOL   H21528943   5.862   7.904   4.309 -2.2009  0.7444 -1.1188
   85MOL   H21628944   5.728   7.788   4.304 -0.2499 -1.4875  1.4410
   85MOL   H21728945   5.843   7.663   4.481 -0.9754 -0.0377  1.1906
   85MOL   H21828946   5.850   8.020   4.627 -0.5252 -0.6679  0.4756
   85MOL   H21928947   5.677   0.027   4.767  1.1166  1.2352 -3.4249
   85MOL   H22028948   5.457   7.993   4.792  1.4074  1.1324 -0.2110
   85MOL   H22128949   5.421   7.781   4.678 -0.1671 -0.1151 -0.5479
   85MOL   H22228950   5.595   7.683   4.539  0.7095 -0.1939 -0.6571
   85MOL   C22328951   6.044   7.748   4.618 -0.4944  0.5604  0.3237
   85MOL   C22428952   6.172   7.819   4.666  0.2482  0.9135 -0.2512
   85MOL   C22528953   6.278   7.787   4.558  0.1514  0.1684  0.2220
   85MOL   C22628954   6.282   7.870   4.443  0.0821 -0.4168  0.6215
   85MOL   C22728955   6.376   7.844   4.350 -0.5837 -0.0725  0.4491
   85MOL   C22828956   6.466   7.740   4.366  0.2318 -0.2412  0.2371
   85MOL   C22928957   6.467   7.645   4.473  0.5326 -0.1076  0.1553
   85MOL   C23028958   6.366   7.670   4.567  0.0500  0.1331 -0.7107
   85MOL   O23128959   6.147   7.956   4.686 -0.1066 -0.1564 -0.8833
   85MOL   H23228960   5.969   7.750   4.697 -2.3109  0.1866 -1.3787
   85MOL   H23328961   6.068   7.644   4.597  0.9229  1.1068 -0.8687
   85MOL   H23428962   6.200   7.778   4.764  0.0754 -0.5678 -0.8069
   85MOL   H23528963   6.211   7.949   4.421 -0.4824 -0.9605  0.4954
   85MOL   H23628964   6.379   7.889   4.252  0.7559 -0.8815  0.1177
   85MOL   H23728965   6.528   7.720   4.279  0.7200  4.3128 -0.5857
   85MOL   H23828966   6.535   7.561   4.473  2.0994  1.0868 -2.6174
   85MOL   H23928967   6.350   7.613   4.657  0.8487  1.6365  0.4149
   85MOL   C24028968   6.263   8.023   4.735 -0.4195 -0.1738 -0.0231
   85MOL   C24128969   6.226   0.089   4.750 -0.0883  0.4778 -0.4288
   85MOL   C24228970   6.319   0.157   4.847 -0.8622  0.6768  0.4689
   85MOL   C24328971   6.291   0.167   4.984  0.7821  0.7203 -1.3209
   85MOL   C24428972   6.386   0.236   5.069  0.6885  0.2293 -0.2024
   85MOL   C24528973   6.505   0.289   5.016  0.6015  0.0598  0.9873
   85MOL   C24628974   6.527   0.279   4.882  0.1428  0.6464  0.6208
   85MOL   C24728975   6.439   0.204   4.794 -0.1659  0.0007 -0.6619
   85MOL   O24828976   6.228   0.137   4.615  0.6509  0.4669 -0.0645
   85MOL   H24928977   6.276   7.971   4.830 -1.0271 -0.6479 -0.1973
   85MOL   H25028978   6.348   8.006   4.668  1.1525 -0.6340  2.0274
   85MOL   H25128979   6.123   0.088   4.786 -0.1022 -1.5804 -0.4846
   85MOL   H25228980   6.199   0.133   5.028 -0.0696  1.2418 -2.6825
   85MOL   H25328981   6.366   0.251   5.174 -0.4795  0.0501 -0.3970
   85MOL   H25428982   6.572   0.348   5.077  0.1962  2.3132 -0.6834
   85MOL   H25528983   6.619   0.320   4.841 -0.1956  0.6667 -0.1255
   85MOL   H25628984   6.454   0.209   4.687 -0.6155 -1.3919 -0.7970
   85MOL   C25728985   6.101   0.167   4.554  0.4277  0.6948  0.1485
   85MOL   C25828986   6.046   0.302   4.606  0.1616 -0.4202  0.5885
   85MOL   C25928987   6.146   0.416   4.574  0.3848 -0.1638  0.3179
   85MOL   C26028988   6.251   0.456   4.655 -0.0696 -0.6650  0.1337
   85MOL   C26128989   6.348   0.555   4.621  0.8666 -0.5565 -0.4194
   85MOL   C26228990   6.330   0.623   4.500  0.1135 -0.5038 -1.0286
   85MOL   C26328991   6.216   0.595   4.421 -0.2275  0.3744 -0.1117
   85MOL   C26428992   6.129   0.483   4.450 -0.7220 -0.3664 -0.2816
   85MOL   O26528993   6.015   0.286   4.748 -0.0253  0.1894 -0.4690
   85MOL   H26628994   6.023   0.092   4.573  1.5178 -0.8804 -1.4015
   85MOL   H26728995   6.133   0.173   4.450  0.4067  1.4913  0.1890
   85MOL   H26828996   5.947   0.312   4.563  1.2101  2.9244 -1.2650
   85MOL   H26928997   6.265   0.412   4.752 -2.2356  1.1574  1.3323
   85MOL   H27028998   6.430   0.586   4.684 -0.7192  0.7742  1.0432
   85MOL   H27128999   6.397   0.703   4.469  0.5968 -0.4101  0.2205
   85MOL   H27229000   6.206   0.649   4.328  0.0112 -0.4767 -0.6379
   85MOL   H27329001   6.052   0.458   4.380 -1.3439  1.2130 -0.1962
   85MOL   C27429002   5.972   0.407   4.812  0.1310  0.0718 -0.7309
   85MOL   C27529003   5.943   0.380   4.964 -0.8734  0.0234 -0.4793
   85MOL   C27629004   5.817   0.292   4.970  0.2159  0.8843  0.5209
   85MOL   C27729005   5.830   0.155   4.995 -0.3916  0.3337  0.2259
   85MOL   C27829006   5.721   0.072   5.030  0.1033 -0.0140 -0.1903
   85MOL   C27929007   5.594   0.115   5.022  0.0341  0.9009  0.0972
   85MOL   C28029008   5.576   0.250   4.983  0.3881  1.0684 -0.5977
   85MOL   C28129009   5.685   0.343   4.960 -0.6542  0.2754  0.3383
   85MOL   O28229010   5.922   0.514   5.015 -0.3726  0.3490  0.6380
   85MOL   H28329011   6.052   0.480   4.808  0.6867 -0.4420  0.6769
   85MOL   H28429012   5.889   0.452   4.757 -0.2895  1.5654  1.0915
   85MOL   H28529013   6.029   0.323   4.999 -1.0721 -1.1613 -1.8792
   85MOL   H28629014   5.931   0.117   4.993  0.2328  1.7428  2.8173
   85MOL   H28729015   5.748   8.052   5.060  0.8931  0.5273  0.9503
   85MOL   H28829016   5.511   0.050   5.044 -0.3428  1.3725  0.0686
   85MOL   H28929017   5.474   0.284   4.972  0.6852  1.7508 -1.2754
   85MOL   H29029018   5.668   0.444   4.926 -1.0659  0.2169  0.3614
   85MOL   C29129019   5.916   0.514   5.158 -0.0989 -0.6007 -0.5190
   85MOL   C29229020   6.051   0.547   5.218 -0.8569 -0.0083  0.3315
   85MOL   C29329021   6.115   0.669   5.167  0.0638 -0.7009 -0.8427
   85MOL   C29429022   6.186   0.662   5.049  0.1691  0.3120  0.0445
   85MOL   C29529023   6.258   0.775   5.006  0.3496 -0.0537  0.4180
   85MOL   C29629024   6.251   0.900   5.072 -0.0816 -0.2852 -0.7767
   85MOL   C29729025   6.180   0.908   5.196  0.6225  0.3843  0.5446
   85MOL   C29829026   6.114   0.791   5.246 -0.0826  0.0442 -0.5129
   85MOL   O29929027   6.020   0.559   5.361  0.3654  0.3499  0.4852
   85MOL   H30029028   5.864   0.433   5.209 -0.7848  0.7761  1.0096
   85MOL   H30129029   5.853   0.600   5.177  1.5750  0.4207  0.5315
   85MOL   H30229030   6.123   0.468   5.197 -2.2023 -1.1129 -0.2847
   85MOL   H30329031   6.193   0.565   5.001  1.0649  0.5201 -0.2605
   85MOL   H30429032   6.305   0.754   4.911  0.7683 -1.3837  0.9137
   85MOL   H30529033   6.293   0.993   5.037 -0.8912 -0.3384 -1.9245
   85MOL   H30629034   6.175   0.993   5.263 -3.5367 -0.7348  1.7967
   85MOL   H30729035   6.068   0.797   5.343 -0.4563  0.9866 -0.7437
   85MOL   C30829036   6.099   0.476   5.443  0.0219  0.3821  0.5476
   85MOL   C30929037   6.045   0.502   5.589 -0.1415 -0.0461 -0.5311
   85MOL   C31029038   6.061   0.653   5.631 -0.3004  0.6632 -0.8497
   85MOL   C31129039   5.985   0.755   5.575  0.3636 -0.2238 -0.2850
   85MOL   C31229040   6.014   0.889   5.591  0.2082  0.1526 -0.1132
   85MOL   C31329041   6.130   0.926   5.662  0.4971  0.0635  0.1447
   85MOL   C31429042   6.201   0.822   5.729 -0.6636  0.2380 -0.4146
   85MOL   C31529043   6.160   0.690   5.724 -0.3540  0.4046 -0.8370
   85MOL   O31629044   5.909   0.455   5.586  0.0259  0.4026 -0.7106
   85MOL   H31729045   6.205   0.500   5.446  0.2696 -0.4245 -1.2993
   85MOL   H31829046   6.085   0.373   5.410  0.2168  0.0331  1.5449
   85MOL   H31929047   6.087   0.432   5.662 -2.0625 -0.5132  0.1534
   85MOL   H32029048   5.901   0.730   5.512 -0.5729  0.5685  0.6231
   85MOL   H32129049   5.958   0.966   5.540 -2.1227 -0.1367  1.9389
   85MOL   H32229050   6.159   1.029   5.675  0.9484 -0.3602  2.9200
   85MOL   H32329051   6.293   0.855   5.775 -1.9559  3.2955  0.0840
   85MOL   H32429052   6.223   0.613   5.764  0.5789  0.9569 -1.2340
   85MOL   C32529053   5.844   0.436   5.707 -0.5417 -0.2518 -0.3394
   85MOL   C32629054   5.693   0.401   5.696 -0.0723 -0.6339  0.0681
   85MOL   C32729055   5.685   0.263   5.626  0.1956  0.1454 -0.1757
   85MOL   C32829056   5.686   0.267   5.487  0.4471  0.1939  0.4150
   85MOL   C32929057   5.664   0.147   5.410  0.1311 -1.3073  0.1286
   85MOL   C33029058   5.645   0.024   5.480 -0.5106  0.5446  0.0592
   85MOL   C33129059   5.648   0.018   5.621  0.5233  0.8354 -0.1472
   85MOL   C33229060   5.661   0.137   5.694 -0.6579  0.1358 -0.1529
   85MOL   O33329061   5.630   0.390   5.825 -0.4941  0.2882  0.0006
   85MOL   H33429062   5.860   0.530   5.758  0.4508 -0.0175 -1.0577
   85MOL   H33529063   5.895   0.355   5.760  1.1294  0.9116 -0.1476
   85MOL   H33629064   5.633   0.470   5.638  1.0067  0.2650  0.0025
   85MOL   H33729065   5.703   0.360   5.436 -0.9081 -0.9518 -2.2274
   85MOL   H33829066   5.679   0.155   5.304  1.8744  0.3922  0.4472
   85MOL   H33929067   5.635   8.012   5.424 -2.4544  0.6735  0.1525
   85MOL   H34029068   5.632   8.003   5.668  1.6929  1.8559  2.3954
   85MOL   H34129069   5.670   0.127   5.801  1.3275  1.4481 -0.1794
   85MOL   H34229070   5.609   0.476   5.858 -1.0308 -0.3686  1.4216
   86MOL     C129071   3.710   6.718   4.354 -0.2129 -0.3169  0.3803
   86MOL     C229072   3.655   6.868   4.356  0.8705  0.3240 -0.3191
   86MOL     C329073   3.762   6.958   4.410 -0.3949 -0.0609  0.1226
   86MOL     C429074   3.742   7.028   4.533 -0.4839  0.0179 -0.2120
   86MOL     C529075   3.849   7.108   4.589  0.1600 -0.6886  0.6788
   86MOL     C629076   3.964   7.124   4.511 -0.5422 -0.0676  0.4608
   86MOL     C729077   3.994   7.052   4.392  0.6300  0.2445  0.2048
   86MOL     C829078   3.891   6.966   4.345  0.2763  0.6397  0.3620
   86MOL     O929079   3.543   6.869   4.435  0.1020 -0.1014 -0.2942
   86MOL    H1029080   3.790   6.710   4.281 -0.8350  0.9600 -0.4614
   86MOL    H1129081   3.740   6.687   4.454 -2.9685  0.0853  1.3832
   86MOL    H1229082   3.638   6.896   4.252 -2.0478 -0.0587  0.0103
   86MOL    H1329083   3.651   7.033   4.591 -0.2784 -2.0565  0.3203
   86MOL    H1429084   3.823   7.167   4.675  1.0261  0.5252  0.1271
   86MOL    H1529085   4.037   7.191   4.554  0.1121  0.0030 -0.7377
   86MOL    H1629086   4.091   7.045   4.345  1.2003  0.1548  1.3925
   86MOL    H1729087   3.914   6.911   4.255  0.3638  0.2858  0.6007
   86MOL    H1829088   3.632   6.649   4.320 -2.7724  2.4528  0.4065
   86MOL    C1929089   3.424   6.895   4.364 -0.7383 -0.4868  0.3455
   86MOL    C2029090   3.420   7.045   4.326 -0.0227 -0.5077 -0.5719
   86MOL    C2129091   3.271   7.081   4.299  0.2190  0.2944 -0.1546
   86MOL    C2229092   3.201   7.171   4.383  0.2312  0.0888 -0.1023
   86MOL    C2329093   3.067   7.215   4.352  0.2393 -0.5590 -0.5661
   86MOL    C2429094   3.011   7.166   4.227 -0.6137  0.0740 -0.1069
   86MOL    C2529095   3.079   7.074   4.148  0.1029 -0.4316  0.0125
   86MOL    C2629096   3.209   7.040   4.176 -0.4308 -0.5933 -0.5206
   86MOL    O2729097   3.488   7.061   4.202 -0.3547  0.0328 -0.2192
   86MOL    H2829098   3.421   6.830   4.277  0.0055  1.1422 -0.9122
   86MOL    H2929099   3.349   6.867   4.438 -1.7625  3.6791  1.0201
   86MOL    H3029100   3.448   7.109   4.409 -0.6652 -0.5538 -0.3129
   86MOL    H3129101   3.253   7.209   4.470  1.1136 -2.3659  0.4677
   86MOL    H3229102   3.009   7.287   4.408  0.3818 -1.6601  1.0447
   86MOL    H3329103   2.910   7.199   4.206 -0.2467  0.1710 -1.8039
   86MOL    H3429104   3.034   7.043   4.055  1.1494 -2.1505  0.0570
   86MOL    H3529105   3.260   6.981   4.102 -1.5310 -0.8857 -1.0622
   86MOL    C3629106   3.498   7.191   4.143  0.1532  0.4732  0.1086
   86MOL    C3729107   3.540   7.182   3.996 -0.1009 -0.5563 -0.1466
   86MOL    C3829108   3.579   7.321   3.934 -0.3169  0.2709  0.2914
   86MOL    C3929109   3.495   7.379   3.835  0.7223 -0.1469 -0.0153
   86MOL    C4029110   3.536   7.498   3.781  0.4919  0.1732  0.4456
   86MOL    C4129111   3.647   7.570   3.825 -1.0990  0.4858 -0.2651
   86MOL    C4229112   3.720   7.517   3.932 -0.7837  0.3978  0.7457
   86MOL    C4329113   3.684   7.393   3.986  0.1913  0.4579  0.1709
   86MOL    O4429114   3.439   7.125   3.910 -0.1711 -0.3937 -0.6080
   86MOL    H4529115   3.409   7.254   4.155 -1.6278 -1.2841 -3.1967
   86MOL    H4629116   3.579   7.238   4.199  1.5799  1.9895 -3.0888
   86MOL    H4729117   3.633   7.125   3.991 -0.1114 -0.7933  1.9453
   86MOL    H4829118   3.401   7.336   3.806  1.1595 -0.2068 -1.4049
   86MOL    H4929119   3.480   7.536   3.696  0.6423  4.3718  2.1118
   86MOL    H5029120   3.656   7.671   3.788 -1.2339  0.2877 -0.8321
   86MOL    H5129121   3.796   7.575   3.982 -0.4251  1.1506 -0.6403
   86MOL    H5229122   3.736   7.355   4.073  1.4178  0.2599 -0.6317
   86MOL    C5329123   3.475   7.015   3.831 -0.8939  0.3913  0.4573
   86MOL    C5429124   3.357   6.975   3.745 -0.5187  0.4849  0.1708
   86MOL    C5529125   3.313   7.086   3.652 -0.5460  0.3050  0.6318
   86MOL    C5629126   3.177   7.111   3.638 -0.2752  0.4666  0.4067
   86MOL    C5729127   3.131   7.204   3.541  0.1423 -0.5307 -0.1317
   86MOL    C5829128   3.221   7.279   3.460 -0.2535 -0.2374 -0.4075
   86MOL    C5929129   3.359   7.258   3.479 -0.5138 -0.5556  0.4138
   86MOL    C6029130   3.406   7.163   3.571 -0.0802 -0.3989  0.3591
   86MOL    O6129131   3.390   6.862   3.668 -0.3249 -0.3213 -0.0671
   86MOL    H6229132   3.557   7.039   3.764  0.2443 -1.7219  1.0700
   86MOL    H6329133   3.509   6.932   3.894  1.4746  0.1268 -1.1250
   86MOL    H6429134   3.280   6.954   3.820 -0.1802  5.6201  2.1523
   86MOL    H6529135   3.110   7.065   3.710  0.7831  1.7735  2.2474
   86MOL    H6629136   3.024   7.210   3.524  0.4189 -0.0545 -1.7761
   86MOL    H6729137   3.191   7.355   3.390 -0.7983 -0.9150 -0.9102
   86MOL    H6829138   3.422   7.320   3.418 -1.4562  0.5571  0.5437
   86MOL    H6929139   3.513   7.162   3.583 -0.2751  1.0042  2.4823
   86MOL    C7029140   3.280   6.777   3.666 -0.1249 -0.5631  0.8968
   86MOL    C7129141   3.300   6.653   3.582 -0.0694  0.1904  0.1569
   86MOL    C7229142   3.168   6.583   3.544 -0.1449 -0.1175 -0.6597
   86MOL    C7329143   3.137   6.556   3.413  0.1169  0.1460  0.8889
   86MOL    C7429144   3.028   6.470   3.383 -0.1001  0.1505  0.6962
   86MOL    C7529145   2.938   6.433   3.484 -0.4080  0.1905  0.5064
   86MOL    C7629146   2.958   6.476   3.614  0.4439 -0.1470 -0.0211
   86MOL    C7729147   3.081   6.538   3.647  0.3747 -0.1766 -0.3327
   86MOL    O7829148   3.399   6.564   3.628  0.3608  0.4554 -0.3407
   86MOL    H7929149   3.254   6.748   3.768 -0.4139 -1.1687  0.6508
   86MOL    H8029150   3.192   6.835   3.636  0.6294  1.3307  2.2564
   86MOL    H8129151   3.336   6.691   3.486 -1.6483 -1.5970 -1.2035
   86MOL    H8229152   3.210   6.589   3.341 -0.6291  0.0137  0.0667
   86MOL    H8329153   3.008   6.442   3.281  1.8902  0.4653  0.2028
   86MOL    H8429154   2.851   6.377   3.453  1.6091 -2.4710 -0.4589
   86MOL    H8529155   2.885   6.446   3.689  0.7580 -1.3077 -0.1696
   86MOL    H8629156   3.101   6.563   3.750  0.8142 -0.0493 -0.4494
   86MOL    C8729157   3.531   6.610   3.666  0.3135 -0.2382  0.0174
   86MOL    C8829158   3.629   6.486   3.659 -0.3407 -0.3072 -0.4255
   86MOL    C8929159   3.750   6.531   3.733 -0.8943 -0.2812 -0.6455
   86MOL    C9029160   3.870   6.557   3.664 -1.0333 -0.7023 -0.0491
   86MOL    C9129161   3.990   6.566   3.736 -0.3994 -0.6326 -0.0277
   86MOL    C9229162   3.988   6.551   3.881  0.0575  0.2098 -0.0519
   86MOL    C9329163   3.866   6.524   3.950  0.5141 -1.1146 -0.6734
   86MOL    C9429164   3.752   6.510   3.878  0.0109  0.6908  0.0550
   86MOL    O9529165   3.660   6.450   3.521  0.1396  0.0709 -0.0410
   86MOL    H9629166   3.520   6.653   3.766  0.9993  1.0185 -0.4304
   86MOL    H9729167   3.551   6.690   3.595 -1.4354 -2.1325 -2.6953
   86MOL    H9829168   3.583   6.400   3.706 -1.7842  0.3715 -0.5834
   86MOL    H9929169   3.866   6.567   3.556 -2.2865 -0.0231  0.0427
   86MOL   H10029170   4.087   6.570   3.689 -0.8339 -1.0878 -0.9868
   86MOL   H10129171   4.085   6.553   3.927  0.0341  1.2069 -0.0433
   86MOL   H10229172   3.860   6.516   4.058  0.7962  0.7218 -0.5156
   86MOL   H10329173   3.663   6.475   3.928 -0.2637 -1.9914 -2.1628
   86MOL   C10429174   3.571   6.362   3.460  0.1652 -0.2286 -0.2814
   86MOL   C10529175   3.613   6.320   3.319 -0.5423 -0.3237  0.3681
   86MOL   C10629176   3.541   6.198   3.274  0.0999 -0.2440  0.2827
   86MOL   C10729177   3.605   6.067   3.276 -0.4333  0.1331 -0.5242
   86MOL   C10829178   3.527   5.950   3.256 -0.2310 -0.2430 -0.1557
   86MOL   C10929179   3.400   5.959   3.198 -0.2808 -0.6345  0.2659
   86MOL   C11029180   3.350   6.090   3.176  0.5828  0.9466  0.3015
   86MOL   C11129181   3.414   6.205   3.214 -0.3042 -0.0740 -0.4547
   86MOL   O11229182   3.569   6.434   3.237 -0.1961 -0.2405  0.1962
   86MOL   H11329183   3.565   6.268   3.515 -1.6892  0.1005  0.1334
   86MOL   H11429184   3.467   6.395   3.456 -0.3143 -1.5815  0.3896
   86MOL   H11529185   3.719   6.298   3.304 -1.2442 -2.3187 -1.8144
   86MOL   H11629186   3.699   6.056   3.328  0.2959 -0.5333 -1.9715
   86MOL   H11729187   3.576   5.854   3.270  1.0836  0.5821  1.0692
   86MOL   H11829188   3.347   5.871   3.166 -0.6163 -0.8518  1.3972
   86MOL   H11929189   3.248   6.088   3.139  0.3984 -1.6758  0.8296
   86MOL   H12029190   3.367   6.302   3.204  0.2010  0.2959  0.6840
   86MOL   C12129191   3.668   6.512   3.173  0.1032 -0.5354  1.0101
   86MOL   C12229192   3.592   6.617   3.095 -0.0575  0.2997 -0.1446
   86MOL   C12329193   3.512   6.717   3.172 -0.5740  0.3085 -0.2761
   86MOL   C12429194   3.571   6.775   3.292 -0.3862 -0.2902 -0.1602
   86MOL   C12529195   3.496   6.871   3.366  0.2942 -0.6163 -0.8053
   86MOL   C12629196   3.363   6.910   3.327  0.1713  0.0436 -0.4169
   86MOL   C12729197   3.307   6.845   3.221 -0.0152  0.0616 -0.5709
   86MOL   C12829198   3.376   6.755   3.136 -0.7956  0.6071 -0.7410
   86MOL   O12929199   3.671   6.670   2.985 -0.0311 -0.5856 -0.2572
   86MOL   H13029200   3.719   6.456   3.095  1.0517  0.2214  1.0774
   86MOL   H13129201   3.746   6.551   3.240 -0.5095  1.1405  0.7723
   86MOL   H13229202   3.515   6.560   3.044 -0.0951 -1.7370  2.1416
   86MOL   H13329203   3.674   6.756   3.316 -0.6451 -1.3064  0.1512
   86MOL   H13429204   3.539   6.928   3.447 -2.5238  2.3792 -1.3177
   86MOL   H13529205   3.313   6.984   3.387  1.3049  0.5257 -0.0429
   86MOL   H13629206   3.203   6.872   3.209 -0.4979 -1.6216 -0.3994
   86MOL   H13729207   3.331   6.716   3.046 -0.2076 -0.9267 -0.3897
   86MOL   C13829208   3.776   6.751   3.034 -0.3957  0.2352  0.1659
   86MOL   C13929209   3.841   6.825   2.919  0.8756  0.0767 -0.1272
   86MOL   C14029210   3.860   6.742   2.787 -0.5124  0.3157  0.0810
   86MOL   C14129211   3.867   6.605   2.778 -0.9280 -0.2217  0.7674
   86MOL   C14229212   3.921   6.537   2.662 -0.3366 -0.5915  0.6948
   86MOL   C14329213   3.946   6.616   2.547  0.2689  0.0183  1.0018
   86MOL   C14429214   3.917   6.753   2.544 -0.0079 -0.0389  0.0604
   86MOL   C14529215   3.882   6.818   2.662 -0.4618 -0.4394  0.2597
   86MOL   O14629216   3.789   6.954   2.891  0.1633 -0.3143  0.1344
   86MOL   H14729217   3.854   6.690   3.078 -0.0878  0.6358  0.1844
   86MOL   H14829218   3.749   6.825   3.110 -0.7178 -0.6505  0.9168
   86MOL   H14929219   3.937   6.855   2.961  1.3921 -0.5584 -0.8484
   86MOL   H15029220   3.847   6.547   2.867  0.7630 -0.8816  0.7303
   86MOL   H15129221   3.940   6.431   2.656  0.2978 -0.4842  0.7326
   86MOL   H15229222   3.967   6.554   2.461 -0.4967  0.0539  0.7855
   86MOL   H15329223   3.921   6.803   2.448  0.9596  1.3788  0.8174
   86MOL   H15429224   3.876   6.925   2.676 -0.6022 -0.5724  1.2763
   86MOL   C15529225   3.652   6.957   2.853  0.7676  0.1435 -1.0238
   86MOL   C15629226   3.589   7.096   2.862  0.0116 -0.2761 -0.1803
   86MOL   C15729227   3.630   7.190   2.980 -0.3058  0.2529  0.7303
   86MOL   C15829228   3.598   7.146   3.115 -0.2871 -0.0305  0.4110
   86MOL   C15929229   3.633   7.233   3.224  1.1257 -0.1361  0.7910
   86MOL   C16029230   3.689   7.362   3.193 -0.4064 -0.8361  0.0154
   86MOL   C16129231   3.709   7.403   3.059  0.3801 -0.3640  0.3125
   86MOL   C16229232   3.680   7.319   2.950 -0.6880 -0.0469  0.6036
   86MOL   O16329233   3.605   7.167   2.740 -0.2136 -0.3113  0.4222
   86MOL   H16429234   3.592   6.889   2.913  1.0818  0.4145 -0.4004
   86MOL   H16529235   3.630   6.909   2.757  0.8493 -1.6467 -0.1577
   86MOL   H16629236   3.485   7.067   2.876 -0.1095  0.8295  1.2971
   86MOL   H16729237   3.578   7.041   3.130 -0.8197 -0.3041 -2.0648
   86MOL   H16829238   3.618   7.199   3.325  1.1184 -0.3163  0.7293
   86MOL   H16929239   3.733   7.423   3.271 -0.0432  0.2863 -1.0520
   86MOL   H17029240   3.751   7.501   3.042  0.7228 -0.7275 -0.9633
   86MOL   H17129241   3.692   7.348   2.847 -0.0219  4.3273  1.8272
   86MOL   C17229242   3.479   7.219   2.692 -0.3661  0.7103 -0.6163
   86MOL   C17329243   3.401   7.114   2.606  0.3303  0.1075 -0.5528
   86MOL   C17429244   3.461   7.079   2.470 -0.2854  0.2940  0.0430
   86MOL   C17529245   3.378   7.071   2.360  0.7737  0.1185 -0.0507
   86MOL   C17629246   3.435   7.058   2.232 -0.5519  0.0121  0.7471
   86MOL   C17729247   3.574   7.035   2.217 -0.0084  0.0270  0.4145
   86MOL   C17829248   3.660   7.044   2.326  0.1782  0.3461  0.5964
   86MOL   C17929249   3.602   7.061   2.455 -0.1872 -0.0525  0.3080
   86MOL   O18029250   3.275   7.179   2.588 -0.2744  0.1470 -0.6326
   86MOL   H18129251   3.416   7.253   2.775 -0.8483 -1.8369  0.0969
   86MOL   H18229252   3.500   7.309   2.635 -2.9688  1.3131 -0.6715
   86MOL   H18329253   3.397   7.023   2.666 -3.5888  0.8521  0.4672
   86MOL   H18429254   3.273   7.084   2.380  0.8861  0.4297  0.3279
   86MOL   H18529255   3.366   7.065   2.149  1.2664 -1.9836 -0.9796
   86MOL   H18629256   3.611   7.011   2.118 -1.5864  0.6768 -0.3532
   86MOL   H18729257   3.766   7.024   2.320  0.2388  0.3187  1.5869
   86MOL   H18829258   3.671   7.063   2.538 -1.1786  0.8529  1.1241
   86MOL   C18929259   3.158   7.116   2.632  0.1849  0.0084 -0.3960
   86MOL   C19029260   3.134   7.093   2.782  0.4188 -0.0228  0.6472
   86MOL   C19129261   3.153   7.222   2.869 -0.5386  0.4164  0.6678
   86MOL   C19229262   3.252   7.233   2.961 -0.7812 -0.5922  0.6543
   86MOL   C19329263   3.276   7.352   3.018 -0.6163  0.3591  0.2296
   86MOL   C19429264   3.200   7.467   2.993 -0.0848  0.0904 -0.7114
   86MOL   C19529265   3.095   7.457   2.900 -0.0623 -0.1457 -0.1830
   86MOL   C19629266   3.074   7.340   2.836  0.2823 -0.4999 -0.5224
   86MOL   O19729267   3.205   6.977   2.830  0.4539  0.2279  0.2917
   86MOL   H19829268   3.093   7.191   2.586 -0.5750 -0.4136 -0.0118
   86MOL   H19929269   3.134   7.024   2.579  1.1864 -1.0847  1.0115
   86MOL   H20029270   3.026   7.078   2.785  0.3841  0.3013  1.0761
   86MOL   H20129271   3.303   7.148   3.005 -2.7738 -2.2648 -0.1472
   86MOL   H20229272   3.352   7.361   3.094 -0.9260  0.2251  0.5546
   86MOL   H20329273   3.229   7.559   3.042 -2.4981  0.6448 -0.2614
   86MOL   H20429274   3.028   7.540   2.892  3.2936  2.4768 -2.3373
   86MOL   H20529275   2.992   7.316   2.770 -1.8659  4.4384  0.1974
   86MOL   C20629276   3.113   6.874   2.877 -0.1597 -0.0238  0.4490
   86MOL   C20729277   3.117   6.757   2.773 -0.6377 -0.1712  0.0211
   86MOL   C20829278   3.255   6.725   2.713 -0.2824 -0.4075  0.5898
   86MOL   C20929279   3.345   6.638   2.769 -0.8496 -1.3099 -0.1683
   86MOL   C21029280   3.468   6.608   2.706  0.4315 -0.2980 -0.6860
   86MOL   C21129281   3.500   6.668   2.583 -0.2453 -0.9233  0.0912
   86MOL   C21229282   3.406   6.750   2.520 -0.4527  0.2486 -0.0049
   86MOL   C21329283   3.284   6.774   2.584  0.5303  0.5894 -0.2450
   86MOL   O21429284   3.027   6.787   2.670 -0.0949 -0.2766  0.0188
   86MOL   H21529285   3.158   6.839   2.970 -2.1812 -3.3035  0.2683
   86MOL   H21629286   3.011   6.906   2.899 -0.3178 -0.3959  0.2658
   86MOL   H21729287   3.091   6.665   2.826  1.7021 -0.2453  1.0974
   86MOL   H21829288   3.317   6.592   2.863  0.9234 -2.9956 -0.4254
   86MOL   H21929289   3.533   6.535   2.752 -1.1170 -0.3435  1.5487
   86MOL   H22029290   3.579   6.632   2.520  0.2963 -1.1154  0.8727
   86MOL   H22129291   3.421   6.792   2.422  2.3082 -1.1999 -0.2792
   86MOL   H22229292   3.218   6.830   2.519 -0.2200 -1.5718 -1.3875
   86MOL   C22329293   2.945   6.678   2.631 -0.0712 -0.0579 -0.5877
   86MOL   C22429294   2.849   6.707   2.516  0.0502 -0.3147  0.5753
   86MOL   C22529295   2.917   6.784   2.395 -0.4873 -0.6561 -0.3980
   86MOL   C22629296   2.958   6.719   2.278  0.4497  0.0279  0.2132
   86MOL   C22729297   3.018   6.791   2.168  0.2300 -0.1597  0.6152
   86MOL   C22829298   3.039   6.931   2.184 -0.9040  0.1594  0.1067
   86MOL   C22929299   3.007   6.993   2.305  0.1950 -0.0513 -0.1712
   86MOL   C23029300   2.940   6.919   2.409  0.8126 -0.4039  0.7815
   86MOL   O23129301   2.786   6.587   2.468 -0.2345 -0.1286 -0.5050
   86MOL   H23229302   3.010   6.602   2.589  0.6331  0.1301  0.1399
   86MOL   H23329303   2.884   6.635   2.711 -1.7358 -1.2137 -2.4185
   86MOL   H23429304   2.773   6.775   2.557  0.5086 -1.0121  2.6348
   86MOL   H23529305   2.957   6.611   2.273 -1.2341  0.0403  0.2589
   86MOL   H23629306   3.048   6.737   2.080  1.2743 -0.7997  1.3586
   86MOL   H23729307   3.104   6.981   2.114  1.1953  1.0172  2.5665
   86MOL   H23829308   3.025   7.099   2.318  1.9968 -0.3397 -0.2004
   86MOL   H23929309   2.903   6.980   2.490  1.5052  2.0664 -0.7096
   86MOL   C24029310   2.664   6.596   2.404 -0.8900 -0.0874  0.2251
   86MOL   C24129311   2.571   6.479   2.422  0.6330  0.3975 -0.3431
   86MOL   C24229312   2.624   6.337   2.394  0.4439 -0.4782  0.0714
   86MOL   C24329313   2.535   6.227   2.398 -0.0586  0.1570 -0.0567
   86MOL   C24429314   2.579   6.096   2.366  0.2157  0.2001  0.2836
   86MOL   C24529315   2.717   6.069   2.352  0.8509 -0.4815  0.4243
   86MOL   C24629316   2.808   6.178   2.348 -0.1537  1.0577 -0.3094
   86MOL   C24729317   2.761   6.311   2.364  0.0901  0.1747  0.4457
   86MOL   O24829318   2.486   6.487   2.535  0.2828 -0.1822 -0.4629
   86MOL   H24929319   2.611   6.683   2.441 -0.0621 -0.4895  2.4506
   86MOL   H25029320   2.687   6.620   2.300 -0.6277  1.9794  0.7330
   86MOL   H25129321   2.494   6.488   2.346 -1.0844 -1.5759  1.1359
   86MOL   H25229322   2.431   6.248   2.419  0.0562  2.0224 -1.2694
   86MOL   H25329323   2.519   6.007   2.377 -0.4193  0.5829 -0.0776
   86MOL   H25429324   2.754   5.967   2.356  1.4191 -0.1949  3.5572
   86MOL   H25529325   2.913   6.152   2.345  0.0072  1.8039 -1.5885
   86MOL   H25629326   2.840   6.383   2.378 -0.9132  0.7916  3.1862
   86MOL   C25729327   2.552   6.481   2.659 -0.7324  0.2116 -0.3197
   86MOL   C25829328   2.460   6.475   2.774 -0.2493 -0.3326  0.7165
   86MOL   C25929329   2.369   6.594   2.790  0.5664 -0.0490  0.1965
   86MOL   C26029330   2.410   6.713   2.850  0.2572  0.9900 -0.4383
   86MOL   C26129331   2.318   6.815   2.883  0.3277 -0.3806 -1.0053
   86MOL   C26229332   2.185   6.798   2.855  0.1316  0.0714  0.0803
   86MOL   C26329333   2.143   6.678   2.792  0.3111  0.6409 -0.2458
   86MOL   C26429334   2.233   6.573   2.768  0.6578 -0.2758 -1.0062
   86MOL   O26529335   2.530   6.443   2.894  0.4418  0.4874 -0.0030
   86MOL   H26629336   2.619   6.564   2.681 -0.3706 -0.3197  0.6430
   86MOL   H26729337   2.617   6.395   2.646  0.1695  0.5760  1.6291
   86MOL   H26829338   2.390   6.397   2.743 -1.3292  0.8058  0.2444
   86MOL   H26929339   2.515   6.724   2.872  0.4073  0.6480 -0.9697
   86MOL   H27029340   2.351   6.900   2.942 -0.5607 -1.1387  0.6156
   86MOL   H27129341   2.108   6.868   2.885 -0.8856 -0.2083 -1.8031
   86MOL   H27229342   2.038   6.668   2.769 -0.1099  3.8545  0.0391
   86MOL   H27329343   2.200   6.477   2.732 -0.3691 -0.1170 -0.5025
   86MOL   C27429344   2.442   6.399   3.000  0.2377  0.5644  0.0609
   86MOL   C27529345   2.373   6.266   2.965 -0.4052  0.5252 -0.2555
   86MOL   C27629346   2.470   6.159   2.904  0.0784 -0.1711  0.6492
   86MOL   C27729347   2.457   6.119   2.772  0.1750  0.7563 -0.2667
   86MOL   C27829348   2.543   6.023   2.717 -0.3684  1.1911  0.5106
   86MOL   C27929349   2.637   5.961   2.803 -0.0357  0.5335  0.5909
   86MOL   C28029350   2.647   5.992   2.945  0.0279  0.0822  0.6591
   86MOL   C28129351   2.560   6.093   2.988  0.1278  0.1642  0.0915
   86MOL   O28229352   2.250   6.288   2.891 -0.3352  0.2876 -0.1568
   86MOL   H28329353   2.498   6.367   3.088 -0.0075 -2.3797 -0.8181
   86MOL   H28429354   2.377   6.479   3.038 -2.5633 -2.3677  1.7343
   86MOL   H28529355   2.350   6.229   3.065  0.1374 -2.1998 -1.0855
   86MOL   H28629356   2.373   6.157   2.715 -0.0569  0.1447 -0.3377
   86MOL   H28729357   2.536   5.987   2.615 -1.2473  2.8858 -0.0374
   86MOL   H28829358   2.710   5.895   2.758  2.3361  2.3280  1.6896
   86MOL   H28929359   2.713   5.940   3.013  0.5814 -1.0349 -0.7167
   86MOL   H29029360   2.562   6.131   3.089 -0.3892 -0.5627  0.3761
   86MOL   C29129361   2.158   6.181   2.894 -0.1087  0.1332 -0.1498
   86MOL   C29229362   2.063   6.194   3.021  0.4209 -0.0136 -0.1967
   86MOL   C29329363   1.964   6.308   3.015 -0.1919  0.4800 -0.3713
   86MOL   C29429364   1.843   6.290   2.944  0.0774  0.1366 -0.5302
   86MOL   C29529365   1.771   6.405   2.913  0.5377 -0.3313 -1.1222
   86MOL   C29629366   1.794   6.526   2.973  0.2405  0.8848  0.0781
   86MOL   C29729367   1.900   6.537   3.064 -0.5515  0.4661 -0.3129
   86MOL   C29829368   1.993   6.433   3.073 -0.5894 -0.5799 -0.3381
   86MOL   O29929369   1.993   6.064   3.021 -0.2054  0.0725 -0.6087
   86MOL   H30029370   2.212   6.087   2.886 -0.6757 -0.1927 -0.0897
   86MOL   H30129371   2.098   6.187   2.804  3.4614  1.6693 -2.5472
   86MOL   H30229372   2.123   6.207   3.111  1.9458 -0.5082 -1.1144
   86MOL   H30329373   1.816   6.200   2.890 -0.2376  1.6767 -3.0278
   86MOL   H30429374   1.686   6.397   2.848  1.5257  0.3096 -2.5217
   86MOL   H30529375   1.733   6.610   2.941 -0.3745  0.4727  0.1579
   86MOL   H30629376   1.919   6.640   3.091 -0.5494  0.2187  0.6135
   86MOL   H30729377   2.092   6.447   3.112 -1.4024 -0.4355  1.7790
   86MOL   C30829378   1.936   6.027   3.139 -0.1562  0.3411 -1.4847
   86MOL   C30929379   2.037   5.963   3.238 -0.3542 -0.2029  0.4231
   86MOL   C31029380   2.133   5.875   3.170 -0.4305 -0.6601 -0.5997
   86MOL   C31129381   2.257   5.923   3.115 -0.0928 -0.6886  0.4969
   86MOL   C31229382   2.331   5.835   3.030 -0.2795 -0.1361 -0.9885
   86MOL   C31329383   2.295   5.704   3.011  0.7830 -0.2460 -0.5059
   86MOL   C31429384   2.180   5.664   3.069 -0.0050  0.1813 -0.2981
   86MOL   C31529385   2.093   5.749   3.139  0.5433  0.2500  0.3016
   86MOL   O31629386   2.103   6.066   3.315  0.1517  0.6388 -0.2228
   86MOL   H31729387   1.873   5.950   3.096 -2.1853  0.4664  1.0979
   86MOL   H31829388   1.880   6.110   3.183 -2.1262 -1.2023 -0.9923
   86MOL   H31929389   1.976   5.902   3.305 -0.5890 -0.3031  0.1156
   86MOL   H32029390   2.290   6.023   3.138 -0.9995 -0.3185  0.2000
   86MOL   H32129391   2.420   5.871   2.981  1.1700  0.2446  1.8236
   86MOL   H32229392   2.358   5.638   2.954 -0.5025 -1.7977 -0.1578
   86MOL   H32329393   2.158   5.561   3.045  0.5420 -0.0931  0.3661
   86MOL   H32429394   2.001   5.704   3.175 -0.1123  2.1335  1.0194
   86MOL   C32529395   2.170   6.021   3.429 -0.7826  0.3821 -0.4802
   86MOL   C32629396   2.169   6.130   3.527 -0.5123  0.4497 -0.2935
   86MOL   C32729397   2.275   6.236   3.505 -1.0218  0.3163  0.4058
   86MOL   C32829398   2.398   6.224   3.571 -0.7625 -0.4764  0.0219
   86MOL   C32929399   2.509   6.305   3.528 -0.4278  0.0716  0.3902
   86MOL   C33029400   2.490   6.399   3.425 -0.4925 -0.3170 -0.2780
   86MOL   C33129401   2.367   6.416   3.360 -0.0608  0.2672  0.1179
   86MOL   C33229402   2.262   6.328   3.395 -0.1437 -0.0013  0.0857
   86MOL   O33329403   2.039   6.184   3.553  0.1750  0.1078 -0.3054
   86MOL   H33429404   2.273   5.991   3.411 -0.5548 -0.5353  2.1909
   86MOL   H33529405   2.117   5.936   3.471  0.3620  0.2139  0.6519
   86MOL   H33629406   2.195   6.085   3.623 -1.0128  0.9963  0.1034
   86MOL   H33729407   2.416   6.153   3.650 -1.6398 -0.8060 -0.0634
   86MOL   H33829408   2.598   6.313   3.589 -1.7032 -1.1649  2.4822
   86MOL   H33929409   2.572   6.466   3.403  0.9787 -1.6608  0.9720
   86MOL   H34029410   2.363   6.491   3.282  0.5567  0.7202  0.5176
   86MOL   H34129411   2.172   6.320   3.335  0.9942 -1.0009 -1.5285
   86MOL   H34229412   1.974   6.135   3.504 -0.0963 -1.1598  1.2881
   87MOL     C129413   6.726   7.045   3.696  0.3518 -0.4120 -0.5135
   87MOL     C229414   6.862   7.077   3.634 -0.2964 -0.1923  0.4352
   87MOL     C329415   6.982   6.996   3.674 -0.2849  0.0654  0.0475
   87MOL     C429416   7.024   7.003   3.811  0.2168  0.3851 -0.1833
   87MOL     C529417   7.140   6.922   3.844  0.0386  0.3460  0.2991
   87MOL     C629418   7.204   6.844   3.746  0.4476  0.3247  0.0270
   87MOL     C729419   7.159   6.841   3.607 -0.3640 -0.4357  0.2729
   87MOL     C829420   7.045   6.918   3.574 -0.0380  0.0982  0.2420
   87MOL     O929421   6.879   7.215   3.664 -0.4156  0.3070 -0.3326
   87MOL    H1029422   6.659   7.130   3.682  0.6885 -0.1890 -0.7857
   87MOL    H1129423   6.702   6.947   3.655  0.1130 -1.3555  1.8097
   87MOL    H1229424   6.843   7.061   3.528  5.2697 -2.1129 -0.3839
   87MOL    H1329425   6.964   7.060   3.881 -0.6149  0.1301 -0.6807
   87MOL    H1429426   7.182   6.901   3.941 -1.0140 -0.3973  0.6042
   87MOL    H1529427   7.281   6.772   3.771  0.2993 -0.0117 -0.4661
   87MOL    H1629428   7.208   6.777   3.535 -1.2176 -0.8328  0.0390
   87MOL    H1729429   7.000   6.923   3.476 -1.5844  2.3248  1.0292
   87MOL    H1829430   6.722   7.028   3.804  0.4540 -0.9057 -0.5856
   87MOL    C1929431   6.971   7.290   3.579 -0.3781 -0.0863  0.2217
   87MOL    C2029432   6.922   7.318   3.435 -0.0544 -0.2408 -0.3866
   87MOL    C2129433   6.791   7.402   3.420  0.1432  0.2238  0.2861
   87MOL    C2229434   6.792   7.541   3.396  0.1334 -0.7726 -0.0453
   87MOL    C2329435   6.668   7.606   3.380  0.0705 -0.2175 -0.2754
   87MOL    C2429436   6.549   7.540   3.406  0.9306 -0.9988 -0.5251
   87MOL    C2529437   6.548   7.404   3.436  0.0585  0.3603  0.0695
   87MOL    C2629438   6.670   7.341   3.439 -0.6646 -0.1660 -0.2076
   87MOL    O2729439   6.926   7.198   3.352 -0.8633  0.4032  0.5160
   87MOL    H2829440   6.986   7.384   3.633  2.3044  0.3073 -1.1586
   87MOL    H2929441   7.062   7.232   3.567 -0.3083 -0.2129  1.3104
   87MOL    H3029442   7.005   7.385   3.412  0.3403 -0.4206  0.4882
   87MOL    H3129443   6.887   7.591   3.389 -0.1656 -0.2282 -0.2408
   87MOL    H3229444   6.670   7.709   3.347  2.0062  0.1946  1.0931
   87MOL    H3329445   6.458   7.596   3.410  1.6296  0.0412  1.7904
   87MOL    H3429446   6.449   7.360   3.429  0.4819 -0.3580 -1.5957
   87MOL    H3529447   6.665   7.235   3.460 -0.1364 -0.5120 -1.7242
   87MOL    C3629448   6.950   7.232   3.218  0.5156 -0.6753 -0.7705
   87MOL    C3729449   6.961   7.106   3.131  0.8858 -0.3998  0.2289
   87MOL    C3829450   6.847   7.007   3.132  0.3272 -0.3239 -0.2278
   87MOL    C3929451   6.829   6.916   3.238  0.7124  0.3469  0.7141
   87MOL    C4029452   6.708   6.847   3.248  0.1295 -0.4803  0.1609
   87MOL    C4129453   6.613   6.857   3.152  0.4530 -0.0758 -0.1091
   87MOL    C4229454   6.632   6.941   3.045  0.1358  0.6655  0.3741
   87MOL    C4329455   6.748   7.015   3.035 -0.1973  0.1547  0.3925
   87MOL    O4429456   7.082   7.032   3.152  0.2841  0.4467 -0.0849
   87MOL    H4529457   6.870   7.289   3.171  1.4252  1.3319  0.0265
   87MOL    H4629458   7.045   7.286   3.217  0.1349  0.1117  1.6907
   87MOL    H4729459   6.946   7.145   3.030 -1.1297  2.1883  1.4418
   87MOL    H4829460   6.907   6.918   3.313  1.0672  3.3313  0.3571
   87MOL    H4929461   6.701   6.777   3.331  1.5296  2.3421  2.7505
   87MOL    H5029462   6.516   6.812   3.164 -0.0895  0.7444 -1.2912
   87MOL    H5129463   6.562   6.939   2.962 -0.7164  0.6601  1.0874
   87MOL    H5229464   6.765   7.096   2.966 -1.4538  0.0894 -0.0242
   87MOL    C5329465   7.182   7.081   3.062  0.2087  0.3721 -0.0701
   87MOL    C5429466   7.321   7.009   3.094  0.6334  0.0282 -0.0679
   87MOL    C5529467   7.434   7.026   2.989 -0.4728 -0.3481 -0.4055
   87MOL    C5629468   7.454   7.142   2.910  0.4668 -0.2013  0.2053
   87MOL    C5729469   7.552   7.148   2.800  0.1801  0.1112  0.0902
   87MOL    C5829470   7.644   7.044   2.796  0.6645  0.5975  0.2173
   87MOL    C5929471   7.628   6.925   2.873  0.5292 -0.2413  0.4067
   87MOL    C6029472   7.518   6.915   2.964  0.0509  0.1317 -0.0607
   87MOL    O6129473   7.366   7.067   3.215  0.2911 -0.5347  0.0412
   87MOL    H6229474   7.155   7.056   2.959 -0.6866  4.1532 -0.8566
   87MOL    H6329475   7.194   7.190   3.064  1.5462  0.2112  2.5487
   87MOL    H6429476   7.297   6.903   3.093 -0.3636  0.2559 -1.1521
   87MOL    H6529477   7.387   7.224   2.933  0.7695  0.4062 -1.0721
   87MOL    H6629478   7.568   7.243   2.751  0.8319  0.4022  0.8433
   87MOL    H6729479   7.731   7.050   2.732  1.6971  1.2854  1.6645
   87MOL    H6829480   7.694   6.840   2.865 -1.8368 -2.1328  0.3424
   87MOL    H6929481   7.501   6.832   3.031 -1.1920  2.1646  2.2450
   87MOL    C7029482   7.324   6.985   3.323  0.4553 -0.3721 -0.5995
   87MOL    C7129483   7.424   6.869   3.361 -0.8317  0.0088 -0.1497
   87MOL    C7229484   7.566   6.916   3.391 -0.8529  0.7636 -0.2070
   87MOL    C7329485   7.675   6.889   3.304  0.6434 -0.7636 -1.0137
   87MOL    C7429486   7.810   6.929   3.326 -0.2971 -0.8301  0.4261
   87MOL    C7529487   7.835   6.984   3.453 -0.3783  0.2090 -0.1924
   87MOL    C7629488   7.729   7.005   3.552  0.6221  0.2048 -0.3993
   87MOL    C7729489   7.592   6.961   3.522 -0.4479 -0.5707  0.2789
   87MOL    O7829490   7.424   6.759   3.271 -0.3191 -0.6767  0.4364
   87MOL    H7929491   7.318   7.048   3.412  1.0157  2.9478 -2.8344
   87MOL    H8029492   7.225   6.942   3.309 -0.1108  0.4307  0.8162
   87MOL    H8129493   7.387   6.845   3.461  0.0776  2.6361  0.8704
   87MOL    H8229494   7.666   6.837   3.210 -1.0537  0.5221 -1.5742
   87MOL    H8329495   7.890   6.905   3.257 -0.5512 -0.5689  0.0401
   87MOL    H8429496   7.940   7.002   3.470 -0.2387 -0.8150  0.0528
   87MOL    H8529497   7.754   7.055   3.644  0.8655 -2.0462  0.7839
   87MOL    H8629498   7.510   6.978   3.589 -0.5724 -1.0109  0.2368
   87MOL    C8729499   7.460   6.637   3.338  0.1376 -0.4788 -0.1460
   87MOL    C8829500   7.421   6.515   3.259  0.2981  0.3580  0.1175
   87MOL    C8929501   7.464   6.536   3.113 -0.3429 -0.3921 -0.6035
   87MOL    C9029502   7.370   6.561   3.010  0.4373  0.2623  0.1614
   87MOL    C9129503   7.411   6.590   2.880 -0.0708  0.1472  0.4004
   87MOL    C9229504   7.549   6.582   2.847 -0.1003 -0.1184 -0.2575
   87MOL    C9329505   7.642   6.552   2.944  0.6343 -0.2838 -0.0177
   87MOL    C9429506   7.602   6.536   3.076 -0.0577 -0.3707 -0.3909
   87MOL    O9529507   7.286   6.479   3.267  0.1218  0.0491 -0.3002
   87MOL    H9629508   7.410   6.622   3.433 -0.9678  0.7692 -0.5134
   87MOL    H9729509   7.567   6.637   3.358  0.0345  1.7360  0.5630
   87MOL    H9829510   7.480   6.434   3.303  0.3046  1.4816  2.2607
   87MOL    H9929511   7.265   6.558   3.032  0.7796 -2.1541  1.5823
   87MOL   H10029512   7.337   6.616   2.805 -1.8701  0.2219  2.1521
   87MOL   H10129513   7.570   6.600   2.743 -3.2750 -0.5631 -1.0130
   87MOL   H10229514   7.748   6.545   2.923  1.3510  2.2325  2.4519
   87MOL   H10329515   7.676   6.528   3.155  0.6625  0.8226 -0.9310
   87MOL   C10429516   7.270   6.342   3.230 -0.3591  0.1801 -0.0198
   87MOL   C10529517   7.120   6.315   3.249 -0.8219  0.2799 -0.0217
   87MOL   C10629518   7.027   6.378   3.140 -0.6487 -0.3144 -0.0963
   87MOL   C10729519   6.966   6.292   3.044 -0.4074  0.0208 -0.9252
   87MOL   C10829520   6.870   6.341   2.950  0.3367  0.4325  0.5976
   87MOL   C10929521   6.843   6.476   2.947  0.8425  0.4638 -0.5378
   87MOL   C11029522   6.901   6.561   3.041 -0.3704  0.0299 -0.6275
   87MOL   C11129523   6.993   6.513   3.141  0.9842  0.1711 -0.5545
   87MOL   O11229524   7.104   6.176   3.257 -0.3629 -0.0395  0.2792
   87MOL   H11329525   7.290   6.311   3.128 -1.1766  0.2035 -0.1901
   87MOL   H11429526   7.329   6.286   3.303 -0.4089 -0.1921 -0.2628
   87MOL   H11529527   7.093   6.355   3.347 -1.3134  1.9908 -0.8319
   87MOL   H11629528   6.989   6.187   3.046 -1.8341 -0.2977 -0.1072
   87MOL   H11729529   6.840   6.285   2.863  0.7104  1.1391  0.0106
   87MOL   H11829530   6.776   6.516   2.874 -1.9318 -0.7597  1.2407
   87MOL   H11929531   6.861   6.661   3.042 -0.6482 -0.0707 -1.9116
   87MOL   H12029532   7.036   6.584   3.210 -0.9620  0.8782 -0.0134
   87MOL   C12129533   6.984   6.131   3.321 -0.1275 -0.0448 -1.3501
   87MOL   C12229534   6.976   5.977   3.310 -0.1106  0.2043  0.3279
   87MOL   C12329535   6.858   5.930   3.398 -0.2942  0.3130  0.0892
   87MOL   C12429536   6.733   5.979   3.361 -0.0212 -0.2229  0.2466
   87MOL   C12529537   6.615   5.922   3.427  0.0563  0.2253 -0.1257
   87MOL   C12629538   6.633   5.832   3.543  0.2144 -1.1290  0.2564
   87MOL   C12729539   6.761   5.788   3.581  0.3894  0.1024  0.5777
   87MOL   C12829540   6.875   5.832   3.503  0.5042  0.6791 -0.0464
   87MOL   O12929541   6.962   5.932   3.170  0.3873 -0.4503 -0.0359
   87MOL   H13029542   6.895   6.167   3.271 -1.1102  0.1119  0.4738
   87MOL   H13129543   6.982   6.172   3.422  2.0370 -0.6464 -1.0232
   87MOL   H13229544   7.071   5.936   3.343 -1.2809 -1.9241  1.0711
   87MOL   H13329545   6.732   6.051   3.281  2.6355 -1.4994 -1.0303
   87MOL   H13429546   6.511   5.945   3.407 -0.1160 -1.1879 -0.9227
   87MOL   H13529547   6.555   5.791   3.606  1.1134 -1.9191  0.8739
   87MOL   H13629548   6.775   5.717   3.661  1.8390  0.7289  0.8907
   87MOL   H13729549   6.975   5.797   3.524  0.4541  1.1233  0.9609
   87MOL   C13829550   6.995   5.790   3.155 -0.9749  0.1144 -0.4735
   87MOL   C13929551   6.924   5.732   3.029  0.2910  0.1505 -0.5272
   87MOL   C14029552   6.773   5.710   3.063  0.1162  0.6957  0.6254
   87MOL   C14129553   6.720   5.583   3.089 -0.2649  0.2927 -0.4469
   87MOL   C14229554   6.586   5.575   3.136  0.5126  0.5123 -0.3018
   87MOL   C14329555   6.503   5.694   3.149 -0.0112 -0.0655  0.7389
   87MOL   C14429556   6.560   5.816   3.110  0.0171 -0.1338 -0.1525
   87MOL   C14529557   6.692   5.826   3.066  0.0852  0.9429  0.1372
   87MOL   O14629558   6.949   5.822   2.920 -0.2080 -0.7807  0.1060
   87MOL   H14729559   6.970   5.731   3.243  0.9548 -0.7681 -0.4868
   87MOL   H14829560   7.103   5.776   3.149 -1.0004 -0.1850 -0.2388
   87MOL   H14929561   6.972   5.637   3.006 -0.5722  0.2073 -2.6921
   87MOL   H15029562   6.775   5.491   3.082 -0.9357 -0.1394 -0.1369
   87MOL   H15129563   6.543   5.478   3.156 -0.1776  1.1002  1.1626
   87MOL   H15229564   6.400   5.683   3.179 -0.2743 -0.9583 -0.4549
   87MOL   H15329565   6.500   5.905   3.123 -1.6371 -1.6139  3.1495
   87MOL   H15429566   6.738   5.918   3.033 -0.6150  1.3487  0.2856
   87MOL   C15529567   6.922   5.762   2.796 -0.4687 -0.2322 -0.0601
   87MOL   C15629568   6.937   5.851   2.673  0.6181  0.1424 -0.1806
   87MOL   C15729569   6.969   5.760   2.545 -0.8033 -0.2532 -0.0906
   87MOL   C15829570   7.102   5.727   2.518 -0.2411 -0.3396 -0.0427
   87MOL   C15929571   7.135   5.644   2.413  0.4344 -0.2699  0.0620
   87MOL   C16029572   7.040   5.616   2.315 -0.4251 -0.8137 -0.2026
   87MOL   C16129573   6.910   5.657   2.334 -0.0055 -0.6810  0.6404
   87MOL   C16229574   6.870   5.724   2.450  0.1434 -0.3056  0.0526
   87MOL   O16329575   6.813   5.913   2.654  0.5354  0.0091  0.9357
   87MOL   H16429576   6.824   5.715   2.789 -1.0428  0.8793  0.3625
   87MOL   H16529577   6.997   5.683   2.789 -0.2792  0.0698 -1.9357
   87MOL   H16629578   7.003   5.935   2.697  2.0560 -1.5483  1.9176
   87MOL   H16729579   7.182   5.774   2.573 -1.0202 -0.2236  1.0074
   87MOL   H16829580   7.237   5.615   2.390  0.6543  1.5482 -1.3436
   87MOL   H16929581   7.066   5.556   2.228 -0.9664  3.4737 -3.4996
   87MOL   H17029582   6.827   5.654   2.264 -1.9038  0.4398  2.8017
   87MOL   H17129583   6.773   5.773   2.457  1.2432  1.8018  1.2214
   87MOL   C17229584   6.792   6.034   2.730  0.4722  0.3298  0.0630
   87MOL   C17329585   6.644   6.061   2.739 -0.3880  0.3584  0.5927
   87MOL   C17429586   6.579   6.055   2.605  0.4629 -0.3492 -0.5586
   87MOL   C17529587   6.551   6.173   2.535 -0.6045  0.9044 -0.1021
   87MOL   C17629588   6.487   6.176   2.414  0.2658 -0.1505  0.3533
   87MOL   C17729589   6.429   6.052   2.366  0.4658 -0.4936 -0.2879
   87MOL   C17829590   6.445   5.933   2.441 -0.3128 -0.2842 -0.8197
   87MOL   C17929591   6.526   5.935   2.549  0.1474  0.2689  0.2258
   87MOL   O18029592   6.617   6.181   2.809  0.1586 -0.8199  0.6244
   87MOL   H18129593   6.831   6.038   2.832 -0.6863  1.0154  0.4844
   87MOL   H18229594   6.836   6.119   2.678  3.1015  0.0683  1.7312
   87MOL   H18329595   6.604   5.981   2.802 -1.4783  1.2450  1.0365
   87MOL   H18429596   6.575   6.262   2.590 -0.2620  1.6341 -1.3951
   87MOL   H18529597   6.470   6.271   2.367 -0.7953  0.3911  1.8102
   87MOL   H18629598   6.366   6.047   2.278  0.8029 -0.9607 -0.5054
   87MOL   H18729599   6.400   5.842   2.405  0.9743 -0.2321 -2.6664
   87MOL   H18829600   6.551   5.846   2.605  1.8844  1.0469  0.7291
   87MOL   C18929601   6.586   6.171   2.950  0.0192 -0.0381 -0.2405
   87MOL   C19029602   6.522   6.301   3.000  0.0792 -0.0070  0.1872
   87MOL   C19129603   6.542   6.314   3.146  0.5221  0.4543 -0.8736
   87MOL   C19229604   6.476   6.226   3.232  0.6810 -0.1165 -0.6182
   87MOL   C19329605   6.485   6.234   3.371 -0.0306  0.5651  0.2279
   87MOL   C19429606   6.564   6.332   3.428  0.9715 -0.2220  0.2186
   87MOL   C19529607   6.636   6.421   3.346  0.5009 -0.1844  0.2953
   87MOL   C19629608   6.619   6.413   3.205 -0.3228 -0.2230  0.1185
   87MOL   O19729609   6.384   6.308   2.961  0.2433  0.5556  0.2270
   87MOL   H19829610   6.519   6.089   2.977  0.5660 -0.2023  0.6298
   87MOL   H19929611   6.680   6.141   2.996 -1.2717 -2.0111  1.1798
   87MOL   H20029612   6.572   6.386   2.954 -1.2255 -0.5487 -2.3465
   87MOL   H20129613   6.418   6.148   3.186 -0.7195  1.0202 -0.8295
   87MOL   H20229614   6.441   6.164   3.441  0.0417  0.8618  0.5700
   87MOL   H20329615   6.562   6.344   3.535 -0.2588 -1.3743  0.3308
   87MOL   H20429616   6.682   6.499   3.405 -0.0123  0.5741 -0.2971
   87MOL   H20529617   6.667   6.489   3.145  0.3281 -1.1904 -0.6165
   87MOL   C20629618   6.347   6.330   2.822 -0.4674  0.5338 -0.2505
   87MOL   C20729619   6.197   6.371   2.820  0.7723  0.4656 -0.7936
   87MOL   C20829620   6.091   6.274   2.880  0.2041  0.2578 -0.2583
   87MOL   C20929621   6.053   6.279   3.014 -0.6041  0.1570 -0.0702
   87MOL   C21029622   5.967   6.177   3.066  0.1745 -0.5690 -0.0510
   87MOL   C21129623   5.911   6.083   2.978  0.2882  0.3918  0.3076
   87MOL   C21229624   5.935   6.088   2.841 -0.1531  0.0603 -0.3920
   87MOL   C21329625   6.030   6.176   2.797 -0.1517 -0.5779  0.6119
   87MOL   O21429626   6.169   6.426   2.690  0.3756  0.1756  0.0833
   87MOL   H21529627   6.417   6.404   2.784  0.0939  0.6307  0.9471
   87MOL   H21629628   6.361   6.236   2.769 -1.0306  0.0844  0.3852
   87MOL   H21729629   6.200   6.458   2.885  1.3448 -0.7149  0.7751
   87MOL   H21829630   6.088   6.354   3.083 -0.3587  1.1843 -1.3045
   87MOL   H21929631   5.934   6.186   3.169 -0.7962  0.3843 -0.4312
   87MOL   H22029632   5.832   6.017   3.013 -0.0406  1.4656  1.6305
   87MOL   H22129633   5.885   6.016   2.777  1.9959 -3.0550  1.3254
   87MOL   H22229634   6.058   6.175   2.692 -1.6904 -0.4871  0.1929
   87MOL   C22329635   6.064   6.517   2.693  0.2743 -1.3795  0.2326
   87MOL   C22429636   6.040   6.561   2.545 -0.3584 -0.3199 -0.2572
   87MOL   C22529637   5.889   6.599   2.514  0.0614  0.3003 -0.0845
   87MOL   C22629638   5.856   6.724   2.497  0.0900 -0.6274  0.0454
   87MOL   C22729639   5.721   6.770   2.496 -0.4287  0.7132 -0.2481
   87MOL   C22829640   5.621   6.674   2.484  0.1503  0.2706  0.4637
   87MOL   C22929641   5.650   6.536   2.498  0.0407  0.4564 -0.1517
   87MOL   C23029642   5.781   6.500   2.522 -0.2480 -0.3902 -0.5315
   87MOL   O23129643   6.138   6.660   2.499  0.0004 -0.1921 -0.0923
   87MOL   H23229644   5.972   6.470   2.728 -0.4014 -0.8620 -0.7980
   87MOL   H23329645   6.082   6.596   2.767 -1.6121 -0.7239  0.0445
   87MOL   H23429646   6.051   6.473   2.482  1.1245 -0.6773  0.4899
   87MOL   H23529647   5.937   6.795   2.498 -0.3060 -0.1534 -0.5387
   87MOL   H23629648   5.705   6.875   2.477  1.0710  0.9796 -0.1254
   87MOL   H23729649   5.516   6.697   2.474  0.6040  2.1694 -0.1512
   87MOL   H23829650   5.587   6.449   2.491 -0.4120  0.9006 -1.8836
   87MOL   H23929651   5.807   6.396   2.528 -1.3605 -0.6649 -0.2523
   87MOL   C24029652   6.232   6.595   2.414 -0.2276 -0.0393  0.1276
   87MOL   C24129653   6.349   6.683   2.371 -0.2144 -0.3742  0.8703
   87MOL   C24229654   6.444   6.612   2.279  0.4064  0.6877 -0.6410
   87MOL   C24329655   6.409   6.610   2.141 -0.1562 -0.7471 -0.6705
   87MOL   C24429656   6.498   6.550   2.049 -0.5632 -0.2165 -0.3945
   87MOL   C24529657   6.619   6.495   2.098  0.1867  0.0261  0.5318
   87MOL   C24629658   6.651   6.489   2.235  0.3118  0.9978  0.0272
   87MOL   C24729659   6.553   6.535   2.328  0.2657  0.6233 -0.2125
   87MOL   O24829660   6.290   6.794   2.300  0.1419 -0.2439 -0.2843
   87MOL   H24929661   6.271   6.509   2.467 -1.5965 -0.3274  0.6869
   87MOL   H25029662   6.172   6.577   2.325 -2.2479  0.3292  1.3774
   87MOL   H25129663   6.404   6.713   2.460  2.2226 -3.6429  0.5866
   87MOL   H25229664   6.325   6.669   2.106 -0.3793  0.6024  2.0508
   87MOL   H25329665   6.479   6.550   1.943 -1.0110 -1.5367 -0.3248
   87MOL   H25429666   6.684   6.452   2.023  1.8818  1.1264  1.3078
   87MOL   H25529667   6.738   6.436   2.269 -0.0643  0.4260  0.1045
   87MOL   H25629668   6.573   6.521   2.433  0.8390  1.1828 -0.2496
   87MOL   C25729669   6.368   6.914   2.296  0.5851  0.0974 -0.7457
   87MOL   C25829670   6.294   7.024   2.225 -0.4821 -0.5752  0.9651
   87MOL   C25929671   6.380   7.148   2.219  0.3120 -0.5523 -0.5214
   87MOL   C26029672   6.488   7.152   2.129  0.2893  0.6318  0.0035
   87MOL   C26129673   6.570   7.267   2.127 -0.5769  0.1410  0.2788
   87MOL   C26229674   6.539   7.389   2.196  0.4856 -0.1517 -0.2163
   87MOL   C26329675   6.425   7.387   2.278 -0.1300  0.7731  0.9360
   87MOL   C26429676   6.349   7.264   2.294 -0.0536  0.6868 -0.1362
   87MOL   O26529677   6.181   7.037   2.306  0.4428 -0.6655  0.2103
   87MOL   H26629678   6.465   6.900   2.248 -0.6010  1.1798 -3.5617
   87MOL   H26729679   6.383   6.940   2.401  0.4678 -1.3325 -0.3712
   87MOL   H26829680   6.262   7.001   2.124 -1.1768 -2.1495  1.5271
   87MOL   H26929681   6.503   7.066   2.066  0.0563  0.2578  0.4590
   87MOL   H27029682   6.650   7.272   2.056  0.4927 -0.3938  1.4293
   87MOL   H27129683   6.607   7.471   2.177  1.4372 -0.3732  2.1335
   87MOL   H27229684   6.395   7.482   2.320 -1.9451  0.2174  0.9369
   87MOL   H27329685   6.256   7.276   2.348 -1.3385 -1.4194 -1.7898
   87MOL   C27429686   6.069   6.973   2.266 -0.7296  1.0286 -0.5628
   87MOL   C27529687   5.982   7.051   2.163 -0.2881 -0.1221  0.0584
   87MOL   C27629688   5.837   7.006   2.179 -0.3293 -0.1119 -0.2021
   87MOL   C27729689   5.750   7.078   2.258 -0.1561 -0.7159 -0.4350
   87MOL   C27829690   5.618   7.040   2.273 -0.2428 -0.2815 -0.0946
   87MOL   C27929691   5.568   6.927   2.201  0.8792 -0.0767 -0.1538
   87MOL   C28029692   5.653   6.862   2.108 -0.3049 -1.2396  0.0134
   87MOL   C28129693   5.787   6.901   2.104 -0.1713  0.0133 -0.4300
   87MOL   O28229694   6.041   7.021   2.036 -0.1463 -0.2036 -0.2516
   87MOL   H28329695   6.086   6.868   2.241  1.6582  0.8855  1.4176
   87MOL   H28429696   6.010   6.973   2.358 -1.7392  0.9943 -1.2020
   87MOL   H28529697   5.994   7.157   2.185 -1.9946  0.1656 -0.3228
   87MOL   H28629698   5.782   7.155   2.327  0.3464 -0.6759 -0.7084
   87MOL   H28729699   5.551   7.094   2.339 -0.0267 -1.4925  1.1379
   87MOL   H28829700   5.462   6.907   2.205  0.7515  0.6179 -0.0802
   87MOL   H28929701   5.607   6.786   2.047 -2.3284  0.6231 -0.8739
   87MOL   H29029702   5.848   6.837   2.042  0.2502 -0.7330  0.7362
   87MOL   C29129703   5.993   7.108   1.937  0.0033  0.4355  0.1589
   87MOL   C29229704   6.047   7.087   1.794  0.0272 -0.1234  0.0237
   87MOL   C29329705   6.196   7.050   1.799 -1.0897 -0.0352 -0.1108
   87MOL   C29429706   6.247   6.929   1.856  0.1946  0.7646 -0.0676
   87MOL   C29529707   6.380   6.904   1.862 -0.3397  0.8179  0.5177
   87MOL   C29629708   6.472   7.000   1.817 -0.0146  0.0167  0.3599
   87MOL   C29729709   6.427   7.120   1.759 -0.4717 -0.4882 -0.4966
   87MOL   C29829710   6.289   7.146   1.755 -0.3214  0.1032  0.6129
   87MOL   O29929711   5.966   6.995   1.723  0.2915 -0.4590  0.4505
   87MOL   H30029712   6.027   7.203   1.979 -0.0531  1.1322 -1.3498
   87MOL   H30129713   5.885   7.109   1.930  0.0162 -0.2930 -0.2435
   87MOL   H30229714   6.031   7.173   1.728 -0.7007 -3.0717 -3.7886
   87MOL   H30329715   6.176   6.858   1.896 -0.7598  2.8083  1.9759
   87MOL   H30429716   6.412   6.806   1.895 -1.5145  0.1476 -0.2973
   87MOL   H30529717   6.579   6.987   1.823  0.1135  0.0127 -1.5233
   87MOL   H30629718   6.490   7.203   1.730 -0.4105 -0.1881  0.4833
   87MOL   H30729719   6.248   7.238   1.716  2.1321  1.6994  1.6889
   87MOL   C30829720   6.004   6.969   1.586  0.1239  0.3889 -0.4997
   87MOL   C30929721   5.963   6.825   1.558 -0.0485  0.1222  0.0748
   87MOL   C31029722   5.811   6.825   1.561 -0.1914  0.5754  0.2741
   87MOL   C31129723   5.749   6.800   1.687  0.3022  0.1494 -0.2915
   87MOL   C31229724   5.610   6.811   1.702  0.5150  0.0076 -0.3782
   87MOL   C31329725   5.523   6.830   1.596  0.3829 -0.6134  0.2656
   87MOL   C31429726   5.582   6.864   1.470  0.2733  0.3773  0.1969
   87MOL   C31529727   5.724   6.855   1.447  0.0443 -0.4713  0.2563
   87MOL   O31629728   6.013   6.785   1.430 -0.3161 -0.0217 -0.1198
   87MOL   H31729729   6.110   6.964   1.561 -0.2921 -2.7014 -1.9765
   87MOL   H31829730   5.952   7.030   1.512 -2.1958 -0.3804  0.4361
   87MOL   H31929731   6.010   6.761   1.634 -1.3464 -1.6295 -0.5702
   87MOL   H32029732   5.810   6.776   1.772  0.5496 -3.2514 -1.3325
   87MOL   H32129733   5.570   6.793   1.801 -0.5200 -0.1929 -0.8305
   87MOL   H32229734   5.415   6.818   1.601  0.3875 -1.1431 -0.7601
   87MOL   H32329735   5.514   6.868   1.386 -0.5300  1.8079  0.9018
   87MOL   H32429736   5.773   6.871   1.352 -0.0510 -1.3424  0.0571
   87MOL   C32529737   6.018   6.640   1.417 -0.8365  0.0882 -0.1446
   87MOL   C32629738   6.092   6.597   1.290 -0.1691  0.1690  0.4292
   87MOL   C32729739   6.047   6.653   1.158 -0.7248  0.1370 -0.0525
   87MOL   C32829740   6.130   6.642   1.045  0.0134 -0.1846  0.2768
   87MOL   C32929741   6.092   6.691   0.923 -0.0622 -0.0488 -0.2542
   87MOL   C33029742   5.969   6.755   0.905  0.6203  1.0920 -0.6195
   87MOL   C33129743   5.890   6.771   1.017  0.0503  0.2063  0.7746
   87MOL   C33229744   5.928   6.722   1.142 -0.0341 -0.3062  0.0943
   87MOL   O33329745   6.237   6.621   1.306 -0.0487  0.2525 -0.0823
   87MOL   H33429746   5.914   6.607   1.411 -1.0624  0.5667  1.0711
   87MOL   H33529747   6.067   6.594   1.502  0.5812  2.2965  0.2751
   87MOL   H33629748   6.077   6.491   1.266 -0.6027  0.7789 -2.1145
   87MOL   H33729749   6.226   6.593   1.054  0.7432  0.5259 -2.9371
   87MOL   H33829750   6.149   6.669   0.835 -1.8911  2.4926 -2.1559
   87MOL   H33929751   5.930   6.792   0.811  0.7441  1.2267 -0.6176
   87MOL   H34029752   5.803   6.835   1.004 -0.0554 -0.4472 -2.1774
   87MOL   H34129753   5.874   6.753   1.230  0.5471  0.5710  0.1488
   87MOL   H34229754   6.234   6.714   1.318 -0.9280  0.1286  0.7322
   88MOL     C129755   3.506   1.307   0.081  0.2509  0.3475 -0.0150
   88MOL     C229756   3.356   1.287   0.081  0.5237 -0.7045  0.0931
   88MOL     C329757   3.304   1.169   0.164  0.3437  0.0916 -0.0427
   88MOL     C429758   3.283   1.045   0.106 -0.2970 -0.5783  0.8885
   88MOL     C529759   3.236   0.940   0.186  0.0914  0.1733 -0.0818
   88MOL     C629760   3.201   0.955   0.324 -0.1384  0.6376  0.4283
   88MOL     C729761   3.228   1.078   0.381  0.0056 -0.2415 -0.0295
   88MOL     C829762   3.284   1.186   0.309  0.6156 -0.5397  0.5217
   88MOL     O929763   3.327   1.275   8.022 -0.5875  0.1975  0.0635
   88MOL    H1029764   3.547   1.208   0.061 -0.6237 -0.5776  2.5818
   88MOL    H1129765   3.535   1.377   0.003 -0.2924 -1.1375 -1.5772
   88MOL    H1229766   3.317   1.379   0.126 -2.2942 -1.5003 -0.5837
   88MOL    H1329767   3.303   1.033   0.001 -0.2044  0.2189  0.8057
   88MOL    H1429768   3.227   0.842   0.142 -0.6713  0.6618 -1.0250
   88MOL    H1529769   3.153   0.874   0.377  0.1665  1.1173  1.4499
   88MOL    H1629770   3.198   1.107   0.480 -2.8717  1.6526 -1.4001
   88MOL    H1729771   3.293   1.284   0.353 -0.0079 -1.1822  2.1140
   88MOL    H1829772   3.534   1.351   0.176  1.0982 -0.0606 -0.0697
   88MOL    C1929773   3.226   1.354   7.973  0.5799 -0.7647  0.3482
   88MOL    C2029774   3.191   1.332   7.821 -0.5693 -0.9210  0.4395
   88MOL    C2129775   3.157   1.463   7.739  0.2698 -0.1355  0.2963
   88MOL    C2229776   3.229   1.483   7.622  0.9021 -0.6472  0.9294
   88MOL    C2329777   3.209   1.608   7.556 -0.1745  1.0397  0.2542
   88MOL    C2429778   3.115   1.702   7.607 -0.3274 -0.3513  0.9682
   88MOL    C2529779   3.038   1.676   7.720  0.5245 -0.3941  0.1854
   88MOL    C2629780   3.061   1.554   7.786 -0.0556 -0.3812 -0.6819
   88MOL    O2729781   3.082   1.238   7.811 -0.1146  0.5214 -0.1789
   88MOL    H2829782   3.133   1.357   8.030 -0.3821 -0.8204 -1.2137
   88MOL    H2929783   3.253   1.459   7.991  0.1981 -0.3052 -1.6076
   88MOL    H3029784   3.277   1.286   7.772 -1.2609  0.8071 -2.5167
   88MOL    H3129785   3.309   1.418   7.590  0.2244 -0.4888 -1.1603
   88MOL    H3229786   3.246   1.623   7.456 -2.0797  0.5446 -0.5368
   88MOL    H3329787   3.116   1.799   7.560  1.1155 -0.1606  1.3612
   88MOL    H3429788   2.975   1.751   7.764  2.7103  2.7489 -1.8361
   88MOL    H3529789   3.003   1.530   7.874  2.4013 -0.3553  0.9934
   88MOL    C3629790   3.107   1.112   7.856 -0.1971  0.0450  0.6516
   88MOL    C3729791   2.998   1.016   7.798 -1.1694 -0.3014  0.2723
   88MOL    C3829792   3.012   0.879   7.865 -0.5420  0.0064  0.1998
   88MOL    C3929793   2.988   0.874   8.000 -0.1629  0.3309  0.4048
   88MOL    C4029794   2.982   0.747   8.061  0.0265 -0.2814 -0.1717
   88MOL    C4129795   3.027   0.634   7.996  0.3841  0.4718 -0.7297
   88MOL    C4229796   3.079   0.644   7.869 -0.3103 -0.2166 -0.8794
   88MOL    C4329797   3.063   0.765   7.793 -0.4659 -0.0482 -0.1719
   88MOL    O4429798   3.021   1.004   7.656  0.2210  0.7581  0.1210
   88MOL    H4529799   3.208   1.084   7.825 -1.3079 -1.9314 -1.2857
   88MOL    H4629800   3.109   1.107   7.965 -0.3433  0.3540  0.6685
   88MOL    H4729801   2.895   1.048   7.815 -1.1839  0.8247 -1.7794
   88MOL    H4829802   2.954   0.960   8.056 -1.2725  0.1995 -0.0635
   88MOL    H4929803   2.925   0.747   0.073  1.5685  2.8737  0.8188
   88MOL    H5029804   3.016   0.536   8.040  1.0356  0.2442 -1.0655
   88MOL    H5129805   3.103   0.548   7.826 -0.2932 -0.5552 -0.1274
   88MOL    H5229806   3.083   0.762   7.687 -1.1508  2.5387 -0.4105
   88MOL    C5329807   2.904   0.969   7.588  0.3185  0.1506 -0.6088
   88MOL    C5429808   2.938   0.943   7.443 -0.8061  0.1778  0.0563
   88MOL    C5529809   3.029   0.822   7.422  0.1551 -0.0649  0.0029
   88MOL    C5629810   2.986   0.691   7.443 -0.4589  0.5028  0.6422
   88MOL    C5729811   3.068   0.577   7.410  0.4576  0.4439  0.1872
   88MOL    C5829812   3.187   0.599   7.341  0.6211  0.0605  0.4172
   88MOL    C5929813   3.243   0.730   7.335  0.9635 -0.3028  0.6338
   88MOL    C6029814   3.160   0.843   7.368 -0.0728 -0.1917 -0.3192
   88MOL    O6129815   2.813   0.925   7.375 -0.6541 -0.2117 -0.1101
   88MOL    H6229816   2.834   0.897   7.631 -1.3192  1.6594 -0.6962
   88MOL    H6329817   2.844   1.061   7.588 -0.6832 -0.4899  0.6271
   88MOL    H6429818   2.990   1.032   7.406 -0.7406  0.6050  1.1420
   88MOL    H6529819   2.888   0.677   7.486 -0.8927 -0.8454 -0.6998
   88MOL    H6629820   3.026   0.478   7.425 -1.0432  0.9610 -0.4228
   88MOL    H6729821   3.249   0.523   7.296  1.4871  1.7893 -1.3986
   88MOL    H6829822   3.336   0.744   7.282 -0.1235  0.3813 -1.1563
   88MOL    H6929823   3.214   0.936   7.369  0.3248 -0.4140 -0.9953
   88MOL    C7029824   2.779   1.040   7.290 -0.0569  1.1705  0.6456
   88MOL    C7129825   2.651   1.037   7.206  0.0554  0.8323  0.1524
   88MOL    C7229826   2.608   0.898   7.165  0.7794 -0.1703  0.4958
   88MOL    C7329827   2.641   0.831   7.043 -0.2141 -0.6175  0.3366
   88MOL    C7429828   2.588   0.706   7.008  0.5171 -0.3280  0.2555
   88MOL    C7529829   2.497   0.646   7.091 -1.1092  0.3102  0.5211
   88MOL    C7629830   2.466   0.706   7.212 -0.2828 -0.3121  0.3053
   88MOL    C7729831   2.512   0.833   7.247  0.1532  0.0004 -0.1794
   88MOL    O7829832   2.659   1.127   7.099  0.2742  0.4025 -0.2692
   88MOL    H7929833   2.784   1.135   7.342 -1.9988  1.8314 -0.3375
   88MOL    H8029834   2.859   1.063   7.219 -1.8232  1.7687 -1.1859
   88MOL    H8129835   2.577   1.084   7.271 -1.9632 -1.3099 -0.5487
   88MOL    H8229836   2.695   0.876   6.961 -0.2479 -1.6409 -0.2633
   88MOL    H8329837   2.594   0.674   6.905  0.4657  0.6996 -0.0671
   88MOL    H8429838   2.445   0.557   7.058  1.8242 -1.6470  1.0025
   88MOL    H8529839   2.373   0.680   7.260  0.2389 -1.4293  0.7189
   88MOL    H8629840   2.465   0.886   7.328 -1.4740 -3.5349  1.2983
   88MOL    C8729841   2.531   1.160   7.045 -0.2910  0.4927  0.4371
   88MOL    C8829842   2.504   1.308   7.089 -0.4882 -0.3544  0.1034
   88MOL    C8929843   2.624   1.392   7.043 -0.2644 -0.1050 -0.5805
   88MOL    C9029844   2.725   1.419   7.140 -0.0945  0.2711  0.2515
   88MOL    C9129845   2.834   1.496   7.110  0.8993  0.7846  0.0741
   88MOL    C9229846   2.836   1.563   6.983 -0.4148 -0.0984 -0.3512
   88MOL    C9329847   2.729   1.552   6.889 -0.0517  0.2574 -0.1500
   88MOL    C9429848   2.625   1.455   6.916  0.3306 -0.4364  0.0868
   88MOL    O9529849   2.481   1.301   7.230 -0.1849 -0.4944  0.1836
   88MOL    H9629850   2.444   1.099   7.069 -0.1534 -0.9200 -2.3933
   88MOL    H9729851   2.540   1.152   6.936  0.1314  1.5213  0.3900
   88MOL    H9829852   2.413   1.346   7.041 -1.1749 -0.5872  1.2132
   88MOL    H9929853   2.720   1.385   7.243  1.7391  1.1842  0.6683
   88MOL   H10029854   2.911   1.520   7.182  1.5622 -0.3138 -0.2555
   88MOL   H10129855   2.928   1.618   6.966 -1.0511  1.1204  0.1067
   88MOL   H10229856   2.724   1.607   6.797  0.0295 -1.8888 -1.4797
   88MOL   H10329857   2.544   1.433   6.848 -0.1217 -1.2293  0.8713
   88MOL   C10429858   2.412   1.418   7.282  0.4053  0.2343  0.1179
   88MOL   C10529859   2.425   1.441   7.429  0.7235  0.3903 -0.6836
   88MOL   C10629860   2.576   1.453   7.461  0.0386 -0.2521  0.3515
   88MOL   C10729861   2.656   1.571   7.441  0.4499  0.6176  0.2244
   88MOL   C10829862   2.790   1.579   7.454  0.2043  0.5905  1.2285
   88MOL   C10929863   2.853   1.457   7.494 -0.9666 -0.3961 -0.3609
   88MOL   C11029864   2.779   1.342   7.525  0.1871 -1.0499  0.2440
   88MOL   C11129865   2.642   1.342   7.509 -0.9799  0.5544 -0.2362
   88MOL   O11229866   2.353   1.554   7.483 -0.2267  1.0925 -0.6786
   88MOL   H11329867   2.444   1.507   7.228 -1.6591  1.1260  0.2994
   88MOL   H11429868   2.306   1.406   7.256  1.0606 -1.0193 -2.1517
   88MOL   H11529869   2.386   1.354   7.483 -1.4752  1.8164  0.1165
   88MOL   H11629870   2.612   1.659   7.396 -0.8739 -0.0613  0.1560
   88MOL   H11729871   2.834   1.677   7.443  0.3600  0.2891 -1.1107
   88MOL   H11829872   2.960   1.453   7.511 -1.2007 -1.2372  0.9715
   88MOL   H11929873   2.827   1.248   7.547 -0.3330 -1.2060  0.7130
   88MOL   H12029874   2.590   1.248   7.514  2.6003 -1.5244 -0.8752
   88MOL   C12129875   2.209   1.533   7.498  0.3098 -0.4094  0.8178
   88MOL   C12229876   2.178   1.438   7.618  0.3359 -0.0294  0.2395
   88MOL   C12329877   2.054   1.474   7.691  0.9682 -0.9077  1.0367
   88MOL   C12429878   2.057   1.526   7.820 -0.5344  0.6121  0.8572
   88MOL   C12529879   1.941   1.555   7.897 -0.3912  0.4119 -0.3831
   88MOL   C12629880   1.820   1.532   7.837  0.5042  0.7198 -0.2493
   88MOL   C12729881   1.810   1.487   7.700 -0.0198 -0.7415  0.4481
   88MOL   C12829882   1.931   1.458   7.626 -0.0965  0.4088  0.4695
   88MOL   O12929883   2.174   1.306   7.561  0.8199 -0.3602  0.7365
   88MOL   H13029884   2.160   1.496   7.408  1.9678 -0.0062 -0.2603
   88MOL   H13129885   2.163   1.632   7.506 -0.1199 -0.3791 -1.5502
   88MOL   H13229886   2.268   1.455   7.677  0.4953  0.8752 -0.2447
   88MOL   H13329887   2.151   1.544   7.870 -0.1117 -1.9257  1.0529
   88MOL   H13429888   1.943   1.588   7.999 -0.6944  1.1418 -0.6101
   88MOL   H13529889   1.729   1.568   7.883  0.0059 -0.2899 -0.4521
   88MOL   H13629890   1.712   1.477   7.656 -0.0410  1.1430  0.0259
   88MOL   H13729891   1.935   1.424   7.523  0.8409  0.3890  0.5153
   88MOL   C13829892   2.150   1.208   7.667  0.8046 -0.6134 -0.5357
   88MOL   C13929893   2.209   1.078   7.618  0.0896 -0.6091 -0.3629
   88MOL   C14029894   2.161   1.034   7.482 -0.6287 -0.5405 -0.0603
   88MOL   C14129895   2.047   0.954   7.468 -0.3906  0.0355 -0.1443
   88MOL   C14229896   2.000   0.915   7.345 -0.1229 -0.3699 -0.1136
   88MOL   C14329897   2.075   0.943   7.228  0.0784  0.3267 -0.1726
   88MOL   C14429898   2.188   1.019   7.243 -0.3997 -0.7598  0.3796
   88MOL   C14529899   2.233   1.067   7.369  0.4226  0.1691 -0.5366
   88MOL   O14629900   2.351   1.089   7.626 -0.2899 -0.0534 -0.3588
   88MOL   H14729901   2.044   1.183   7.672  0.8864 -0.9221 -0.3700
   88MOL   H14829902   2.176   1.240   7.768  1.4554 -1.4370 -0.4311
   88MOL   H14929903   2.178   1.012   7.699  0.6213 -2.5904 -1.7162
   88MOL   H15029904   2.010   0.904   7.556  0.1615  0.8068  0.5300
   88MOL   H15129905   1.916   0.848   7.336  0.1692 -0.7909  0.2487
   88MOL   H15229906   2.040   0.906   7.133 -0.0832 -1.2129  0.4658
   88MOL   H15329907   2.253   1.045   7.160 -1.7077  0.2845 -0.3339
   88MOL   H15429908   2.325   1.119   7.387  1.7656 -2.1422 -0.5666
   88MOL   C15529909   2.416   0.966   7.594  0.3535  0.0580  0.0541
   88MOL   C15629910   2.464   0.883   7.717  0.5096  0.0391  0.1536
   88MOL   C15729911   2.502   0.739   7.693 -0.0609  0.0994 -0.2372
   88MOL   C15829912   2.616   0.709   7.615  1.2536  0.2431 -0.0753
   88MOL   C15929913   2.647   0.573   7.590 -0.6869  0.0023 -0.2083
   88MOL   C16029914   2.565   0.469   7.645  0.0194 -0.1922  0.0694
   88MOL   C16129915   2.456   0.502   7.725  0.0831  0.1897 -0.0038
   88MOL   C16229916   2.423   0.637   7.745  0.1632  0.3240  0.0448
   88MOL   O16329917   2.574   0.953   7.765  0.1021  0.1027  0.0725
   88MOL   H16429918   2.505   0.991   7.535  0.2924  1.1251  0.4066
   88MOL   H16529919   2.349   0.908   7.531  3.4041 -1.3863 -1.9962
   88MOL   H16629920   2.388   0.900   7.793 -0.9875  1.7273 -1.6654
   88MOL   H16729921   2.681   0.777   7.563  0.2050  1.5917  0.3437
   88MOL   H16829922   2.738   0.537   7.544 -0.4074 -1.0452  1.1615
   88MOL   H16929923   2.587   0.367   7.618  2.3499  0.1242  0.6446
   88MOL   H17029924   2.394   0.422   7.762  1.2670 -1.3863 -1.3819
   88MOL   H17129925   2.339   0.664   7.808 -0.3816 -0.0710 -0.5091
   88MOL   C17229926   2.617   0.919   7.897 -0.2271  0.0791 -0.4965
   88MOL   C17329927   2.553   0.999   8.008  0.9257  0.1306 -0.0564
   88MOL   C17429928   2.654   1.053   0.034 -0.1546 -0.2705  0.2623
   88MOL   C17529929   2.721   1.174   8.078 -0.1012 -0.1529  0.8031
   88MOL   C17629930   2.823   1.228   0.088  0.0015  0.2374 -0.3498
   88MOL   C17729931   2.866   1.140   0.196 -0.4460 -0.8566 -0.0683
   88MOL   C17829932   2.811   1.010   0.214  0.2548  0.3517 -0.9495
   88MOL   C17929933   2.707   0.966   0.133 -0.3824 -0.1862  0.0367
   88MOL   O18029934   2.451   0.907   8.057  0.2698  0.1559 -0.1641
   88MOL   H18129935   2.611   0.812   7.917  3.7464  0.1526  1.4618
   88MOL   H18229936   2.724   0.938   7.900 -0.8189  3.3914  0.9800
   88MOL   H18329937   2.514   1.091   7.965 -1.1757  0.0543  1.6030
   88MOL   H18429938   2.693   1.241   7.998 -1.1288 -0.5161  0.8483
   88MOL   H18529939   2.870   1.324   0.072  0.7920  0.1432  1.3216
   88MOL   H18629940   2.940   1.180   0.264  1.8827 -1.4892 -2.1408
   88MOL   H18729941   2.854   0.962   0.300 -0.1096  0.9975 -0.4065
   88MOL   H18829942   2.661   0.871   0.157 -0.3151 -0.5841 -1.3664
   88MOL   C18929943   2.365   0.961   0.076 -0.1348  0.3373  0.5579
   88MOL   C19029944   2.288   0.847   0.131  0.4528 -1.6853 -0.3560
   88MOL   C19129945   2.159   0.887   0.202  0.3450 -0.0493  0.8856
   88MOL   C19229946   2.034   0.837   0.177  0.6707  0.5511  0.4235
   88MOL   C19329947   1.918   0.882   0.243 -0.5252 -0.2121  0.5299
   88MOL   C19429948   1.933   0.992   0.330  0.8242  0.4919 -0.1896
   88MOL   C19529949   2.056   1.056   0.346  0.4129 -0.2642 -0.0807
   88MOL   C19629950   2.171   0.994   0.299  0.0870 -0.7045 -0.8598
   88MOL   O19729951   2.385   0.781   0.218  0.1326 -0.5266  0.1789
   88MOL   H19829952   2.421   1.015   0.153  2.3281  0.8994 -1.5893
   88MOL   H19929953   2.310   1.030   0.012 -0.9358 -1.3985 -0.6634
   88MOL   H20029954   2.267   0.795   0.037 -1.1597  1.5889 -1.8627
   88MOL   H20129955   2.037   0.754   0.108  0.8328 -0.4945  1.6636
   88MOL   H20229956   1.819   0.841   0.228  0.2096 -1.2802 -1.6692
   88MOL   H20329957   1.849   1.038   0.380  0.7011 -0.2297  0.2697
   88MOL   H20429958   2.057   1.150   0.399 -0.0052  0.1967 -0.8663
   88MOL   H20529959   2.264   1.040   0.327  0.5284 -0.7071 -2.2680
   88MOL   C20629960   2.357   0.650   0.254 -0.2580 -0.7110 -0.3373
   88MOL   C20729961   2.489   0.599   0.298  0.1803 -0.0099 -0.0733
   88MOL   C20829962   2.579   0.550   0.178 -0.2469  0.3017 -0.4606
   88MOL   C20929963   2.574   0.596   0.042 -0.0090  0.2939 -0.0215
   88MOL   C21029964   2.668   0.546   8.026 -0.4201  0.1483  0.4626
   88MOL   C21129965   2.756   0.447   8.070 -0.4556 -0.4557 -0.8783
   88MOL   C21229966   2.759   0.400   0.122 -0.3926 -0.0263  0.4248
   88MOL   C21329967   2.683   0.465   0.218 -0.3036 -0.4728  0.6844
   88MOL   O21429968   2.463   0.494   0.391  0.0222 -0.0869 -0.1433
   88MOL   H21529969   2.279   0.649   0.330 -0.7206 -2.8027 -0.8069
   88MOL   H21629970   2.317   0.587   0.174  1.1348 -0.2645 -1.4147
   88MOL   H21729971   2.551   0.681   0.334  0.7978  0.0021 -1.1379
   88MOL   H21829972   2.504   0.669   0.003  2.1837  1.9887 -0.9084
   88MOL   H21929973   2.655   0.570   7.921  0.8535  1.3981  0.5759
   88MOL   H22029974   2.824   0.400   8.000  1.7840 -1.0208  1.5996
   88MOL   H22129975   2.835   0.327   0.146  1.1228  1.1320 -0.7168
   88MOL   H22229976   2.694   0.439   0.322  1.4459 -1.9079  0.1666
   88MOL   C22329977   2.497   0.529   0.522 -0.0722  0.6957  0.9658
   88MOL   C22429978   2.528   0.409   0.613 -0.3298  0.2383 -0.5961
   88MOL   C22529979   2.580   0.448   0.746 -0.2317  0.2974 -0.8037
   88MOL   C22629980   2.721   0.471   0.769  0.1059  0.0131 -0.1783
   88MOL   C22729981   2.771   0.534   0.888 -0.4798 -0.5669 -0.1085
   88MOL   C22829982   2.681   0.554   0.992  0.2252  0.6491 -0.4368
   88MOL   C22929983   2.543   0.533   0.976 -0.5146  0.4583 -0.2936
   88MOL   C23029984   2.497   0.484   0.853  0.4295 -0.5210 -0.1546
   88MOL   O23129985   2.409   0.331   0.627 -0.1800  0.0370 -0.2316
   88MOL   H23229986   2.590   0.586   0.521  1.4922 -1.8134  0.0572
   88MOL   H23329987   2.422   0.594   0.568 -2.3432 -0.2465 -1.3036
   88MOL   H23429988   2.606   0.350   0.566 -0.4519  0.4686 -1.0871
   88MOL   H23529989   2.789   0.444   0.690 -1.4772 -3.1131 -0.5179
   88MOL   H23629990   2.878   0.545   0.899 -0.3184 -2.5340  0.6285
   88MOL   H23729991   2.706   0.596   1.089 -0.5826 -0.2598  0.1740
   88MOL   H23829992   2.474   0.555   1.057 -0.6923  0.5769 -0.4755
   88MOL   H23929993   2.391   0.474   0.840  0.3173 -0.2031  0.4687
   88MOL   C24029994   2.439   0.191   0.658  0.1475  0.1147  0.6321
   88MOL   C24129995   2.463   0.092   0.542  0.4177  0.4525  0.4867
   88MOL   C24229996   2.339   0.087   0.453 -0.1814 -0.6053 -0.0336
   88MOL   C24329997   2.323   0.188   0.359  0.0064  0.8957  0.5712
   88MOL   C24429998   2.212   0.195   0.274 -0.0544  0.3044 -0.0323
   88MOL   C24529999   2.119   0.090   0.285  0.5411 -0.3936 -0.4065
   88MOL   C24630000   2.126   8.075   0.392 -0.1336 -0.3288  0.2037
   88MOL   C24730001   2.239   8.072   0.471 -0.3036 -0.3667 -0.2950
   88MOL   O24830002   2.586   0.115   0.476  0.1499  0.2600 -0.4399
   88MOL   H24930003   2.517   0.201   0.733 -0.1626 -3.1726  1.4635
   88MOL   H25030004   2.347   0.158   0.707 -0.7780  1.7299  0.0215
   88MOL   H25130005   2.481   8.074   0.585 -0.9333 -0.4024 -0.8229
   88MOL   H25230006   2.396   0.261   0.329 -0.7340  1.0130 -0.9715
   88MOL   H25330007   2.198   0.265   0.193  1.3201  0.0026 -0.5349
   88MOL   H25430008   2.038   0.082   0.214 -0.6427  0.8452  0.7797
   88MOL   H25530009   2.063   7.988   0.397 -2.4150  1.2500 -0.1788
   88MOL   H25630010   2.261   7.997   0.545 -2.4366 -0.6470  0.0825
   88MOL   C25730011   2.634   0.001   0.400 -0.8239 -0.4850  0.2033
   88MOL   C25830012   2.713   0.050   0.276 -0.5078 -0.0579 -0.5726
   88MOL   C25930013   2.699   8.035   0.155 -0.4877  0.4635 -0.6645
   88MOL   C26030014   2.805   7.992   0.077 -0.9812 -0.2091 -0.4071
   88MOL   C26130015   2.781   7.924   8.034 -0.1021 -0.1757  0.5044
   88MOL   C26230016   2.647   7.905   7.985  0.6665 -0.6341 -0.8444
   88MOL   C26330017   2.541   7.948   8.068  0.3131  0.0517  0.0926
   88MOL   C26430018   2.567   8.017   0.105 -0.1161 -0.7396  0.0559
   88MOL   O26530019   2.854   0.061   0.298  0.2876  0.3549 -0.4016
   88MOL   H26630020   2.548   8.020   0.373 -0.1136 -1.1954 -0.4739
   88MOL   H26730021   2.697   8.013   0.457  2.3166  1.9567 -0.2679
   88MOL   H26830022   2.668   0.147   0.253  3.1364  1.8992  0.2275
   88MOL   H26930023   2.906   8.001   0.113 -0.5337  1.7840 -2.0662
   88MOL   H27030024   2.860   7.879   7.976  1.8137  2.7665  0.6910
   88MOL   H27130025   2.633   7.842   7.898  3.4301  0.4742 -2.1515
   88MOL   H27230026   2.444   7.914   8.035 -0.6927  1.6651  1.3502
   88MOL   H27330027   2.476   8.046   0.157  0.2105 -1.2270  0.9149
   88MOL   C27430028   2.890   0.161   0.393 -0.6628  0.0375  0.0523
   88MOL   C27530029   3.045   0.174   0.400  0.1901 -0.6589  0.5334
   88MOL   C27630030   3.112   0.078   0.493  0.1855 -0.1993 -0.2142
   88MOL   C27730031   3.245   0.112   0.524 -0.1958 -0.2083  0.1704
   88MOL   C27830032   3.318   0.044   0.621  0.1717  0.4408  0.5026
   88MOL   C27930033   3.249   8.022   0.693 -0.0275 -0.0531  0.0637
   88MOL   C28030034   3.121   7.975   0.661  0.0372 -0.1783  0.5417
   88MOL   C28130035   3.049   8.048   0.564 -0.0342 -0.5401  0.0002
   88MOL   O28230036   3.073   0.312   0.438  0.2663 -0.1073  0.1153
   88MOL   H28330037   2.853   0.260   0.366 -2.9528 -1.1888 -1.4681
   88MOL   H28430038   2.842   0.142   0.489 -2.0866 -1.3189 -0.8960
   88MOL   H28530039   3.072   0.154   0.296  0.3069 -1.2597  0.6793
   88MOL   H28630040   3.293   0.194   0.472  2.4027 -0.9950  1.2640
   88MOL   H28730041   3.419   0.070   0.649  0.0326  2.3067 -0.6751
   88MOL   H28830042   3.298   7.970   0.774  0.3552  1.4181  0.7876
   88MOL   H28930043   3.080   7.900   0.727 -1.9468  2.5619  2.6107
   88MOL   H29030044   2.945   8.023   0.546 -0.2516 -1.1345  1.9602
   88MOL   C29130045   3.118   0.392   0.326  0.0938 -0.0429 -0.4512
   88MOL   C29230046   3.163   0.537   0.367  0.2247  1.2395 -0.3567
   88MOL   C29330047   3.049   0.607   0.443 -0.5206 -0.1872  0.3642
   88MOL   C29430048   2.942   0.648   0.367  0.1862  0.4089  0.4623
   88MOL   C29530049   2.843   0.732   0.421 -0.2741 -0.6155 -0.0054
   88MOL   C29630050   2.855   0.785   0.553 -0.1320 -0.0552  1.0630
   88MOL   C29730051   2.959   0.732   0.631 -1.0283  0.7283  0.0309
   88MOL   C29830052   3.061   0.647   0.577  0.1983 -0.3478  0.0525
   88MOL   O29930053   3.289   0.541   0.430  0.3204  0.4509 -0.1283
   88MOL   H30030054   3.040   0.406   0.251 -1.6847  1.9264  1.6763
   88MOL   H30130055   3.208   0.354   0.277  1.2747  0.3835  1.3308
   88MOL   H30230056   3.162   0.591   0.272  0.3635 -0.2317 -1.2067
   88MOL   H30330057   2.940   0.621   0.263 -1.6288  3.0224 -0.2429
   88MOL   H30430058   2.769   0.770   0.353  0.7249 -0.5362 -1.0566
   88MOL   H30530059   2.783   0.858   0.585  1.4233  2.0654 -0.1869
   88MOL   H30630060   2.972   0.752   0.737 -2.0381  0.4728  0.2146
   88MOL   H30730061   3.135   0.613   0.649 -0.3622 -1.3331  0.1741
   88MOL   C30830062   3.412   0.540   0.355  0.7665 -0.7827  0.4356
   88MOL   C30930063   3.507   0.411   0.368 -0.2580  0.6234  0.0650
   88MOL   C31030064   3.563   0.390   0.506  0.1542  0.0512 -1.0884
   88MOL   C31130065   3.697   0.398   0.531 -0.4080 -0.6769  0.2739
   88MOL   C31230066   3.751   0.369   0.657 -0.6713 -0.3518 -0.4007
   88MOL   C31330067   3.669   0.330   0.762  0.1211 -0.0190 -0.1629
   88MOL   C31430068   3.526   0.336   0.740 -0.6916 -0.1992  0.1568
   88MOL   C31530069   3.475   0.357   0.611 -0.0723  0.4030  0.2218
   88MOL   O31630070   3.438   0.299   0.309  0.1162  0.0200 -0.4046
   88MOL   H31730071   3.475   0.624   0.380  0.1310  0.6171 -2.4092
   88MOL   H31830072   3.392   0.562   0.250  0.5780 -0.3333  0.5680
   88MOL   H31930073   3.598   0.430   0.311 -0.0364 -2.2424 -0.6287
   88MOL   H32030074   3.771   0.422   0.456 -2.2416  1.8208 -0.8077
   88MOL   H32130075   3.857   0.378   0.674 -1.0875  0.9912  1.6854
   88MOL   H32230076   3.718   0.312   0.856  0.1890  0.2855 -0.1390
   88MOL   H32330077   3.454   0.322   0.819 -1.6675  1.8107 -0.3691
   88MOL   H32430078   3.368   0.357   0.597  0.2436 -1.4004 -2.5816
   88MOL   C32530079   3.519   0.189   0.280  0.4845  0.2190  0.2865
   88MOL   C32630080   3.438   0.096   0.189 -0.6851  0.3250  0.3951
   88MOL   C32730081   3.336   0.153   0.092  0.0980  0.9089 -0.1620
   88MOL   C32830082   3.213   0.091   0.076  0.7966 -0.2825  0.1576
   88MOL   C32930083   3.116   0.137   8.059  0.0436  0.2400  0.0197
   88MOL   C33030084   3.140   0.257   7.984  0.3532 -0.4520  0.4468
   88MOL   C33130085   3.267   0.314   7.998  0.1064 -0.1972  0.1780
   88MOL   C33230086   3.363   0.262   0.007  0.0689 -0.4925  0.3380
   88MOL   O33330087   3.527   0.003   0.128 -0.0785  0.0397 -0.0217
   88MOL   H33430088   3.562   0.143   0.369  1.1983 -0.5171 -0.4414
   88MOL   H33530089   3.593   0.235   0.214 -0.1547 -0.7605 -1.1375
   88MOL   H33630090   3.381   0.042   0.265 -1.8578 -0.9195 -1.3223
   88MOL   H33730091   3.180   0.013   0.144 -4.0852  0.4783 -1.1868
   88MOL   H33830092   3.015   0.098   8.065 -0.5410  1.8361  0.8117
   88MOL   H33930093   3.061   0.293   7.919  0.3432  1.6112  1.5609
   88MOL   H34030094   3.288   0.396   7.930 -0.6271 -0.0780  0.0908
   88MOL   H34130095   3.462   0.304   0.021 -0.4013  1.6339 -2.3276
   88MOL   H34230096   3.581   0.050   0.067  1.2290 -0.5635  0.6611
   89MOL     C130097   0.303   6.098   7.650 -0.2852 -0.0866 -0.1506
   89MOL     C230098   0.162   6.137   7.705 -1.2089  0.5921  0.6431
   89MOL     C330099   0.077   6.018   7.747  0.2356  0.0179  0.0268
   89MOL     C430100   0.091   5.955   7.874  0.3180  0.3529  0.5106
   89MOL     C530101   0.012   5.851   7.914 -0.0550 -0.3755  0.3502
   89MOL     C630102   7.990   5.803   7.831 -0.0301 -1.0096 -0.0619
   89MOL     C730103   7.972   5.869   7.704  0.1688  0.7627  0.1860
   89MOL     C830104   8.060   5.971   7.657 -0.3563  1.0210  0.0306
   89MOL     O930105   0.099   6.216   7.598  0.2808  0.2772  0.0630
   89MOL    H1030106   0.375   6.052   7.718  0.1167  0.2792 -0.3257
   89MOL    H1130107   0.293   6.021   7.573  7.0689 -2.5501  0.9885
   89MOL    H1230108   0.159   6.192   7.799  1.0545 -0.3175  1.2516
   89MOL    H1330109   0.175   5.983   7.936 -1.2852  1.4074  2.2212
   89MOL    H1430110   0.035   5.806   8.009 -0.4550  0.4407  0.8407
   89MOL    H1530111   7.937   5.716   7.868 -1.1825  0.3833  1.6800
   89MOL    H1630112   7.891   5.834   7.641  0.2522  0.9581 -0.0309
   89MOL    H1730113   8.066   6.015   7.559  1.9047 -0.6262 -0.6078
   89MOL    H1830114   0.349   6.183   7.600 -1.2086  0.2781 -0.3983
   89MOL    C1930115   0.117   6.351   7.602 -0.5222  0.3383 -0.2305
   89MOL    C2030116   0.071   6.427   7.475 -0.4190 -0.3038 -0.3308
   89MOL    C2130117   0.154   6.553   7.479  0.6632  0.4808 -0.4387
   89MOL    C2230118   0.116   6.669   7.544  1.0398  0.1180 -0.8033
   89MOL    C2330119   0.206   6.775   7.554 -0.1568  0.4425 -0.5685
   89MOL    C2430120   0.342   6.759   7.509  0.1923  0.3916 -0.4101
   89MOL    C2530121   0.382   6.638   7.442  0.1361 -0.8639  0.1528
   89MOL    C2630122   0.283   6.544   7.424  0.9510 -0.4276 -0.6093
   89MOL    O2730123   8.021   6.471   7.487 -0.1905  0.9086 -0.1781
   89MOL    H2830124   0.060   6.388   7.688  0.2527 -0.1827  0.5209
   89MOL    H2930125   0.222   6.374   7.615 -0.2923  0.0329 -1.5563
   89MOL    H3030126   0.079   6.372   7.382  1.8563  0.0762 -0.3781
   89MOL    H3130127   0.015   6.685   7.579  0.6274 -1.1860 -1.3625
   89MOL    H3230128   0.175   6.869   7.596  2.4615  1.1449 -0.1194
   89MOL    H3330129   0.403   6.845   7.528 -1.7532  1.3348  1.7704
   89MOL    H3430130   0.483   6.608   7.420  0.4593 -1.3948  2.2426
   89MOL    H3530131   0.300   6.459   7.359 -0.8418 -0.8243 -0.5621
   89MOL    C3630132   7.922   6.371   7.478  0.7919  0.0824  0.1970
   89MOL    C3730133   7.799   6.411   7.567  0.8219 -0.3295 -0.3743
   89MOL    C3830134   7.843   6.430   7.711  0.2222  0.3405 -0.1026
   89MOL    C3930135   7.830   6.553   7.772 -0.1691 -0.8065 -0.0937
   89MOL    C4030136   7.882   6.571   7.903  0.6109  0.0733  0.5074
   89MOL    C4130137   7.947   6.465   7.967 -0.1218  0.2780  0.2715
   89MOL    C4230138   7.961   6.342   7.908 -0.2719 -0.2238 -0.9195
   89MOL    C4330139   7.907   6.324   7.781  0.0004 -0.0881 -1.0535
   89MOL    O4430140   7.718   6.291   7.553  0.0734 -0.1407  0.0186
   89MOL    H4530141   7.903   6.345   7.373 -0.4279 -2.4382  1.0001
   89MOL    H4630142   7.963   6.275   7.510  0.0565  0.2758  1.7601
   89MOL    H4730143   7.754   6.501   7.525  2.2484  0.6956  0.2795
   89MOL    H4830144   7.772   6.634   7.731  0.4777 -0.8885 -1.1733
   89MOL    H4930145   7.866   6.662   7.960 -0.6298  0.1260  0.1065
   89MOL    H5030146   7.995   6.461   8.064  1.2073 -0.6133 -0.4091
   89MOL    H5130147   8.013   6.260   7.956  1.1778  0.7046 -0.8871
   89MOL    H5230148   7.909   6.230   7.727  2.1829  0.1687 -1.4605
   89MOL    C5330149   7.621   6.316   7.455 -0.5284 -0.3534 -0.2953
   89MOL    C5430150   7.546   6.185   7.422 -0.0295  0.5561  0.0387
   89MOL    C5530151   7.422   6.211   7.347 -0.5508 -0.3902  0.3224
   89MOL    C5630152   7.301   6.146   7.390 -0.0379  0.1207  0.0561
   89MOL    C5730153   7.182   6.176   7.318  0.4045 -0.0122  0.4055
   89MOL    C5830154   7.185   6.266   7.204  0.7169 -0.4506  0.6050
   89MOL    C5930155   7.301   6.335   7.165 -0.4442 -0.2846 -0.3990
   89MOL    C6030156   7.422   6.302   7.237  0.4650 -0.5630  0.4633
   89MOL    O6130157   7.621   6.098   7.338  0.3182  0.1498 -0.1839
   89MOL    H6230158   7.545   6.382   7.497  0.6802 -0.0494  1.4778
   89MOL    H6330159   7.657   6.350   7.357 -0.7383 -0.4759 -0.4142
   89MOL    H6430160   7.515   6.127   7.509  0.3535 -2.3565 -1.6960
   89MOL    H6530161   7.291   6.077   7.473 -1.2608  2.2815  1.7634
   89MOL    H6630162   7.090   6.123   7.334  0.7748 -0.3384  1.4459
   89MOL    H6730163   7.097   6.285   7.144  1.3621  0.3959 -0.0662
   89MOL    H6830164   7.297   6.407   7.084 -1.3673  2.0446  1.6300
   89MOL    H6930165   7.506   6.353   7.192  0.2068 -0.0184  0.6047
   89MOL    C7030166   7.753   6.043   7.380  0.2171  0.7961 -0.1720
   89MOL    C7130167   7.840   6.009   7.263 -0.4616 -0.1574 -0.2459
   89MOL    C7230168   7.951   5.909   7.304 -0.6894 -0.7292  0.1060
   89MOL    C7330169   7.926   5.770   7.305  1.0464 -0.2577  0.6749
   89MOL    C7430170   8.020   5.679   7.343 -0.2008  0.7986  0.3545
   89MOL    C7530171   0.068   5.718   7.373 -0.1231  0.0261  0.1591
   89MOL    C7630172   0.104   5.857   7.364  0.1790 -0.6220  0.0760
   89MOL    C7730173   0.006   5.956   7.330 -0.3057  0.5282 -0.2070
   89MOL    O7830174   7.905   6.124   7.204 -0.2124  0.3010 -0.9302
   89MOL    H7930175   7.814   6.111   7.439 -0.0898 -1.7417  3.2663
   89MOL    H8030176   7.739   5.950   7.436  2.6685 -0.7238 -1.9654
   89MOL    H8130177   7.787   5.956   7.183  1.2255  1.2366 -2.3706
   89MOL    H8230178   7.826   5.731   7.293  1.1431  0.7130 -3.8931
   89MOL    H8330179   7.996   5.574   7.350  0.9819  0.5544  0.9143
   89MOL    H8430180   0.128   5.640   7.417 -0.9860  0.2663  1.7965
   89MOL    H8530181   0.200   5.892   7.401  0.0236 -1.5028  1.3227
   89MOL    H8630182   0.022   6.063   7.337 -1.7562  0.6447  1.9050
   89MOL    C8730183   7.821   6.205   7.125  0.1296  0.3325 -0.5944
   89MOL    C8830184   7.904   6.329   7.075 -0.1508  0.1570  0.1694
   89MOL    C8930185   7.813   6.425   6.993 -0.4808 -0.2540  0.2136
   89MOL    C9030186   7.806   6.564   7.029 -0.5297  0.0587  0.2886
   89MOL    C9130187   7.711   6.647   6.967  0.3457 -0.4700  0.0096
   89MOL    C9230188   7.622   6.592   6.874  0.4893  0.8051 -0.4964
   89MOL    C9330189   7.626   6.454   6.834  0.3359  0.3001  0.4467
   89MOL    C9430190   7.723   6.375   6.894 -0.4010  0.2195  0.0819
   89MOL    O9530191   8.004   6.278   6.995  0.4971 -0.1617 -0.3008
   89MOL    H9630192   7.729   6.237   7.174  0.4725 -0.2595  0.4647
   89MOL    H9730193   7.791   6.147   7.037  1.3202 -1.1172 -0.0633
   89MOL    H9830194   7.945   6.380   7.162 -0.0713 -0.1656  0.3248
   89MOL    H9930195   7.883   6.602   7.095 -1.1865  0.7943  0.6441
   89MOL   H10030196   7.696   6.753   6.979 -1.7123 -0.8450  1.0414
   89MOL   H10130197   7.539   6.650   6.835 -0.3153 -0.1244 -0.2150
   89MOL   H10230198   7.562   6.408   6.759  2.2220  0.3365 -1.2225
   89MOL   H10330199   7.741   6.271   6.870  0.3987  0.6255 -1.1645
   89MOL   C10430200   0.022   6.379   6.962 -0.1189  0.7310 -0.6260
   89MOL   C10530201   0.159   6.345   7.024  0.1024 -0.0972 -0.6384
   89MOL   C10630202   0.203   6.205   6.983  0.5280  0.3967  0.6213
   89MOL   C10730203   0.176   6.099   7.068 -0.1645  0.2649  0.3016
   89MOL   C10830204   0.225   5.973   7.042 -0.2285  0.3307 -0.2901
   89MOL   C10930205   0.306   5.949   6.931 -0.8413 -0.7685  0.4687
   89MOL   C11030206   0.329   6.053   6.839 -0.3132  0.6289  0.1335
   89MOL   C11130207   0.282   6.180   6.869 -0.6190 -0.2187  0.6902
   89MOL   O11230208   0.254   6.445   6.991 -0.0615  0.2878 -0.1336
   89MOL   H11330209   0.033   6.382   6.853 -3.4416 -1.1792 -1.1130
   89MOL   H11430210   8.079   6.482   6.991 -0.7541  0.0633  1.2569
   89MOL   H11530211   0.153   6.338   7.132  1.0840  0.3715 -0.5450
   89MOL   H11630212   0.112   6.120   7.152 -0.7807 -0.2356 -0.0353
   89MOL   H11730213   0.207   5.889   7.108 -2.7876  0.0637 -1.2738
   89MOL   H11830214   0.341   5.849   6.907  1.3341 -0.0302  0.4307
   89MOL   H11930215   0.394   6.028   6.755 -0.1099 -2.0095  1.0391
   89MOL   H12030216   0.308   6.251   6.793 -1.0739 -1.2958 -0.4866
   89MOL   C12130217   0.239   6.569   7.057  0.6061  0.4085 -0.2136
   89MOL   C12230218   0.362   6.652   7.050  0.4356  0.4747  0.5059
   89MOL   C12330219   0.417   6.655   6.901 -0.5113 -0.0068  0.0882
   89MOL   C12430220   0.536   6.582   6.877 -0.7546  0.5340 -0.0751
   89MOL   C12530221   0.592   6.570   6.744  0.1488  0.2554  0.1848
   89MOL   C12630222   0.530   6.653   6.645 -0.3123  0.2099 -0.4021
   89MOL   C12730223   0.413   6.734   6.671 -0.0267  0.8246 -0.0329
   89MOL   C12830224   0.360   6.731   6.800 -0.8258  0.8572 -0.4132
   89MOL   O12930225   0.326   6.787   7.088 -0.0051  0.1156 -0.1506
   89MOL   H13030226   0.219   6.570   7.164  0.3272  0.3555 -0.2655
   89MOL   H13130227   0.163   6.630   7.010  0.1867 -0.5760 -0.8260
   89MOL   H13230228   0.435   6.601   7.112  0.0992 -0.2951  0.2716
   89MOL   H13330229   0.587   6.532   6.958  0.8727 -2.2567 -2.7026
   89MOL   H13430230   0.681   6.511   6.727 -0.0399  0.2020 -0.6618
   89MOL   H13530231   0.576   6.660   6.548 -0.7013  0.5986 -0.5617
   89MOL   H13630232   0.373   6.793   6.590 -2.9455  0.1722  0.8601
   89MOL   H13730233   0.272   6.790   6.824 -0.7074  0.8354  0.0684
   89MOL   C13830234   0.424   6.894   7.089 -0.6860  0.3855  1.2053
   89MOL   C13930235   0.523   6.876   7.199 -0.1721  0.4580 -0.4031
   89MOL   C14030236   0.657   6.819   7.146 -0.5089  0.6557 -0.3315
   89MOL   C14130237   0.687   6.682   7.167  0.0149  0.4916  0.0720
   89MOL   C14230238   0.810   6.627   7.128 -0.0730 -0.8686 -0.1511
   89MOL   C14330239   0.902   6.716   7.067 -0.2576 -0.6100 -0.6648
   89MOL   C14430240   0.868   6.854   7.039  0.8877  0.4523  0.4888
   89MOL   C14530241   0.746   6.905   7.074  0.1911  0.2976  0.4228
   89MOL   O14630242   0.546   7.011   7.250  0.5928  0.3379 -0.1042
   89MOL   H14730243   0.367   6.985   7.108 -0.5108  0.2159  2.5503
   89MOL   H14830244   0.476   6.913   6.995  2.5791 -1.0472  2.6350
   89MOL   H14930245   0.479   6.819   7.280 -1.1133  1.8724  0.1016
   89MOL   H15030246   0.624   6.612   7.220  3.4784 -1.2057  2.0918
   89MOL   H15130247   0.839   6.523   7.134 -1.5318 -1.3168 -0.7547
   89MOL   H15230248   1.004   6.686   7.046 -0.1009  0.3551 -1.3484
   89MOL   H15330249   0.931   6.922   6.984  2.2044 -1.9410 -1.1035
   89MOL   H15430250   0.716   7.006   7.049  2.0724  0.7219 -0.2153
   89MOL   C15530251   0.445   7.074   7.329 -0.0973  0.1358  0.2710
   89MOL   C15630252   0.510   7.191   7.408  0.4288 -0.3293 -0.0943
   89MOL   C15730253   0.595   7.270   7.317 -0.1160 -0.3574  0.4766
   89MOL   C15830254   0.538   7.376   7.239 -0.6429  0.2465  0.2114
   89MOL   C15930255   0.620   7.446   7.142 -0.1687 -0.7938  0.1968
   89MOL   C16030256   0.754   7.409   7.123 -0.6198 -0.4360 -0.2536
   89MOL   C16130257   0.815   7.313   7.204  0.0684  0.4675  0.3389
   89MOL   C16230258   0.734   7.244   7.302  0.8875  0.5197  0.1389
   89MOL   O16330259   0.397   7.268   7.468  0.0811  0.8538  0.1742
   89MOL   H16430260   0.405   6.994   7.392 -1.0519 -1.4596 -2.2662
   89MOL   H16530261   0.359   7.104   7.268 -0.3376  1.1766  1.1088
   89MOL   H16630262   0.573   7.145   7.483  0.1860 -0.6073 -0.0621
   89MOL   H16730263   0.435   7.409   7.240  0.4161  3.8855 -1.5446
   89MOL   H16830264   0.576   7.521   7.078  0.9967  0.5087  0.9075
   89MOL   H16930265   0.820   7.457   7.052  0.1421  1.0029  1.3545
   89MOL   H17030266   0.918   7.283   7.213  0.1664  0.8056  0.3415
   89MOL   H17130267   0.782   7.165   7.358 -0.3538 -0.5690 -0.3009
   89MOL   C17230268   0.306   7.193   7.552  0.2616  0.4150  0.5300
   89MOL   C17330269   0.195   7.292   7.581  0.1107  0.0579  0.0569
   89MOL   C17430270   0.254   7.420   7.636 -0.3998 -0.0704  0.7020
   89MOL   C17530271   0.276   7.430   7.775 -0.2485 -0.1424  0.1634
   89MOL   C17630272   0.314   7.556   7.836  0.0484  0.8258  0.5191
   89MOL   C17730273   0.336   7.667   7.750 -0.2535  0.7546 -0.5149
   89MOL   C17830274   0.314   7.658   7.612  0.0452  0.3616  0.3550
   89MOL   C17930275   0.273   7.537   7.559  0.0087  0.3028 -0.4967
   89MOL   O18030276   0.106   7.231   7.671  0.3841 -0.2238 -0.1677
   89MOL   H18130277   0.257   7.110   7.500 -0.0733  0.9431 -0.0018
   89MOL   H18230278   0.346   7.159   7.648 -0.0986  1.8651  1.2094
   89MOL   H18330279   0.144   7.303   7.485 -0.0127  2.2021  0.3470
   89MOL   H18430280   0.262   7.344   7.838 -0.0746  0.3933  0.9424
   89MOL   H18530281   0.339   7.558   7.941 -0.6487 -0.7847  0.7223
   89MOL   H18630282   0.380   7.757   7.788 -0.3226  2.0083 -3.2780
   89MOL   H18730283   0.342   7.741   7.549  1.3992 -0.3289  0.0245
   89MOL   H18830284   0.263   7.528   7.452  2.3331  2.0820 -0.8940
   89MOL   C18930285   8.059   7.183   7.621  0.3001 -0.2573 -0.1426
   89MOL   C19030286   7.973   7.144   7.753 -0.2453  0.1706  0.8756
   89MOL   C19130287   8.051   7.052   7.845  0.0794 -0.5624  0.4934
   89MOL   C19230288   8.052   6.915   7.808  0.4900  0.0096  0.0957
   89MOL   C19330289   0.040   6.821   7.893  0.3052 -0.0573 -0.7875
   89MOL   C19430290   0.108   6.858   8.009 -0.5224  0.4134  0.3945
   89MOL   C19530291   0.106   7.000   8.043 -0.5934  0.4497 -0.7554
   89MOL   C19630292   0.050   7.094   7.957  1.1295  0.0840 -0.5877
   89MOL   O19730293   7.853   7.084   7.705 -0.1495  0.2896  0.1065
   89MOL   H19830294   8.015   7.248   7.545  0.5249  1.3205  1.0474
   89MOL   H19930295   8.067   7.091   7.562  0.0621  0.4502 -1.2962
   89MOL   H20030296   7.954   7.234   7.812  2.5035  1.0789  0.4328
   89MOL   H20130297   7.997   6.879   7.722  2.0623 -1.1435 -0.4577
   89MOL   H20230298   0.047   6.715   7.870  1.5904  0.2269 -1.7451
   89MOL   H20330299   0.148   6.790   0.002 -1.4638 -1.5437 -0.8525
   89MOL   H20430300   0.143   7.037   0.058  3.0521 -3.3562 -0.5682
   89MOL   H20530301   0.051   7.196   7.994  0.6393 -0.2493  0.3273
   89MOL   C20630302   7.741   7.162   7.652  0.3807 -1.2149 -0.3989
   89MOL   C20730303   7.665   7.085   7.548  0.4096  0.1435 -0.1942
   89MOL   C20830304   7.754   7.026   7.439 -0.0161 -0.7571  0.4199
   89MOL   C20930305   7.809   7.085   7.324  0.0510  0.8667 -0.4157
   89MOL   C21030306   7.887   7.010   7.232  0.0693 -0.4137 -0.2326
   89MOL   C21130307   7.910   6.874   7.254 -0.2006  0.8876  0.5926
   89MOL   C21230308   7.866   6.816   7.375  0.4293 -0.2092  0.0269
   89MOL   C21330309   7.786   6.892   7.460 -0.3729  1.0211  0.0729
   89MOL   O21430310   7.576   7.184   7.492 -0.4254  0.3275 -0.3504
   89MOL   H21530311   7.675   7.181   7.736  2.4464  0.3725  0.9124
   89MOL   H21630312   7.774   7.254   7.603 -0.4225 -0.6948  0.0154
   89MOL   H21730313   7.607   7.001   7.587  1.3159 -0.7062 -0.6429
   89MOL   H21830314   7.778   7.186   7.303  1.2536  1.4794  0.6915
   89MOL   H21930315   7.915   7.048   7.135 -2.3090 -1.4143 -1.3383
   89MOL   H22030316   7.953   6.804   7.184 -1.2613  0.5256  0.3058
   89MOL   H22130317   7.892   6.712   7.386  0.4364 -0.5482 -2.7799
   89MOL   H22230318   7.761   6.844   7.553  1.5186 -0.2322 -0.0484
   89MOL   C22330319   7.460   7.206   7.563 -0.3794  0.0452  0.4777
   89MOL   C22430320   7.354   7.266   7.471  0.1589  1.3204  0.1792
   89MOL   C22530321   7.397   7.385   7.389 -0.6965 -0.4741 -0.4046
   89MOL   C22630322   7.386   7.512   7.450 -0.3343  0.1981 -0.0253
   89MOL   C22730323   7.431   7.627   7.383 -0.3867 -0.3042 -0.1483
   89MOL   C22830324   7.482   7.618   7.251 -0.8396 -0.3352 -0.2044
   89MOL   C22930325   7.481   7.491   7.192  0.3652  0.1926  1.0138
   89MOL   C23030326   7.442   7.372   7.260  0.1794 -0.3906 -0.1414
   89MOL   O23130327   7.310   7.161   7.390 -0.1905  0.0084 -0.2357
   89MOL   H23230328   7.422   7.115   7.611  0.8867  0.0196  1.4571
   89MOL   H23330329   7.471   7.278   7.644  0.3164  0.0555  0.3804
   89MOL   H23430330   7.271   7.288   7.539 -2.0235  0.1404 -2.0037
   89MOL   H23530331   7.349   7.522   7.551  0.5502 -1.6788  0.5022
   89MOL   H23630332   7.435   7.721   7.435  2.1377 -0.9634  0.9618
   89MOL   H23730333   7.503   7.707   7.193 -1.1339  0.1538  0.4339
   89MOL   H23830334   7.510   7.485   7.088  0.0536 -1.0642  1.0028
   89MOL   H23930335   7.435   7.278   7.208 -0.8056  0.3850 -1.4523
   89MOL   C24030336   7.195   7.094   7.431 -0.0749 -0.2134 -0.7977
   89MOL   C24130337   7.141   6.992   7.333 -0.2063  0.6311 -0.2741
   89MOL   C24230338   7.233   6.869   7.328 -0.5985 -0.2446  0.2704
   89MOL   C24330339   7.194   6.747   7.386  0.2036 -0.2963 -0.0266
   89MOL   C24430340   7.268   6.626   7.366 -0.0814 -0.1939 -0.5282
   89MOL   C24530341   7.391   6.636   7.304  0.1800  0.9863  0.4738
   89MOL   C24630342   7.437   6.758   7.250 -1.0860 -0.5154 -0.1599
   89MOL   C24730343   7.354   6.873   7.260  0.1477 -0.0536  0.6592
   89MOL   O24830344   7.017   6.961   7.389 -0.3301  0.4389 -0.2769
   89MOL   H24930345   7.203   7.054   7.532 -1.2463  2.8187  0.5439
   89MOL   H25030346   7.126   7.177   7.442  0.8228  0.5204 -0.5663
   89MOL   H25130347   7.130   7.030   7.232 -1.4075  1.6537  0.2222
   89MOL   H25230348   7.098   6.749   7.435 -0.2668 -0.7856 -0.9055
   89MOL   H25330349   7.228   6.529   7.390 -0.1196 -0.2348 -0.7522
   89MOL   H25430350   7.461   6.553   7.308  2.0427  2.5544  0.7740
   89MOL   H25530351   7.531   6.761   7.197  0.3605  0.1719  2.3472
   89MOL   H25630352   7.395   6.968   7.230 -0.7374  0.8269  2.2091
   89MOL   C25730353   6.926   6.927   7.282 -0.1034  0.2401  0.5098
   89MOL   C25830354   6.794   6.872   7.338 -0.5006  0.0580  0.3086
   89MOL   C25930355   6.812   6.749   7.419  0.1296  0.2586  0.0507
   89MOL   C26030356   6.771   6.748   7.555  1.0437  0.0337  0.2372
   89MOL   C26130357   6.778   6.637   7.642  0.4962 -0.5236 -0.3757
   89MOL   C26230358   6.826   6.518   7.586  0.7043 -0.9961  0.5168
   89MOL   C26330359   6.865   6.517   7.447  0.2181 -0.3461 -0.2019
   89MOL   C26430360   6.859   6.631   7.362  0.1541 -0.2373 -0.1799
   89MOL   O26530361   6.708   6.848   7.224 -0.3811  0.0323  0.1003
   89MOL   H26630362   6.961   6.847   7.216 -1.5286 -1.2511  1.5519
   89MOL   H26730363   6.898   7.017   7.228  0.2442 -1.9833 -3.5949
   89MOL   H26830364   6.759   6.949   7.407 -1.2022  1.9631 -2.1171
   89MOL   H26930365   6.754   6.840   7.610 -0.4688  0.6512 -1.2147
   89MOL   H27030366   6.759   6.632   7.748  1.8105 -1.1154 -0.1543
   89MOL   H27130367   6.829   6.429   7.647  1.3550 -0.8322  0.7268
   89MOL   H27230368   6.911   6.422   7.421  4.7873  0.3547  4.4010
   89MOL   H27330369   6.900   6.625   7.263 -0.1123  1.9718 -0.4645
   89MOL   C27430370   6.589   6.919   7.231 -0.8705 -0.0016  0.0631
   89MOL   C27530371   6.506   6.905   7.104 -0.0535  0.5839 -0.3080
   89MOL   C27630372   6.572   6.979   6.984  0.5188  0.3415  0.9772
   89MOL   C27730373   6.661   6.911   6.897  0.8204 -0.1829  0.7223
   89MOL   C27830374   6.707   6.972   6.779 -0.6367 -0.4497 -0.5621
   89MOL   C27930375   6.663   7.103   6.751 -0.2636  0.2752  0.4308
   89MOL   C28030376   6.578   7.175   6.839  0.4737  0.0512 -0.4530
   89MOL   C28130377   6.542   7.116   6.961 -0.1010  0.2646  0.5651
   89MOL   O28230378   6.384   6.966   7.152 -0.1204  0.1406  0.1855
   89MOL   H28330379   6.541   6.885   7.323  1.5587 -0.2737  1.2736
   89MOL   H28430380   6.609   7.026   7.236 -1.4674  0.1978 -1.5066
   89MOL   H28530381   6.484   6.800   7.086  0.3863  0.6993 -1.5954
   89MOL   H28630382   6.693   6.812   6.927  0.6942 -0.1364  1.0192
   89MOL   H28730383   6.784   6.919   6.724  1.2717 -1.1042  2.5734
   89MOL   H28830384   6.692   7.149   6.657 -0.0622 -3.8032 -1.6192
   89MOL   H28930385   6.541   7.272   6.810  0.4651 -0.3027 -1.6862
   89MOL   H29030386   6.475   7.167   7.028  0.0014 -0.1742  1.0088
   89MOL   C29130387   6.270   6.926   7.069 -0.4603 -0.1024 -0.2723
   89MOL   C29230388   6.150   7.019   7.097  0.2618  0.1741  0.4127
   89MOL   C29330389   6.118   7.105   6.968  0.3740 -0.0124  0.9449
   89MOL   C29430390   6.029   7.052   6.868 -0.0717  0.2909  0.0480
   89MOL   C29530391   6.004   7.118   6.743  0.1714  0.0468 -0.5556
   89MOL   C29630392   6.067   7.245   6.724  0.2882  0.5358  0.3652
   89MOL   C29730393   6.151   7.294   6.826  0.3224  0.5103 -0.0097
   89MOL   C29830394   6.174   7.233   6.949 -0.8761 -0.0457  0.2328
   89MOL   O29930395   6.039   6.942   7.141 -0.2370 -0.3696  0.3368
   89MOL   H30030396   6.237   6.822   7.066  2.4249 -1.0664 -0.5559
   89MOL   H30130397   6.314   6.943   6.970  0.6229  3.2949  0.7355
   89MOL   H30230398   6.172   7.101   7.165  0.0770 -1.1049  2.0581
   89MOL   H30330399   5.992   6.951   6.881  3.0366 -1.0034 -0.8057
   89MOL   H30430400   5.929   7.082   6.675  0.3727 -1.2169 -0.1181
   89MOL   H30530401   6.052   7.299   6.632  2.5896  2.9280  1.3329
   89MOL   H30630402   6.199   7.390   6.812  1.0484  0.0291 -0.8875
   89MOL   H30730403   6.223   7.280   7.033  2.0848 -1.8491 -0.4104
   89MOL   C30830404   6.045   6.894   7.277 -0.7565  0.8767 -0.4425
   89MOL   C30930405   5.935   6.792   7.303 -0.2851 -0.0629  0.3660
   89MOL   C31030406   5.797   6.861   7.315 -0.4992 -0.0691 -0.0220
   89MOL   C31130407   5.737   6.920   7.200 -0.3814  0.9798 -0.6413
   89MOL   C31230408   5.603   6.963   7.216  0.4576 -0.2021  0.0675
   89MOL   C31330409   5.527   6.951   7.328 -0.6254  0.3973 -1.3400
   89MOL   C31430410   5.595   6.895   7.442 -1.0042  0.4505  0.2757
   89MOL   C31530411   5.729   6.853   7.436  1.0434  0.2979  0.3485
   89MOL   O31630412   5.922   6.695   7.196 -0.4743  0.3355 -0.0913
   89MOL   H31730413   6.052   6.982   7.342  4.2589  0.4370 -0.1597
   89MOL   H31830414   6.138   6.841   7.299  0.2178  2.1507 -1.3919
   89MOL   H31930415   5.947   6.733   7.394  0.5614 -0.5675 -0.0614
   89MOL   H32030416   5.805   6.925   7.116  4.2496  0.9295  2.8719
   89MOL   H32130417   5.557   7.018   7.135 -0.7212 -0.0563  0.8253
   89MOL   H32230418   5.423   6.978   7.337 -0.8883 -0.9076 -0.2128
   89MOL   H32330419   5.546   6.890   7.538  1.0948 -1.6307  1.2876
   89MOL   H32430420   5.768   6.808   7.526 -0.1627 -0.2490  0.6011
   89MOL   C32530421   6.034   6.605   7.203  0.0883 -0.3955 -0.3643
   89MOL   C32630422   6.008   6.492   7.111  0.0416 -0.7243 -0.3944
   89MOL   C32730423   5.872   6.418   7.133 -0.0361  0.2048  0.8582
   89MOL   C32830424   5.757   6.452   7.064 -0.2428  0.1219 -0.6757
   89MOL   C32930425   5.635   6.379   7.077  0.3539  0.1743  0.4868
   89MOL   C33030426   5.630   6.267   7.161 -0.3352  0.7091  0.1113
   89MOL   C33130427   5.739   6.243   7.247  0.8347  0.1241 -0.1371
   89MOL   C33230428   5.861   6.316   7.230  0.5631  0.3613  0.2144
   89MOL   O33330429   6.036   6.522   6.978 -0.0224  0.3630  0.1413
   89MOL   H33430430   6.033   6.567   7.305  0.6358  1.4117  0.3451
   89MOL   H33530431   6.130   6.651   7.179  0.9377 -1.4403  0.9917
   89MOL   H33630432   6.094   6.429   7.132  0.1810 -0.1163  0.9471
   89MOL   H33730433   5.754   6.540   7.002  3.3544 -0.7456 -2.2105
   89MOL   H33830434   5.555   6.411   7.013 -0.4273 -2.7319 -0.0735
   89MOL   H33930435   5.554   6.191   7.154 -0.5577  1.0603 -1.5287
   89MOL   H34030436   5.736   6.163   7.320 -1.7982  1.4114  1.2425
   89MOL   H34130437   5.945   6.282   7.288  2.6116  2.7158 -1.2427
   89MOL   H34230438   5.990   6.598   6.946  0.2884  1.0237  1.2175
   90MOL     C130439   3.560   5.622   3.808  0.1775 -0.0052  0.6977
   90MOL     C230440   3.545   5.663   3.663  0.3073 -0.0275 -0.2102
   90MOL     C330441   3.438   5.763   3.627  0.3261 -0.1017 -0.3393
   90MOL     C430442   3.473   5.889   3.578 -0.5449  0.3289 -0.5493
   90MOL     C530443   3.370   5.981   3.543 -0.4012 -0.4949  0.0476
   90MOL     C630444   3.238   5.949   3.568 -0.2251 -0.1275  0.9920
   90MOL     C730445   3.203   5.821   3.624  0.2685 -0.1299  0.5124
   90MOL     C830446   3.305   5.729   3.651 -0.1142 -0.6120 -0.3900
   90MOL     O930447   3.521   5.537   3.601 -0.3873  0.3230  0.0860
   90MOL    H1030448   3.568   5.708   3.876 -1.4803  1.7086 -1.2178
   90MOL    H1130449   3.475   5.564   3.842 -1.7593  1.5237 -1.4171
   90MOL    H1230450   3.640   5.706   3.631  0.4927  0.3588  0.8279
   90MOL    H1330451   3.578   5.912   3.569 -0.0234 -1.6986  0.0640
   90MOL    H1430452   3.400   6.078   3.505 -0.5600  0.3903  2.1238
   90MOL    H1530453   3.158   6.017   3.544 -1.6377 -1.8550  0.6739
   90MOL    H1630454   3.100   5.795   3.640 -0.9033  2.6678 -1.8231
   90MOL    H1730455   3.275   5.629   3.680 -0.0932 -0.5097 -0.0155
   90MOL    H1830456   3.644   5.552   3.816 -0.6240 -0.9391  1.0022
   90MOL    C1930457   3.573   5.532   3.470 -0.7000 -0.2372 -0.1529
   90MOL    C2030458   3.501   5.416   3.390 -0.0899 -0.2020 -0.1334
   90MOL    C2130459   3.348   5.444   3.372  0.5828 -0.1718 -0.3856
   90MOL    C2230460   3.289   5.574   3.377 -0.2857  1.6514 -0.4063
   90MOL    C2330461   3.149   5.583   3.352 -0.2260  0.0961 -0.2608
   90MOL    C2430462   3.068   5.481   3.325  0.1584  0.6911 -0.0075
   90MOL    C2530463   3.122   5.349   3.329  0.1220 -0.0492 -0.4265
   90MOL    C2630464   3.260   5.332   3.350  0.7258  0.8331  0.7547
   90MOL    O2730465   3.526   5.284   3.435 -0.1795  0.4392  0.1209
   90MOL    H2830466   3.557   5.627   3.419  0.4928  0.2189  0.3184
   90MOL    H2930467   3.682   5.528   3.471 -0.6131  0.9169 -1.8537
   90MOL    H3030468   3.538   5.413   3.288  0.8533  1.7148  0.1315
   90MOL    H3130469   3.354   5.658   3.395  1.9361 -0.5416  2.3838
   90MOL    H3230470   3.104   5.681   3.350  1.0308  0.6719 -1.9290
   90MOL    H3330471   2.963   5.497   3.303  0.4486 -0.2407 -2.2421
   90MOL    H3430472   3.053   5.268   3.313 -0.0212  0.1361 -0.7440
   90MOL    H3530473   3.304   5.233   3.351  1.7008  1.2565  1.1288
   90MOL    C3630474   3.661   5.240   3.460 -0.7559  0.1457  0.5677
   90MOL    C3730475   3.666   5.094   3.429  0.2277 -0.1527 -0.1122
   90MOL    C3830476   3.619   5.059   3.290 -0.3343  0.0081  0.2820
   90MOL    C3930477   3.711   5.057   3.177 -0.2607 -0.2185 -0.0812
   90MOL    C4030478   3.666   5.014   3.047  0.3853  0.4698 -0.0575
   90MOL    C4130479   3.528   4.991   3.029  0.3464 -0.4149  0.2214
   90MOL    C4230480   3.438   5.001   3.133  0.0749 -0.0357  0.3108
   90MOL    C4330481   3.484   5.036   3.257  0.9294  0.5298 -0.4178
   90MOL    O4430482   3.601   5.021   3.537  0.6970 -0.6860  0.5705
   90MOL    H4530483   3.730   5.289   3.391  0.8586 -1.4070  1.0534
   90MOL    H4630484   3.702   5.268   3.557 -0.8008  1.3220  0.2571
   90MOL    H4730485   3.770   5.065   3.445  0.4733  0.6053 -0.3172
   90MOL    H4830486   3.817   5.074   3.187 -0.9342  3.2756  1.7665
   90MOL    H4930487   3.743   4.998   2.973  1.2767 -0.4250  1.0343
   90MOL    H5030488   3.483   4.957   2.937 -0.1846 -0.7901  0.6161
   90MOL    H5130489   3.331   4.993   3.122 -0.0325  0.6192  0.8444
   90MOL    H5230490   3.410   5.071   3.328  1.8571 -0.6392  1.1595
   90MOL    C5330491   3.634   4.882   3.541  0.4627 -0.6167 -0.6600
   90MOL    C5430492   3.531   4.802   3.618 -0.1496  0.1678 -0.5895
   90MOL    C5530493   3.399   4.814   3.541  0.3706 -0.0101 -0.2906
   90MOL    C5630494   3.379   4.739   3.418 -0.0351  0.0928 -0.1614
   90MOL    C5730495   3.266   4.762   3.337  0.1823  0.1226 -0.6767
   90MOL    C5830496   3.166   4.847   3.385  0.1287  0.0715 -0.1665
   90MOL    C5930497   3.182   4.920   3.504 -0.0642  0.2714  0.1950
   90MOL    C6030498   3.302   4.909   3.580  0.1423  0.0294 -0.5116
   90MOL    O6130499   3.562   4.666   3.636 -0.2290 -0.0927  0.0303
   90MOL    H6230500   3.649   4.829   3.447 -1.2474  0.4382 -1.5400
   90MOL    H6330501   3.727   4.882   3.598  0.7088  0.0657 -1.0522
   90MOL    H6430502   3.512   4.845   3.717 -0.9166 -1.0227 -0.2108
   90MOL    H6530503   3.454   4.670   3.383  1.0344  0.5769  1.1417
   90MOL    H6630504   3.254   4.712   3.243  0.4146  0.7262 -1.0321
   90MOL    H6730505   3.072   4.869   3.337 -0.2045 -2.0772 -0.5598
   90MOL    H6830506   3.104   4.992   3.524 -0.8684 -0.2086 -1.1799
   90MOL    H6930507   3.310   4.954   3.678  2.5133  1.1259 -1.1733
   90MOL    C7030508   3.644   4.646   3.746 -0.4772 -0.2371 -0.3336
   90MOL    C7130509   3.701   4.504   3.732 -0.0604  0.4401 -0.1023
   90MOL    C7230510   3.805   4.481   3.844  0.2223 -0.4375 -0.3195
   90MOL    C7330511   3.951   4.502   3.835  0.4308  0.6783 -0.0037
   90MOL    C7430512   4.035   4.456   3.944 -0.4312 -0.4791  0.4211
   90MOL    C7530513   3.977   4.395   4.049 -0.0882  0.1444 -0.5579
   90MOL    C7630514   3.839   4.386   4.062 -0.6517  0.3119 -0.9848
   90MOL    C7730515   3.752   4.428   3.960  0.2112 -0.2600 -0.2852
   90MOL    O7830516   3.764   4.509   3.601 -0.0940 -0.4203 -0.3788
   90MOL    H7930517   3.730   4.712   3.759 -0.5428  0.1548 -1.8514
   90MOL    H8030518   3.593   4.661   3.841  2.8492  0.2029  1.4486
   90MOL    H8130519   3.607   4.450   3.741 -0.5097  1.2190 -0.0677
   90MOL    H8230520   3.983   4.537   3.738  1.0671 -0.6175 -0.2726
   90MOL    H8330521   4.142   4.470   3.936 -0.6861  2.4517  1.3453
   90MOL    H8430522   4.038   4.353   4.127 -1.8730  0.3512  0.9794
   90MOL    H8530523   3.796   4.345   4.153  1.9461  1.0662  0.6493
   90MOL    H8630524   3.645   4.421   3.975  0.4779 -0.3729  1.7245
   90MOL    C8730525   3.745   4.386   3.529 -0.1105 -0.6547  0.9339
   90MOL    C8830526   3.843   4.383   3.410  0.0119  0.5171  0.1344
   90MOL    C8930527   3.984   4.376   3.467  0.2451  0.0858 -0.4833
   90MOL    C9030528   4.079   4.479   3.442 -0.0351 -0.0684 -0.5396
   90MOL    C9130529   4.206   4.472   3.491 -0.6372 -0.3142 -0.2886
   90MOL    C9230530   4.249   4.360   3.566  0.8169  0.7828  0.5486
   90MOL    C9330531   4.153   4.256   3.594  0.4582  0.0763 -0.3410
   90MOL    C9430532   4.018   4.266   3.547  0.3875 -0.2884  0.1475
   90MOL    O9530533   3.834   4.494   3.323 -0.2086  0.0135  0.5148
   90MOL    H9630534   3.645   4.399   3.488 -0.6572 -0.2114  2.3825
   90MOL    H9730535   3.749   4.290   3.579  0.5545 -0.5516  1.0868
   90MOL    H9830536   3.812   4.297   3.352 -1.4258  1.2555 -0.1934
   90MOL    H9930537   4.043   4.563   3.384  1.9913  2.1599  1.3005
   90MOL   H10030538   4.283   4.545   3.470  0.1221  0.0426  3.4288
   90MOL   H10130539   4.350   4.350   3.600  1.1945  1.8739 -0.2325
   90MOL   H10230540   4.182   4.167   3.647  2.2116 -1.0249 -3.0211
   90MOL   H10330541   3.946   4.187   3.560 -0.3373  0.0299 -1.8193
   90MOL   C10430542   3.713   4.503   3.248 -0.2122 -0.1572  0.3595
   90MOL   C10530543   3.720   4.625   3.151  0.3422  0.2587 -0.6121
   90MOL   C10630544   3.865   4.646   3.111 -0.3423 -0.2458  0.1414
   90MOL   C10730545   3.949   4.739   3.180 -0.8620 -0.1703 -0.1458
   90MOL   C10830546   4.086   4.733   3.161  0.3691 -0.5555  0.1417
   90MOL   C10930547   4.143   4.642   3.070 -0.1266 -0.3277 -0.0558
   90MOL   C11030548   4.064   4.561   2.996  0.7094 -0.4784  0.0961
   90MOL   C11130549   3.925   4.556   3.018  0.1627  0.1717  0.1452
   90MOL   O11230550   3.635   4.603   3.044 -0.2201  0.5511 -0.1713
   90MOL   H11330551   3.705   4.413   3.186 -0.3480  0.3728 -0.4101
   90MOL   H11430552   3.620   4.513   3.303 -0.2721  1.0877  0.0605
   90MOL   H11530553   3.694   4.711   3.214 -1.0050 -0.8526  0.3937
   90MOL   H11630554   3.910   4.813   3.249 -1.1874 -1.3634  0.9671
   90MOL   H11730555   4.150   4.798   3.220  1.1375 -1.4024  0.2509
   90MOL   H11830556   4.251   4.643   3.062 -0.0838  0.7292  0.5868
   90MOL   H11930557   4.102   4.496   2.918  0.0481 -1.3187  0.4660
   90MOL   H12030558   3.862   4.488   2.963 -0.1568 -0.8782  1.7834
   90MOL   C12130559   3.498   4.624   3.076 -0.2330 -0.1556  0.2270
   90MOL   C12230560   3.417   4.631   2.942 -0.5746 -0.0730 -0.3209
   90MOL   C12330561   3.406   4.503   2.865  0.5371  0.0664  0.1752
   90MOL   C12430562   3.427   4.494   2.728 -0.3531 -0.8284  0.1111
   90MOL   C12530563   3.386   4.380   2.652  0.0898 -0.3368 -0.3478
   90MOL   C12630564   3.331   4.268   2.716  0.0599 -0.2833  0.4573
   90MOL   C12730565   3.317   4.276   2.853  0.0920  0.0708  0.2333
   90MOL   C12830566   3.346   4.390   2.930 -0.0676 -0.2803 -0.2046
   90MOL   O12930567   3.291   4.678   2.976  0.2973 -0.0580  0.1049
   90MOL   H13030568   3.488   4.716   3.134 -3.7800 -0.6174  0.4795
   90MOL   H13130569   3.456   4.546   3.140 -1.9506  0.1381 -0.5132
   90MOL   H13230570   3.471   4.697   2.875  0.8953 -1.4033 -0.4616
   90MOL   H13330571   3.467   4.580   2.675  0.0577 -1.2860 -0.3214
   90MOL   H13430572   3.415   4.371   2.549 -0.1027  3.4131 -0.7846
   90MOL   H13530573   3.284   4.192   2.656  0.3580 -0.8965  0.9955
   90MOL   H13630574   3.265   4.194   2.899  1.8631 -1.3252 -0.1879
   90MOL   H13730575   3.331   4.378   3.036  0.1839 -2.0674 -0.3500
   90MOL   C13830576   3.210   4.712   2.865 -0.0008 -0.0407 -0.5493
   90MOL   C13930577   3.065   4.748   2.908 -0.1140  0.4399  0.2863
   90MOL   C14030578   2.988   4.805   2.777  0.1651 -0.4773  0.6255
   90MOL   C14130579   3.025   4.934   2.742  0.3742 -0.2346 -0.4185
   90MOL   C14230580   2.964   4.994   2.627  0.5614  0.5717  0.1302
   90MOL   C14330581   2.868   4.933   2.551  0.0733 -0.2171 -0.1888
   90MOL   C14430582   2.832   4.797   2.582  0.5547  0.3189  0.4728
   90MOL   C14530583   2.889   4.740   2.700  0.0398 -0.1996 -0.7561
   90MOL   O14630584   2.991   4.638   2.954  0.0586  0.3580 -0.6195
   90MOL   H14730585   3.215   4.647   2.778  0.8271 -1.9567  0.8771
   90MOL   H14830586   3.255   4.805   2.831 -1.0884  0.8170  0.3073
   90MOL   H14930587   3.056   4.826   2.983  2.3253 -0.3840  1.5052
   90MOL   H15030588   3.093   4.989   2.805 -1.0651  0.3910  0.6259
   90MOL   H15130589   2.992   5.092   2.591  1.0914 -0.0632 -1.2568
   90MOL   H15230590   2.831   4.988   2.466  2.1041 -0.7842 -1.4811
   90MOL   H15330591   2.761   4.741   2.523 -1.5650  2.6896  0.6942
   90MOL   H15430592   2.863   4.637   2.720  2.4546 -0.4642  1.3661
   90MOL   C15530593   3.016   4.614   3.097  0.1719 -0.6539  0.6748
   90MOL   C15630594   2.939   4.490   3.147  0.0421 -0.3734 -0.4277
   90MOL   C15730595   2.999   4.438   3.277  0.8940  0.2711  0.5521
   90MOL   C15830596   3.067   4.318   3.275 -0.0985 -0.8246 -0.2496
   90MOL   C15930597   3.130   4.276   3.394  0.5092  0.2828 -0.6323
   90MOL   C16030598   3.127   4.353   3.512 -0.4226 -0.6318 -0.5339
   90MOL   C16130599   3.051   4.473   3.512 -0.5361  0.0710 -0.2134
   90MOL   C16230600   2.996   4.521   3.391  0.3374 -0.6037  0.2184
   90MOL   O16330601   2.805   4.527   3.170  0.6856  0.2470 -0.2820
   90MOL   H16430602   2.975   4.697   3.156 -0.3422  0.5113 -1.2690
   90MOL   H16530603   3.120   4.601   3.126  0.3101 -1.5993 -0.2338
   90MOL   H16630604   2.937   4.413   3.070  0.5831  1.4313 -2.2994
   90MOL   H16730605   3.086   4.267   3.182  2.1586  3.2972 -2.2073
   90MOL   H16830606   3.178   4.180   3.385 -3.3237 -1.7840 -0.0672
   90MOL   H16930607   3.178   4.321   3.602 -1.1774  0.7057  0.3962
   90MOL   H17030608   3.053   4.539   3.598 -3.6649 -1.7290  1.3714
   90MOL   H17130609   2.945   4.615   3.381  1.3432 -0.2936 -2.4100
   90MOL   C17230610   2.723   4.538   3.055 -0.3528 -0.1635 -0.5327
   90MOL   C17330611   2.581   4.527   3.121  0.0660 -0.2259 -0.3369
   90MOL   C17430612   2.494   4.469   3.012 -0.0738 -0.0531  0.2929
   90MOL   C17530613   2.470   4.331   3.008  0.8211 -0.2632 -0.8070
   90MOL   C17630614   2.390   4.273   2.914 -0.5778  0.8829 -0.4210
   90MOL   C17730615   2.332   4.357   2.817  0.3765 -0.8363 -0.2249
   90MOL   C17830616   2.347   4.501   2.827  0.1859  0.2826  0.4057
   90MOL   C17930617   2.427   4.554   2.924 -0.2603  0.0624 -0.2287
   90MOL   O18030618   2.534   4.657   3.152  0.2220  0.2084 -0.1564
   90MOL   H18130619   2.744   4.629   2.999  0.6390  0.0000  0.0905
   90MOL   H18230620   2.730   4.445   2.999 -1.3417 -0.9757  0.6676
   90MOL   H18330621   2.576   4.464   3.210 -0.6710 -1.6293 -1.3565
   90MOL   H18430622   2.508   4.268   3.086  0.7022 -1.2686 -1.5479
   90MOL   H18530623   2.367   4.168   2.923 -1.8714  1.2948  1.5462
   90MOL   H18630624   2.251   4.316   2.760 -2.5905  2.4856  1.4062
   90MOL   H18730625   2.294   4.571   2.764  0.6269 -0.0777 -0.3725
   90MOL   H18830626   2.444   4.661   2.930 -0.4525  0.1059 -0.4708
   90MOL   C18930627   2.416   4.656   3.224 -0.0966  0.2576  0.5278
   90MOL   C19030628   2.341   4.789   3.217  0.0380  0.0099  1.1226
   90MOL   C19130629   2.221   4.799   3.311 -0.3135  0.5610 -0.1458
   90MOL   C19230630   2.232   4.832   3.448 -0.0308  0.0377 -0.1060
   90MOL   C19330631   2.120   4.820   3.536 -0.6080 -0.2051 -0.0708
   90MOL   C19430632   1.989   4.788   3.491 -0.4728 -0.3501 -0.2559
   90MOL   C19530633   1.972   4.766   3.354  0.0785  0.4327  0.3569
   90MOL   C19630634   2.085   4.773   3.265  0.5252 -0.1874 -0.1447
   90MOL   O19730635   2.286   4.801   3.080 -0.1036  0.1876  0.0469
   90MOL   H19830636   2.343   4.579   3.202 -0.0868  0.5954 -0.7808
   90MOL   H19930637   2.442   4.633   3.327 -0.2898 -0.8206  0.3354
   90MOL   H20030638   2.412   4.870   3.236  0.1504  0.5204 -1.2652
   90MOL   H20130639   2.326   4.869   3.487  0.0045 -0.6883  0.5228
   90MOL   H20230640   2.132   4.851   3.639  0.5422  1.6123 -0.7294
   90MOL   H20330641   1.908   4.790   3.563 -1.5426  0.6230 -1.4683
   90MOL   H20430642   1.872   4.751   3.314 -0.2552 -0.7780  1.5835
   90MOL   H20530643   2.066   4.754   3.161  2.7510  1.4811 -0.8981
   90MOL   C20630644   2.296   4.933   3.028 -0.0229 -0.1120 -0.2614
   90MOL   C20730645   2.224   4.937   2.892  1.0395 -0.2452 -0.6141
   90MOL   C20830646   2.214   5.086   2.838 -0.3444 -0.4038 -0.0217
   90MOL   C20930647   2.323   5.141   2.778 -0.4849 -0.3808 -0.6792
   90MOL   C21030648   2.326   5.267   2.714  0.0226 -0.2789 -0.4249
   90MOL   C21130649   2.207   5.346   2.712  0.9435 -0.2569  0.2237
   90MOL   C21230650   2.092   5.294   2.783  0.7887 -0.0594 -0.2826
   90MOL   C21330651   2.096   5.162   2.846 -0.5090 -0.3579  0.6745
   90MOL   O21430652   2.096   4.879   2.916 -0.6364 -0.1395  0.1932
   90MOL   H21530653   2.243   4.992   3.103 -1.0123 -2.5768  1.0158
   90MOL   H21630654   2.397   4.972   3.024 -0.5867  1.1898 -3.0337
   90MOL   H21730655   2.274   4.866   2.826  2.4294  0.4343 -0.3178
   90MOL   H21830656   2.408   5.075   2.765  1.5893  1.9211  0.6743
   90MOL   H21930657   2.412   5.293   2.654  0.5068  1.3115  0.9216
   90MOL   H22030658   2.194   5.435   2.653 -1.2750 -1.7963 -1.7008
   90MOL   H22130659   1.994   5.338   2.779  1.1450  0.9808  2.1593
   90MOL   H22230660   2.011   5.121   2.898  2.7762 -1.9588  5.0951
   90MOL   C22330661   2.036   4.832   2.793 -0.6982  0.3745  0.2167
   90MOL   C22430662   1.884   4.816   2.816  0.5644 -0.1516  0.7083
   90MOL   C22530663   1.808   4.952   2.825  0.0620 -0.1368 -0.6721
   90MOL   C22630664   1.797   5.031   2.710 -0.0694 -0.0120  0.5437
   90MOL   C22730665   1.727   5.152   2.710 -0.1641 -0.1567  0.1552
   90MOL   C22830666   1.665   5.200   2.825  0.9635 -0.8050 -0.0781
   90MOL   C22930667   1.679   5.127   2.947  0.5123  0.1249 -0.1124
   90MOL   C23030668   1.752   5.005   2.944 -0.3798 -0.2439  0.1556
   90MOL   O23130669   1.823   4.733   2.715 -0.0995 -0.2164  0.4584
   90MOL   H23230670   2.065   4.895   2.709  1.3251  4.9780  4.1090
   90MOL   H23330671   2.071   4.731   2.775  1.2139  1.0614  0.0052
   90MOL   H23430672   1.859   4.776   2.914 -2.2611  0.0842  0.1354
   90MOL   H23530673   1.836   4.991   2.618  0.7120  0.2842  0.7401
   90MOL   H23630674   1.697   5.214   2.626  0.9265  0.0254 -0.1113
   90MOL   H23730675   1.619   5.297   2.816  2.6681  0.3630  3.2030
   90MOL   H23830676   1.629   5.163   3.036  0.0416 -0.9561  0.0694
   90MOL   H23930677   1.759   4.940   3.030  0.3532 -0.0796  0.2183
   90MOL   C24030678   1.842   4.598   2.742 -0.1343  0.0552  0.0796
   90MOL   C24130679   1.887   4.500   2.628 -0.0223 -0.0078 -0.3246
   90MOL   C24230680   1.798   4.507   2.511 -0.2256 -0.1218  0.2375
   90MOL   C24330681   1.816   4.602   2.410  0.0711 -0.1205 -0.1535
   90MOL   C24430682   1.746   4.597   2.290  0.5042 -0.0165  0.4147
   90MOL   C24530683   1.634   4.509   2.286 -0.4285 -0.0043 -0.4526
   90MOL   C24630684   1.602   4.419   2.391 -0.3462  0.5532 -0.9623
   90MOL   C24730685   1.688   4.413   2.500  0.4742  0.0556 -0.4975
   90MOL   O24830686   2.019   4.516   2.595 -0.0351 -0.2609  0.4348
   90MOL   H24930687   1.905   4.585   2.829  0.6072  1.5340 -0.2074
   90MOL   H25030688   1.743   4.565   2.773  0.2949 -0.2488  1.1209
   90MOL   H25130689   1.886   4.400   2.672 -3.3677 -0.1602 -0.5959
   90MOL   H25230690   1.890   4.677   2.431 -1.5847  1.7142 -0.7587
   90MOL   H25330691   1.766   4.674   2.217  0.8796  0.7530  1.3166
   90MOL   H25430692   1.573   4.511   2.197 -0.1689  1.0528 -0.6115
   90MOL   H25530693   1.519   4.352   2.375 -0.3471 -0.2209  1.8572
   90MOL   H25630694   1.679   4.333   2.572 -1.0657 -0.9535 -1.7488
   90MOL   C25730695   2.078   4.410   2.523  0.2205 -0.1507  0.5575
   90MOL   C25830696   2.155   4.486   2.416 -0.4562 -0.1382 -0.5828
   90MOL   C25930697   2.166   4.398   2.292  0.3369  0.7375  0.2114
   90MOL   C26030698   2.082   4.424   2.184  0.3049 -0.5887 -0.2972
   90MOL   C26130699   2.073   4.338   2.073 -0.1777 -0.0642 -0.1628
   90MOL   C26230700   2.169   4.233   2.061 -0.0378  0.8047 -0.8257
   90MOL   C26330701   2.262   4.208   2.163  0.3550 -0.3881 -0.9982
   90MOL   C26430702   2.259   4.288   2.284  0.6826 -0.4453  0.0753
   90MOL   O26530703   2.277   4.532   2.470  0.2429 -0.0626  0.5422
   90MOL   H26630704   2.004   4.339   2.487 -1.0722  0.3395  2.2354
   90MOL   H26730705   2.142   4.363   2.597  1.4892  2.5912  1.2686
   90MOL   H26830706   2.086   4.562   2.380  0.2842 -0.1991 -2.1936
   90MOL   H26930707   2.022   4.513   2.180  0.8542 -0.2365 -0.7294
   90MOL   H27030708   2.015   4.365   1.986 -2.1591  0.1862  1.2281
   90MOL   H27130709   2.183   4.177   1.969  0.3021  1.6746 -1.3079
   90MOL   H27230710   2.338   4.131   2.158  1.7163  0.8442  0.3709
   90MOL   H27330711   2.334   4.274   2.360 -0.1070 -2.8713  0.4270
   90MOL   C27430712   2.330   4.647   2.415 -0.1756  0.5085  0.1088
   90MOL   C27530713   2.477   4.688   2.466  0.5088 -0.5445  0.4226
   90MOL   C27630714   2.516   4.833   2.439 -0.4184  0.8796  0.7064
   90MOL   C27730715   2.558   4.874   2.309  0.8597 -0.0001 -0.0169
   90MOL   C27830716   2.594   5.008   2.283 -0.2310  0.1515  0.3020
   90MOL   C27930717   2.603   5.102   2.386  0.1548  0.2079 -0.1333
   90MOL   C28030718   2.570   5.055   2.515  0.1673  0.0546  0.2198
   90MOL   C28130719   2.511   4.927   2.540  0.1096  0.2539 -0.3368
   90MOL   O28230720   2.566   4.593   2.399  0.1808  0.0948  0.2174
   90MOL   H28330721   2.335   4.642   2.306  0.4863  1.8167  0.0710
   90MOL   H28430722   2.252   4.720   2.437 -3.0454 -2.4250  0.1075
   90MOL   H28530723   2.490   4.665   2.572 -2.5775  1.0005  1.1819
   90MOL   H28630724   2.562   4.792   2.239  2.8665  0.0860 -0.0325
   90MOL   H28730725   2.618   5.033   2.181  0.6667 -1.7109  0.0252
   90MOL   H28830726   2.635   5.202   2.361  0.6192  0.0126 -0.3232
   90MOL   H28930727   2.577   5.141   2.580  1.0824 -0.1209  0.3567
   90MOL   H29030728   2.482   4.907   2.642  2.3138 -0.8453  0.1209
   90MOL   C29130729   2.586   4.469   2.459 -0.3741  0.1215  0.6320
   90MOL   C29230730   2.665   4.379   2.370 -0.1774  0.0929  0.5739
   90MOL   C29330731   2.809   4.427   2.349 -0.1355  0.3246  1.1711
   90MOL   C29430732   2.862   4.429   2.219 -0.0835 -0.4165  0.2245
   90MOL   C29530733   2.999   4.465   2.195  0.2570 -0.3153 -0.2532
   90MOL   C29630734   3.076   4.503   2.309 -0.5181 -0.1140 -0.1437
   90MOL   C29730735   3.026   4.492   2.444 -0.3652 -0.1654  0.3749
   90MOL   C29830736   2.886   4.464   2.460 -0.3440  0.9290  0.3365
   90MOL   O29930737   2.660   4.241   2.406  0.2188  0.4261  0.2280
   90MOL   H30030738   2.488   4.421   2.464 -0.0062 -0.7820 -0.4588
   90MOL   H30130739   2.637   4.476   2.555 -1.0681 -0.9349  1.0970
   90MOL   H30230740   2.611   4.382   2.275  0.3682  1.7122  0.3033
   90MOL   H30330741   2.813   4.402   2.127 -0.8583  0.4750  0.3596
   90MOL   H30430742   3.036   4.459   2.094 -0.3565 -1.2083 -0.4258
   90MOL   H30530743   3.180   4.530   2.303 -0.6299  0.1113 -1.4037
   90MOL   H30630744   3.083   4.509   2.534  0.8126 -1.4169 -0.1098
   90MOL   H30730745   2.850   4.451   2.561 -1.2142 -0.3287 -0.1291
   90MOL   C30830746   2.705   4.204   2.534  0.1684 -0.3302 -0.0942
   90MOL   C30930747   2.656   4.061   2.563 -0.5576  0.0598  0.1539
   90MOL   C31030748   2.507   4.035   2.527 -0.6170  0.4682 -0.1052
   90MOL   C31130749   2.416   4.091   2.615 -0.5268 -0.2360  0.1205
   90MOL   C31230750   2.278   4.075   2.598  0.5792  0.1581 -0.0576
   90MOL   C31330751   2.230   3.982   2.502  0.0472  0.2655  0.6544
   90MOL   C31430752   2.320   3.928   2.409 -0.7236  0.4257 -0.1973
   90MOL   C31530753   2.459   3.955   2.416  0.2237 -0.7574 -0.6789
   90MOL   O31630754   2.748   3.965   2.512  0.0693  0.4851 -0.3845
   90MOL   H31730755   2.654   4.268   2.605 -0.1592  1.2221 -1.6904
   90MOL   H31830756   2.814   4.196   2.538  0.0616 -2.7321 -1.0025
   90MOL   H31930757   2.656   4.056   2.671 -0.0324 -0.1151  0.1424
   90MOL   H32030758   2.444   4.152   2.699  0.2749  0.1773 -0.4417
   90MOL   H32130759   2.211   4.119   2.671 -0.4388 -0.2916 -0.7004
   90MOL   H32230760   2.124   3.974   2.485  0.5355 -1.8820 -1.6723
   90MOL   H32330761   2.278   3.870   2.327 -2.0596 -0.3493  1.0073
   90MOL   H32430762   2.525   3.915   2.341  1.3415 -0.9875  0.3933
   90MOL   C32530763   2.755   3.836   2.582  0.2705  0.9151 -0.2273
   90MOL   C32630764   2.847   3.731   2.519  0.0546  0.1092  0.0189
   90MOL   C32730765   2.851   3.604   2.601 -0.3505 -0.4914  0.0645
   90MOL   C32830766   2.755   3.502   2.585 -0.2179 -0.2337  0.2376
   90MOL   C32930767   2.764   3.392   2.674 -0.7282 -0.9106 -0.7292
   90MOL   C33030768   2.866   3.374   2.770  0.3264 -0.6406 -0.4094
   90MOL   C33130769   2.956   3.477   2.787  0.0488 -0.3740  0.5891
   90MOL   C33230770   2.949   3.589   2.701 -0.2959  0.0441 -0.5602
   90MOL   O33330771   2.781   3.709   2.397  0.0722 -0.2750  0.4704
   90MOL   H33430772   2.656   3.791   2.578  0.6797 -0.1453  1.0061
   90MOL   H33530773   2.797   3.853   2.682 -0.7464 -0.7741  0.5042
   90MOL   H33630774   2.947   3.771   2.501 -0.3395  1.4135  0.6626
   90MOL   H33730775   2.684   3.498   2.504 -0.0969  1.3264  0.0537
   90MOL   H33830776   2.695   3.310   2.665 -2.2629 -0.0110  2.1271
   90MOL   H33930777   2.860   3.288   2.835  0.0701 -0.1968  0.1525
   90MOL   H34030778   3.025   3.472   2.869  0.1099 -0.1507  0.5500
   90MOL   H34130779   3.026   3.665   2.707  1.9487 -2.1213 -1.0407
   90MOL   H34230780   2.758   3.797   2.371 -0.3283 -0.1365  1.3111
   91MOL     C130781   2.654   6.253   6.554 -0.2199  0.0814 -0.0266
   91MOL     C230782   2.581   6.232   6.685 -0.4158  0.4201  0.0483
   91MOL     C330783   2.664   6.136   6.775  0.2535 -0.0615  0.0075
   91MOL     C430784   2.655   5.995   6.757  0.8721  0.1468  0.2553
   91MOL     C530785   2.740   5.914   6.838 -0.2578  0.5184  0.5651
   91MOL     C630786   2.828   5.975   6.937 -0.6094 -0.2437  0.5271
   91MOL     C730787   2.836   6.113   6.951  0.4548  0.5102  0.0636
   91MOL     C830788   2.749   6.192   6.869  1.1301  0.3812 -0.6649
   91MOL     O930789   2.448   6.187   6.656  0.0518  0.1329  0.2489
   91MOL    H1030790   2.605   6.335   6.503 -1.7896 -1.0654 -0.4034
   91MOL    H1130791   2.761   6.275   6.554 -0.0114 -0.9204 -0.1354
   91MOL    H1230792   2.583   6.330   6.734  1.4768 -0.2078  1.2716
   91MOL    H1330793   2.587   5.950   6.686 -1.1235 -0.0770  2.2246
   91MOL    H1430794   2.735   5.807   6.825  0.5941  0.6736 -1.3545
   91MOL    H1530795   2.896   5.923   7.003 -2.1451  2.1013  4.1345
   91MOL    H1630796   2.907   6.140   7.027 -0.7995  0.8149  1.1518
   91MOL    H1730797   2.739   6.298   6.888  3.1605  0.3676  0.6042
   91MOL    H1830798   2.654   6.168   6.485  0.0395  0.6940 -0.7883
   91MOL    C1930799   2.353   6.204   6.764 -0.0060 -0.4418 -0.2303
   91MOL    C2030800   2.258   6.322   6.735  0.0279 -0.4144  0.0407
   91MOL    C2130801   2.336   6.450   6.720 -0.2449  0.2202 -0.5122
   91MOL    C2230802   2.348   6.502   6.592  0.1758 -0.2082  0.1852
   91MOL    C2330803   2.429   6.613   6.577  0.6751  0.5527 -0.3615
   91MOL    C2430804   2.505   6.667   6.685  0.6094 -0.1087 -0.5249
   91MOL    C2530805   2.477   6.623   6.818  0.2115  0.8666 -0.3829
   91MOL    C2630806   2.393   6.511   6.831  0.3986 -0.2658  0.5186
   91MOL    O2730807   2.164   6.324   6.836  0.0618 -0.2812 -0.5358
   91MOL    H2830808   2.292   6.115   6.776 -0.8746  0.1020 -0.6085
   91MOL    H2930809   2.412   6.219   6.855 -1.3121 -0.1039  0.5777
   91MOL    H3030810   2.199   6.320   6.643  0.1977  2.2493 -0.1639
   91MOL    H3130811   2.288   6.467   6.509  0.0982 -2.3051  1.0881
   91MOL    H3230812   2.453   6.658   6.481  0.5337 -0.2986 -0.8001
   91MOL    H3330813   2.577   6.745   6.668  1.2535 -0.4299  0.7309
   91MOL    H3430814   2.536   6.660   6.900  1.3339 -1.5675 -0.0230
   91MOL    H3530815   2.369   6.484   6.933  0.7945 -0.5381  0.5425
   91MOL    C3630816   2.045   6.401   6.808 -0.4578  0.3984 -0.8156
   91MOL    C3730817   1.941   6.333   6.709  0.5805 -0.3554  0.0969
   91MOL    C3830818   1.960   6.179   6.695  0.6843 -0.2051 -0.1645
   91MOL    C3930819   1.966   6.118   6.565 -0.2317  0.5786 -0.3456
   91MOL    C4030820   1.991   5.977   6.559 -0.5718 -0.3341  0.9456
   91MOL    C4130821   1.995   5.898   6.677 -0.4917  0.1624  0.9958
   91MOL    C4230822   1.985   5.957   6.803  0.8615  0.2886  0.5678
   91MOL    C4330823   1.982   6.097   6.808  0.3884 -0.0372 -0.1949
   91MOL    O4430824   1.945   6.398   6.582 -0.5449  0.0084  0.1222
   91MOL    H4530825   2.000   6.414   6.906 -1.3623 -3.7880 -0.5837
   91MOL    H4630826   2.066   6.506   6.790 -0.3869  0.2289 -1.7668
   91MOL    H4730827   1.841   6.343   6.749  0.3311 -0.3131 -0.5288
   91MOL    H4830828   1.948   6.173   6.474 -1.3570  1.4733  0.4192
   91MOL    H4930829   2.012   5.932   6.463 -1.8016 -0.5183  0.7508
   91MOL    H5030830   2.020   5.794   6.663  2.2706  0.5915  2.4135
   91MOL    H5130831   1.995   5.901   6.895 -1.6585  0.4962  1.0032
   91MOL    H5230832   1.984   6.141   6.907  2.9880  2.1575 -1.1487
   91MOL    C5330833   1.827   6.456   6.539 -0.7099  0.1689 -0.2105
   91MOL    C5430834   1.832   6.537   6.411 -0.3578 -0.8151 -0.0080
   91MOL    C5530835   1.688   6.562   6.361  1.1211  0.0982  1.1991
   91MOL    C5630836   1.623   6.680   6.378  0.0817  0.2545 -0.3542
   91MOL    C5730837   1.491   6.697   6.337 -0.5437 -0.6647 -0.2361
   91MOL    C5830838   1.412   6.595   6.282  0.3748  0.6777 -0.4940
   91MOL    C5930839   1.475   6.466   6.265  0.3563  0.1184  0.2712
   91MOL    C6030840   1.612   6.453   6.308  0.1307  0.3401 -0.0911
   91MOL    O6130841   1.895   6.660   6.443  0.6337  0.3017 -0.1529
   91MOL    H6230842   1.757   6.373   6.527  0.7266 -1.0962  0.0436
   91MOL    H6330843   1.798   6.519   6.623 -0.3874  0.4458 -0.3055
   91MOL    H6430844   1.887   6.490   6.329 -0.0463  0.7394 -0.6977
   91MOL    H6530845   1.675   6.764   6.421 -0.2042 -0.0047  0.5079
   91MOL    H6630846   1.445   6.794   6.350 -1.7250 -1.3301  0.5675
   91MOL    H6730847   1.310   6.608   6.250  0.0130  1.6041  0.9830
   91MOL    H6830848   1.407   6.389   6.230  0.7089 -0.7244  1.4344
   91MOL    H6930849   1.653   6.353   6.305  3.1746  1.5476 -2.3174
   91MOL    C7030850   2.038   6.645   6.451  0.7072  0.1632  0.0661
   91MOL    C7130851   2.092   6.786   6.459 -0.5878  0.2462  0.7495
   91MOL    C7230852   2.027   6.862   6.574 -0.0084 -0.0530 -0.1276
   91MOL    C7330853   2.062   6.825   6.708 -0.4149  0.0028  0.5891
   91MOL    C7430854   2.009   6.905   6.813  0.3684 -1.2906 -0.3146
   91MOL    C7530855   1.921   7.008   6.787 -0.3372 -0.5160  0.1341
   91MOL    C7630856   1.885   7.041   6.653 -0.0273 -0.2954 -0.3700
   91MOL    C7730857   1.935   6.965   6.543  0.3075 -0.4765 -0.7258
   91MOL    O7830858   2.075   6.844   6.330 -0.1069 -0.2170 -0.6179
   91MOL    H7930859   2.067   6.596   6.544 -0.6341  0.4613  0.6547
   91MOL    H8030860   2.075   6.596   6.361  2.3496  3.1625 -0.9592
   91MOL    H8130861   2.200   6.791   6.474 -0.7042  2.2794  0.9868
   91MOL    H8230862   2.145   6.758   6.724  1.7123  2.8405  1.8385
   91MOL    H8330863   2.036   6.898   6.918 -0.7963 -2.5252 -0.0789
   91MOL    H8430864   1.886   7.071   6.868 -0.0160 -0.2836  0.0924
   91MOL    H8530865   1.823   7.128   6.640 -2.2075 -1.7178  0.2457
   91MOL    H8630866   1.916   6.989   6.440 -1.3784 -0.4760 -0.4301
   91MOL    C8730867   2.171   6.811   6.226  0.3371  0.7074 -0.3448
   91MOL    C8830868   2.114   6.878   6.092 -0.6760  0.3915 -0.5251
   91MOL    C8930869   1.996   6.791   6.039  0.3881 -0.7239 -0.6327
   91MOL    C9030870   1.867   6.799   6.089  0.7588 -0.0075 -0.1611
   91MOL    C9130871   1.752   6.738   6.036  0.3264 -0.1269  0.3437
   91MOL    C9230872   1.779   6.648   5.928  0.8042  0.6541 -0.3863
   91MOL    C9330873   1.906   6.641   5.868  0.2429  0.3831  0.0265
   91MOL    C9430874   2.015   6.716   5.917 -0.1765  0.2234 -0.1644
   91MOL    O9530875   2.226   6.890   6.001 -0.2503 -0.1909  0.2446
   91MOL    H9630876   2.179   6.704   6.208  0.9758  0.5550  0.8112
   91MOL    H9730877   2.265   6.860   6.252  2.0058 -2.2452 -0.6066
   91MOL    H9830878   2.075   6.977   6.116 -2.5103  0.1080 -2.1015
   91MOL    H9930879   1.847   6.868   6.170  0.6872  0.6816 -0.7553
   91MOL   H10030880   1.656   6.750   6.083 -0.1835  0.9711 -0.9635
   91MOL   H10130881   1.692   6.591   5.898  0.8538  0.4985 -0.2366
   91MOL   H10230882   1.926   6.582   5.779 -1.5524  0.9404 -0.7633
   91MOL   H10330883   2.116   6.715   5.879 -0.2962 -1.8330 -0.5046
   91MOL   C10430884   2.269   7.029   5.969  0.0985  0.7544  0.2053
   91MOL   C10530885   2.338   7.043   5.832  0.2985  0.7122  0.3240
   91MOL   C10630886   2.345   7.187   5.782  0.4383  0.3227  0.4826
   91MOL   C10730887   2.313   7.218   5.651 -0.0309 -0.4081 -0.0739
   91MOL   C10830888   2.309   7.350   5.599 -0.0924  0.8182 -0.6027
   91MOL   C10930889   2.337   7.451   5.684 -0.1132 -0.0047  0.2951
   91MOL   C11030890   2.377   7.426   5.817 -0.1155  0.3089  0.1814
   91MOL   C11130891   2.377   7.294   5.868  0.9218 -0.8272 -1.0816
   91MOL   O11230892   2.472   6.996   5.845  0.2824  0.1916  0.8074
   91MOL   H11330893   2.174   7.083   5.969 -0.1649  0.3164 -1.3540
   91MOL   H11430894   2.327   7.066   6.054  1.8294 -1.2134 -0.0826
   91MOL   H11530895   2.276   6.994   5.756  1.0539  1.5858 -0.8808
   91MOL   H11630896   2.274   7.132   5.598  0.6421 -0.2489 -0.8373
   91MOL   H11730897   2.270   7.366   5.500 -0.3652 -0.5693 -0.7402
   91MOL   H11830898   2.324   7.554   5.654 -0.1382 -0.4107 -1.0860
   91MOL   H11930899   2.394   7.508   5.884  1.0533 -2.3007  3.1833
   91MOL   H12030900   2.413   7.273   5.967 -1.4843 -0.1227 -0.0055
   91MOL   C12130901   2.534   6.949   5.730 -0.4588 -0.8062 -0.2070
   91MOL   C12230902   2.676   6.912   5.777  0.3837 -0.6148  0.1342
   91MOL   C12330903   2.755   6.866   5.654  0.0498 -0.0930 -0.7924
   91MOL   C12430904   2.785   6.733   5.626  0.3572  0.2360 -0.2831
   91MOL   C12530905   2.864   6.691   5.519  0.5006 -0.0017  0.0399
   91MOL   C12630906   2.905   6.795   5.434 -0.0476 -0.3555  0.1744
   91MOL   C12730907   2.872   6.927   5.455  0.5815  0.3320 -0.2850
   91MOL   C12830908   2.797   6.970   5.565  0.0085 -0.0676  0.5484
   91MOL   O12930909   2.734   7.021   5.850 -0.5483 -0.0903 -0.0664
   91MOL   H13030910   2.521   7.016   5.645  2.6551  0.7274  0.4596
   91MOL   H13130911   2.479   6.865   5.687 -0.2990 -1.0973  0.1596
   91MOL   H13230912   2.659   6.819   5.831  2.1309 -1.7726 -1.2551
   91MOL   H13330913   2.750   6.658   5.694 -0.1607  2.2468  1.7213
   91MOL   H13430914   2.890   6.589   5.494 -0.7148 -0.4186  0.4329
   91MOL   H13530915   2.963   6.771   5.346  1.7751 -1.4990  1.6523
   91MOL   H13630916   2.902   6.994   5.376  0.1745  1.2939  0.3725
   91MOL   H13730917   2.782   7.073   5.595 -0.6781  0.0713 -0.2488
   91MOL   C13830918   2.818   6.966   5.951  0.0103 -0.0639  0.3726
   91MOL   C13930919   2.877   7.059   6.068 -0.0477 -0.2320  0.4963
   91MOL   C14030920   2.954   7.183   6.022  0.2083  0.5698 -0.0246
   91MOL   C14130921   2.971   7.289   6.110 -0.2601  0.0183 -0.4709
   91MOL   C14230922   3.044   7.404   6.075  0.1376 -0.4086  0.0730
   91MOL   C14330923   3.108   7.404   5.949 -0.5191  0.1097 -0.2010
   91MOL   C14430924   3.090   7.299   5.858 -0.0639 -0.3071 -0.6956
   91MOL   C14530925   3.011   7.187   5.894  0.4781  0.5422  0.5658
   91MOL   O14630926   2.791   7.069   6.183  0.9236 -0.4167  0.4959
   91MOL   H14730927   2.901   6.921   5.897  0.1809  1.0336 -0.3044
   91MOL   H14830928   2.766   6.884   6.000  0.8635 -0.8764 -0.0744
   91MOL   H14930929   2.959   7.001   6.110  1.0312 -1.0423 -2.5943
   91MOL   H15030930   2.935   7.285   6.212  3.2005 -1.2262  0.7940
   91MOL   H15130931   3.064   7.476   6.153  2.2900 -0.4064 -0.4332
   91MOL   H15230932   3.173   7.481   5.911  1.2479 -1.1396  0.2799
   91MOL   H15330933   3.141   7.300   5.763 -1.0310  0.1514 -1.2265
   91MOL   H15430934   2.989   7.111   5.820 -1.9278  1.3522  0.4068
   91MOL   C15530935   2.670   7.137   6.148 -0.0836  0.3571  0.1976
   91MOL   C15630936   2.609   7.194   6.280  0.1530  0.0525  0.0563
   91MOL   C15730937   2.709   7.291   6.351 -0.8789 -0.5913  0.6530
   91MOL   C15830938   2.787   7.245   6.456  0.5989  0.8175  0.8209
   91MOL   C15930939   2.882   7.334   6.523  0.2085 -0.6908 -0.3326
   91MOL   C16030940   2.907   7.459   6.469 -0.7614 -0.2776  0.3008
   91MOL   C16130941   2.846   7.498   6.346 -0.0569 -0.0195 -0.9036
   91MOL   C16230942   2.737   7.418   6.296 -0.2284  0.3214 -0.0721
   91MOL   O16330943   2.486   7.258   6.240 -0.0236  0.4603 -0.2884
   91MOL   H16430944   2.598   7.073   6.098  1.8022 -0.6587 -1.2965
   91MOL   H16530945   2.699   7.221   6.086 -0.6749  0.0832 -0.4545
   91MOL   H16630946   2.582   7.116   6.351  0.5099 -0.1159  0.0063
   91MOL   H16730947   2.758   7.148   6.495 -1.6270  0.7876 -0.8616
   91MOL   H16830948   2.931   7.294   6.610 -1.3017 -1.6480  0.1014
   91MOL   H16930949   2.980   7.525   6.514 -0.7384  0.3407 -0.6252
   91MOL   H17030950   2.866   7.599   6.315 -0.8856  0.5084  0.2102
   91MOL   H17130951   2.689   7.459   6.208 -2.1334  1.5129  1.4826
   91MOL   C17230952   2.395   7.292   6.340 -0.6052 -0.6716 -0.1154
   91MOL   C17330953   2.287   7.378   6.275  0.8729  0.7727  0.0025
   91MOL   C17430954   2.339   7.521   6.247  0.6876 -0.1472 -0.2918
   91MOL   C17530955   2.298   7.633   6.325  0.9158  0.9961 -0.5464
   91MOL   C17630956   2.342   7.761   6.292  0.1399  0.0769  0.1100
   91MOL   C17730957   2.439   7.785   6.196 -0.0262  0.7949  0.9048
   91MOL   C17830958   2.471   7.680   6.110  0.1858  0.2735  0.2108
   91MOL   C17930959   2.429   7.544   6.141  0.0255  0.1026  0.1904
   91MOL   O18030960   2.178   7.368   6.363 -0.0468  0.0914 -0.4929
   91MOL   H18130961   2.365   7.194   6.376  1.4597 -2.6970 -3.6179
   91MOL   H18230962   2.437   7.341   6.428  0.8042 -0.4006 -0.9224
   91MOL   H18330963   2.253   7.338   6.180 -2.1142  1.8783  0.5401
   91MOL   H18430964   2.225   7.610   6.401  1.7987  1.1905  0.3605
   91MOL   H18530965   2.314   7.846   6.353  0.4457 -0.2133  0.6596
   91MOL   H18630966   2.488   7.880   6.178 -0.4225  0.4315 -2.4166
   91MOL   H18730967   2.545   7.692   6.031 -0.6360  1.3969 -0.4015
   91MOL   H18830968   2.475   7.458   6.094  1.4429  1.1127 -0.2788
   91MOL   C18930969   2.073   7.282   6.317 -0.7684  0.4010 -0.1636
   91MOL   C19030970   1.960   7.344   6.230  0.0439  0.1750 -0.2789
   91MOL   C19130971   1.828   7.257   6.222  0.0662 -0.0377  0.0738
   91MOL   C19230972   1.762   7.225   6.345 -0.0093  0.5372  0.0333
   91MOL   C19330973   1.646   7.146   6.345 -0.2754 -0.0908  0.1345
   91MOL   C19430974   1.598   7.098   6.220  0.0460 -0.1674  0.0140
   91MOL   C19530975   1.664   7.124   6.096 -0.3846  0.3149 -0.0800
   91MOL   C19630976   1.781   7.202   6.102 -0.1511  0.6212 -0.7366
   91MOL   O19730977   2.019   7.370   6.105 -0.2713 -0.1096  0.3460
   91MOL   H19830978   2.115   7.191   6.275  0.0073  0.9644 -0.6133
   91MOL   H19930979   2.033   7.262   6.417 -0.8700 -1.5940 -0.5793
   91MOL   H20030980   1.923   7.439   6.268  0.3241  0.7025 -1.3013
   91MOL   H20130981   1.803   7.263   6.437  2.3568 -0.4307 -0.5777
   91MOL   H20230982   1.592   7.130   6.437  0.4693  0.7766  0.7365
   91MOL   H20330983   1.508   7.039   6.222  1.1585 -1.9980 -1.6002
   91MOL   H20430984   1.612   7.091   6.008 -1.2598  2.6448 -0.4717
   91MOL   H20530985   1.832   7.228   6.010  2.8561  0.0789  0.7303
   91MOL   C20630986   1.994   7.500   6.056  0.2810 -0.3978 -0.5528
   91MOL   C20730987   2.021   7.505   5.903  0.4032 -0.0972 -0.0290
   91MOL   C20830988   2.046   7.652   5.851  0.5739 -0.3016  0.5805
   91MOL   C20930989   2.160   7.719   5.889 -0.4532 -0.4171  0.1768
   91MOL   C21030990   2.177   7.851   5.840 -1.0185  0.3006  0.6489
   91MOL   C21130991   2.080   7.923   5.769  0.0453 -0.6588  0.7382
   91MOL   C21230992   1.962   7.853   5.735  0.0603 -0.0491  0.2811
   91MOL   C21330993   1.946   7.724   5.781  0.1591 -0.0582  1.0548
   91MOL   O21430994   1.905   7.448   5.854 -0.2783  0.0074  0.5450
   91MOL   H21530995   1.892   7.529   6.081  0.9694  1.1112  0.5739
   91MOL   H21630996   2.058   7.568   6.112 -1.7083  0.2952  0.9068
   91MOL   H21730997   2.107   7.443   5.878  1.6641  1.1081  1.2525
   91MOL   H21830998   2.235   7.674   5.952 -1.2225 -0.9997  0.6868
   91MOL   H21930999   2.273   7.897   5.858  0.4367 -1.9788 -0.9847
   91MOL   H22031000   2.107   8.022   5.735 -1.2022 -0.8055 -0.6917
   91MOL   H22131001   1.885   7.888   5.668 -2.5209 -2.6868  1.7459
   91MOL   H22231002   1.857   7.668   5.758  1.0064 -1.3423  0.8157
   91MOL   C22331003   1.922   7.380   5.732 -0.2632 -0.4553  0.4614
   91MOL   C22431004   1.792   7.350   5.658  0.5895  0.6041  0.6230
   91MOL   C22531005   1.681   7.454   5.683  0.4031  0.3674 -1.0340
   91MOL   C22631006   1.629   7.533   5.578 -0.1769 -0.5420 -0.0644
   91MOL   C22731007   1.528   7.622   5.610  0.0850  0.7625  0.3631
   91MOL   C22831008   1.475   7.638   5.739  0.2408 -0.1822 -0.1789
   91MOL   C22931009   1.518   7.555   5.846 -0.3513  0.2647  0.1738
   91MOL   C23031010   1.623   7.467   5.813 -0.4632  0.5824 -0.5174
   91MOL   O23131011   1.821   7.330   5.520 -0.6022 -0.1151  0.7206
   91MOL   H23231012   1.968   7.448   5.661 -0.4173 -0.3727  0.4408
   91MOL   H23331013   1.994   7.298   5.744 -1.0619 -1.3791 -0.9931
   91MOL   H23431014   1.758   7.251   5.690  0.4311  0.1776 -0.8408
   91MOL   H23531015   1.655   7.529   5.473 -1.5675 -0.0120 -0.4492
   91MOL   H23631016   1.495   7.689   5.532  0.6924  1.1312  0.4251
   91MOL   H23731017   1.409   7.722   5.753  0.1422 -0.5874  1.9723
   91MOL   H23831018   1.482   7.568   5.947  0.9537  0.5026  0.6067
   91MOL   H23931019   1.656   7.405   5.896  0.2463 -1.3414 -2.1799
   91MOL   C24031020   1.729   7.256   5.450  0.5665 -0.7013  0.0743
   91MOL   C24131021   1.773   7.248   5.307 -0.4646 -0.1526  0.0516
   91MOL   C24231022   1.665   7.193   5.219  0.3884 -0.7466 -0.5108
   91MOL   C24331023   1.654   7.056   5.186  0.0054 -0.3386  0.6655
   91MOL   C24431024   1.536   7.005   5.125 -0.3508  0.0795  0.3350
   91MOL   C24531025   1.438   7.092   5.079  0.1997  1.1714 -0.0409
   91MOL   C24631026   1.449   7.230   5.097  0.2352 -0.8408 -0.2137
   91MOL   C24731027   1.563   7.282   5.164  0.3080  0.2029  0.0805
   91MOL   O24831028   1.806   7.377   5.254 -0.3038  0.3363 -0.3249
   91MOL   H24931029   1.718   7.156   5.491 -0.4501  0.0856  1.7671
   91MOL   H25031030   1.627   7.293   5.462  0.6988 -0.3289  0.0498
   91MOL   H25131031   1.856   7.178   5.310  0.0499  0.4695  0.5335
   91MOL   H25231032   1.741   7.000   5.217  1.7042  0.1165 -2.9884
   91MOL   H25331033   1.529   6.901   5.098  0.8336 -0.1489  0.8629
   91MOL   H25431034   1.348   7.063   5.027 -0.6744 -1.7126  2.9272
   91MOL   H25531035   1.374   7.302   5.068  0.3421 -1.0661 -1.0679
   91MOL   H25631036   1.575   7.387   5.184  0.7004  0.3807 -1.0721
   91MOL   C25731037   1.875   7.378   5.127 -0.2061 -0.5528  0.0379
   91MOL   C25831038   1.870   7.524   5.055 -0.2550  0.2911 -0.3184
   91MOL   C25931039   1.723   7.567   5.031 -0.4077  0.0713  0.0401
   91MOL   C26031040   1.658   7.510   4.923 -0.5156  0.4321  0.1302
   91MOL   C26131041   1.519   7.528   4.913  0.7945 -0.6755  0.1867
   91MOL   C26231042   1.452   7.604   5.012  0.4041  0.5436  0.4054
   91MOL   C26331043   1.518   7.663   5.121  0.3270 -0.0117  0.4068
   91MOL   C26431044   1.654   7.642   5.132 -0.0592  0.1567  0.1146
   91MOL   O26531045   1.947   7.512   4.939 -0.7512  0.1547  0.4347
   91MOL   H26631046   1.842   7.303   5.055 -0.6621 -0.4403  0.1285
   91MOL   H26731047   1.979   7.347   5.132 -0.3002 -1.2191 -1.7569
   91MOL   H26831048   1.908   7.596   5.127 -0.6343  0.1388  0.0337
   91MOL   H26931049   1.720   7.456   4.853  0.4568 -0.0894  1.3713
   91MOL   H27031050   1.475   7.477   4.829  1.8736 -0.9915 -0.1965
   91MOL   H27131051   1.348   7.630   5.008  0.1757 -0.1837  1.2758
   91MOL   H27231052   1.460   7.707   5.201  0.0274 -2.6661  1.7235
   91MOL   H27331053   1.705   7.683   5.217  0.8953  0.3456 -0.5548
   91MOL   C27431054   2.009   7.630   4.883  1.4145  0.4530 -0.7327
   91MOL   C27531055   2.084   7.590   4.748  0.6584 -0.2584 -0.0403
   91MOL   C27631056   1.993   7.528   4.640  0.2034 -0.3563  0.6753
   91MOL   C27731057   1.967   7.604   4.523  0.1940  0.2718  0.3133
   91MOL   C27831058   1.889   7.545   4.421  0.5448 -0.3130  0.4569
   91MOL   C27931059   1.854   7.408   4.425 -0.7031  1.2252 -0.1581
   91MOL   C28031060   1.889   7.337   4.542 -0.5067  0.5095 -0.3914
   91MOL   C28131061   1.959   7.393   4.647  0.4049 -0.8168 -0.0189
   91MOL   O28231062   2.207   7.523   4.770  0.4095 -0.4681 -0.1005
   91MOL   H28331063   1.941   7.714   4.872 -1.0598 -0.9482  2.9883
   91MOL   H28431064   2.078   7.679   4.951  0.7743  2.0288 -1.2024
   91MOL   H28531065   2.111   7.687   4.708  0.2519  0.0392  0.3934
   91MOL   H28631066   2.002   7.706   4.520  0.1014  0.2678 -0.7720
   91MOL   H28731067   1.860   7.604   4.335  0.8184  1.2111  1.3783
   91MOL   H28831068   1.803   7.363   4.342 -0.4506  0.4964  0.0826
   91MOL   H28931069   1.850   7.236   4.552 -0.5749  0.5243 -0.5050
   91MOL   H29031070   1.968   7.349   4.746 -1.4326  0.1303  0.5898
   91MOL   C29131071   2.290   7.518   4.652 -0.1443  0.2799 -0.1158
   91MOL   C29231072   2.427   7.473   4.686 -0.5793 -0.0620  0.3167
   91MOL   C29331073   2.497   7.421   4.565  0.0039  0.1529  0.4402
   91MOL   C29431074   2.520   7.280   4.547  0.3652 -0.0287  0.4619
   91MOL   C29531075   2.590   7.232   4.443 -0.1302 -0.2652 -0.6216
   91MOL   C29631076   2.630   7.323   4.339 -0.5171  0.2846  0.2056
   91MOL   C29731077   2.617   7.464   4.352  0.2285 -0.3461  0.6046
   91MOL   C29831078   2.548   7.511   4.462  0.4191  0.1319 -0.5370
   91MOL   O29931079   2.495   7.589   4.732 -0.2050 -0.1945  0.1117
   91MOL   H30031080   2.296   7.621   4.616 -0.5324 -0.2030 -1.6009
   91MOL   H30131081   2.248   7.456   4.573 -1.0330  1.7005 -0.7593
   91MOL   H30231082   2.422   7.396   4.763 -0.8983 -0.2188  0.1442
   91MOL   H30331083   2.493   7.214   4.628  0.6946 -1.9848 -0.9701
   91MOL   H30431084   2.618   7.128   4.439  0.5385 -0.1140  0.0837
   91MOL   H30531085   2.689   7.291   4.255 -0.8520 -1.9997  0.8109
   91MOL   H30631086   2.663   7.523   4.275  0.0703 -0.2367  0.5929
   91MOL   H30731087   2.542   7.618   4.477 -1.8844  0.2747 -2.2377
   91MOL   C30831088   2.617   7.578   4.798  0.3626  0.3110  0.4075
   91MOL   C30931089   2.643   7.708   4.869 -0.4598 -0.0524 -0.1872
   91MOL   C31031090   2.747   7.674   4.977 -1.0501  0.1720  0.3467
   91MOL   C31131091   2.707   7.618   5.103 -0.0784 -0.0847  0.1189
   91MOL   C31231092   2.807   7.584   5.198  0.7894  0.0742 -0.1465
   91MOL   C31331093   2.946   7.604   5.169  0.0220  0.6125  0.2035
   91MOL   C31431094   2.979   7.661   5.049 -0.8512 -0.1652  0.7064
   91MOL   C31531095   2.882   7.690   4.950 -0.2475 -0.2526  0.2132
   91MOL   O31631096   2.696   7.790   4.765 -0.1317  0.3958 -0.2164
   91MOL   H31731097   2.689   7.551   4.721  0.4307 -0.8896  0.8792
   91MOL   H31831098   2.597   7.500   4.873  2.7640 -1.3746 -0.6205
   91MOL   H31931099   2.553   7.746   4.917 -1.1220 -0.5447 -1.0142
   91MOL   H32031100   2.603   7.608   5.128 -0.2658 -0.3742 -0.7703
   91MOL   H32131101   2.780   7.542   5.293  3.2862 -0.1305  0.4928
   91MOL   H32231102   3.029   7.579   5.235 -0.0845  0.1865  0.1813
   91MOL   H32331103   3.084   7.681   5.030 -0.6871  1.4600  3.0915
   91MOL   H32431104   2.922   7.733   4.859  0.5938 -0.6692  0.3808
   91MOL   C32531105   2.696   7.928   4.804  0.3338 -0.2392  0.1905
   91MOL   C32631106   2.783   8.008   4.700  0.5744 -0.5992  0.0275
   91MOL   C32731107   2.722   7.999   4.557  0.0185  0.2828 -0.1279
   91MOL   C32831108   2.663   0.032   4.499  0.5964 -0.0130  0.0073
   91MOL   C32931109   2.610   0.027   4.367  0.9350  0.3103  0.2826
   91MOL   C33031110   2.613   7.995   4.290 -0.1449 -0.0821 -0.5577
   91MOL   C33131111   2.663   7.874   4.349 -0.6949 -0.3684  0.3951
   91MOL   C33231112   2.720   7.879   4.480 -0.7831  0.1550  0.4923
   91MOL   O33331113   2.780   0.059   4.757  0.3359  0.1863  0.7461
   91MOL   H33431114   2.735   7.924   4.906  1.9274 -0.7963 -0.4171
   91MOL   H33531115   2.595   7.967   4.805 -0.0379 -1.0795 -1.4376
   91MOL   H33631116   2.881   7.970   4.672  0.3406 -0.5862 -0.8429
   91MOL   H33731117   2.647   0.120   4.560 -1.3765 -1.2448  1.2908
   91MOL   H33831118   2.576   0.119   4.323  1.2110  0.5289  0.5309
   91MOL   H33931119   2.558   7.994   4.197  4.0632  1.1586 -3.2470
   91MOL   H34031120   2.666   7.778   4.300  0.1509 -0.2683  0.2360
   91MOL   H34131121   2.761   7.793   4.531  1.4980  0.3825 -0.9351
   91MOL   H34231122   2.826   0.111   4.693  0.3879  0.6892  1.1925
   92MOL     C131123   6.435   2.504   1.273 -0.6171 -0.1446 -0.2262
   92MOL     C231124   6.435   2.371   1.195  0.0525  0.3846 -0.4629
   92MOL     C331125   6.571   2.326   1.135 -0.0975  0.3298 -0.0032
   92MOL     C431126   6.652   2.235   1.210  0.5276  0.2079  0.3001
   92MOL     C531127   6.771   2.191   1.150 -0.0317  0.1713 -0.3084
   92MOL     C631128   6.822   2.246   1.032 -0.7574 -0.6412  0.4108
   92MOL     C731129   6.742   2.335   0.960  0.1848  0.3251  0.1871
   92MOL     C831130   6.616   2.380   1.012  0.4554 -0.1421 -1.0154
   92MOL     O931131   6.337   2.392   1.092 -0.0852 -0.0208 -0.7630
   92MOL    H1031132   6.498   2.493   1.361 -0.6459  3.0251  0.2625
   92MOL    H1131133   6.487   2.586   1.223 -2.7939  2.3889  1.5436
   92MOL    H1231134   6.402   2.291   1.261  0.7819  1.1386  0.8323
   92MOL    H1331135   6.620   2.195   1.305  1.7235  1.1071  1.1014
   92MOL    H1431136   6.828   2.111   1.194  2.6738  2.2256  0.0234
   92MOL    H1531137   6.912   2.212   0.983 -1.7990 -0.7232 -1.5020
   92MOL    H1631138   6.771   2.367   0.861  0.5909  1.5977  0.6991
   92MOL    H1731139   6.553   2.443   0.952 -1.7303 -1.2809  0.0397
   92MOL    H1831140   6.335   2.541   1.295 -0.1609  1.2854 -0.5121
   92MOL    C1931141   6.257   2.283   1.053  0.7544  0.1249  0.2104
   92MOL    C2031142   6.140   2.338   0.964  0.1755 -0.2554 -0.6836
   92MOL    C2131143   6.190   2.379   0.825  1.2396 -0.6239 -0.1131
   92MOL    C2231144   6.207   2.514   0.796 -1.0285 -0.2871  0.2147
   92MOL    C2331145   6.265   2.544   0.672  0.2947  0.3599 -0.3572
   92MOL    C2431146   6.310   2.440   0.579 -1.2394  0.4778  0.1238
   92MOL    C2531147   6.292   2.307   0.614  0.3290 -0.3652  0.5285
   92MOL    C2631148   6.233   2.276   0.733 -0.2371 -0.6227  0.0881
   92MOL    O2731149   6.070   2.446   1.035 -0.0189 -0.5680 -0.7819
   92MOL    H2831150   6.313   2.202   1.008 -0.3519 -1.2793  1.3154
   92MOL    H2931151   6.211   2.249   1.146  1.1180  0.4885  0.5287
   92MOL    H3031152   6.067   2.259   0.948  0.2597 -0.7047  0.9742
   92MOL    H3131153   6.170   2.587   0.867 -1.3886  1.4142 -1.6759
   92MOL    H3231154   6.276   2.647   0.642 -4.0962  1.4297  1.4497
   92MOL    H3331155   6.371   2.468   0.495 -1.6766  0.0979 -0.3186
   92MOL    H3431156   6.322   2.224   0.550 -2.0887 -1.2738  0.5366
   92MOL    H3531157   6.226   2.171   0.758 -0.5104 -0.4411  0.8020
   92MOL    C3631158   5.988   2.405   1.137  0.2204  0.2944  0.9179
   92MOL    C3731159   5.996   2.516   1.242 -0.0360  0.1836  0.2844
   92MOL    C3831160   5.982   2.463   1.386  0.5249 -0.3285 -0.2245
   92MOL    C3931161   6.087   2.432   1.475 -0.7235  0.6067  0.3821
   92MOL    C4031162   6.064   2.385   1.605 -0.0703  0.2766  0.3136
   92MOL    C4131163   5.936   2.373   1.661  0.5681 -0.1206 -0.1660
   92MOL    C4231164   5.832   2.409   1.571 -0.1085  0.7125 -0.1873
   92MOL    C4331165   5.852   2.456   1.439 -0.4937 -0.1669  0.6588
   92MOL    O4431166   5.891   2.609   1.215 -1.0739 -0.5908 -0.2326
   92MOL    H4531167   5.890   2.401   1.090  0.9738  1.1846 -0.8075
   92MOL    H4631168   6.009   2.309   1.184 -0.4742 -1.9619 -3.0565
   92MOL    H4731169   6.088   2.574   1.238  0.8625 -1.0536  2.0173
   92MOL    H4831170   6.190   2.431   1.440 -1.6892  1.4460 -2.5932
   92MOL    H4931171   6.151   2.373   1.668  0.6508 -0.4323 -0.7971
   92MOL    H5031172   5.930   2.338   1.763  0.4851  0.7675  0.1378
   92MOL    H5131173   5.731   2.396   1.606  1.2392 -0.5249  3.4850
   92MOL    H5231174   5.765   2.461   1.375 -0.0278  1.5618  0.1410
   92MOL    C5331175   5.904   2.741   1.267 -0.1313 -0.3515 -0.4592
   92MOL    C5431176   5.769   2.815   1.242 -0.2382  0.9525 -0.0879
   92MOL    C5531177   5.654   2.738   1.302 -0.7133 -0.0247  0.2200
   92MOL    C5631178   5.554   2.680   1.214 -0.0492 -0.3102 -0.2925
   92MOL    C5731179   5.453   2.598   1.270  0.3149 -1.2122  0.6759
   92MOL    C5831180   5.451   2.574   1.409  0.8534 -0.0573  0.2667
   92MOL    C5931181   5.544   2.639   1.495  0.2940  0.4674 -0.4212
   92MOL    C6031182   5.646   2.718   1.438 -0.0373 -0.8375  0.9098
   92MOL    O6131183   5.774   2.943   1.305 -0.2073  0.5618 -0.2786
   92MOL    H6231184   5.931   2.736   1.372  0.0704  1.4393 -0.4158
   92MOL    H6331185   5.989   2.797   1.227 -0.2041  0.9889  1.1972
   92MOL    H6431186   5.771   2.837   1.135  2.1923 -0.8629 -0.4591
   92MOL    H6531187   5.575   2.696   1.109  1.0841 -1.0646 -0.1954
   92MOL    H6631188   5.370   2.562   1.212  0.8860 -0.9881 -0.2878
   92MOL    H6731189   5.377   2.501   1.442  1.6197 -1.8595 -1.8517
   92MOL    H6831190   5.528   2.638   1.602  0.3833 -0.3557 -0.4164
   92MOL    H6931191   5.716   2.775   1.498 -1.3860  3.3481 -1.3215
   92MOL    C7031192   5.846   3.050   1.242 -0.0314  0.6551  0.8006
   92MOL    C7131193   5.812   3.184   1.316  1.2663 -0.1148  1.1611
   92MOL    C7231194   5.854   3.300   1.224 -0.4415 -0.0668  0.2732
   92MOL    C7331195   5.971   3.370   1.257  0.3954  0.0609  0.2633
   92MOL    C7431196   6.009   3.484   1.177  0.3269  0.0675 -0.1799
   92MOL    C7531197   5.933   3.513   1.062 -0.6898 -0.3945 -0.0390
   92MOL    C7631198   5.814   3.436   1.028 -0.3216  0.2349 -0.2202
   92MOL    C7731199   5.768   3.334   1.113 -0.1795  0.0557 -0.2578
   92MOL    O7831200   5.878   3.180   1.439  0.6654  0.1695 -0.3412
   92MOL    H7931201   5.953   3.033   1.257 -0.6364 -1.1620  3.5175
   92MOL    H8031202   5.820   3.073   1.139 -1.1937 -1.3356  0.6424
   92MOL    H8131203   5.705   3.184   1.331  1.1891 -3.6064  1.0419
   92MOL    H8231204   6.026   3.339   1.344 -0.5586 -0.7844  0.5682
   92MOL    H8331205   6.090   3.545   1.213 -0.7592  2.7809 -2.1711
   92MOL    H8431206   5.973   3.593   1.002  1.5773 -1.5168 -0.0600
   92MOL    H8531207   5.756   3.450   0.938 -1.4535 -2.6661  0.0260
   92MOL    H8631208   5.677   3.278   1.100 -0.6019  0.3298  1.3919
   92MOL    C8731209   5.799   3.137   1.549 -0.1316  0.7633 -0.5029
   92MOL    C8831210   5.894   3.097   1.667  0.1331 -0.2046  0.0841
   92MOL    C8931211   5.990   2.982   1.622  0.1867 -0.5978  0.2150
   92MOL    C9031212   6.106   3.014   1.545 -0.6418 -0.0643 -0.1758
   92MOL    C9131213   6.208   2.917   1.518 -0.8586  0.2511  0.3374
   92MOL    C9231214   6.179   2.781   1.538  0.2712  0.0527 -0.3593
   92MOL    C9331215   6.063   2.749   1.617  0.1096  0.0998 -0.5180
   92MOL    C9431216   5.976   2.847   1.656 -0.1697  0.4454 -0.0876
   92MOL    O9531217   5.815   3.041   1.771 -0.8062 -0.5092 -0.0755
   92MOL    H9631218   5.737   3.050   1.527  2.4126 -1.3491  0.4531
   92MOL    H9731219   5.746   3.230   1.569 -1.0474  0.2860 -0.7206
   92MOL    H9831220   5.955   3.182   1.700 -0.8220  1.3238 -2.0230
   92MOL    H9931221   6.113   3.122   1.540 -1.0267 -0.0661 -0.7923
   92MOL   H10031222   6.305   2.933   1.474 -0.5874 -0.0615  0.8091
   92MOL   H10131223   6.253   2.704   1.519  0.4140  0.0282  0.2947
   92MOL   H10231224   6.043   2.649   1.654 -1.6985  0.4928 -0.4006
   92MOL   H10331225   5.894   2.819   1.720 -0.3605 -1.0345 -0.9637
   92MOL   C10431226   5.769   3.140   1.858 -0.4055  0.4689 -1.1521
   92MOL   C10531227   5.880   3.171   1.963 -0.2147 -0.4131 -0.3575
   92MOL   C10631228   5.965   3.050   2.007 -1.1165 -0.0398  0.2739
   92MOL   C10731229   6.105   3.059   2.008 -0.1244  0.6962 -0.3816
   92MOL   C10831230   6.177   2.934   2.039  0.0796 -0.8056 -0.1784
   92MOL   C10931231   6.115   2.818   2.088 -0.5546 -0.4175  0.6816
   92MOL   C11031232   5.977   2.822   2.099  0.3497 -0.0434  0.4479
   92MOL   C11131233   5.900   2.937   2.058 -0.1562  0.1261  0.4666
   92MOL   O11231234   5.954   3.288   1.921  0.2027 -0.9955  0.1756
   92MOL   H11331235   5.722   3.225   1.808 -3.4254 -0.2407  0.3382
   92MOL   H11431236   5.685   3.090   1.906  1.5139 -0.8167  1.0116
   92MOL   H11531237   5.839   3.207   2.058 -1.4919 -3.3025  0.2219
   92MOL   H11631238   6.152   3.154   1.986  1.3529  0.4393  1.5142
   92MOL   H11731239   6.283   2.945   2.028  0.1375 -0.1162  0.9867
   92MOL   H11831240   6.168   2.725   2.101 -0.3962 -0.4276  0.0026
   92MOL   H11931241   5.924   2.735   2.133 -1.9367  1.1659  0.1154
   92MOL   H12031242   5.793   2.921   2.063  0.0958 -1.5219  0.9001
   92MOL   C12131243   5.910   3.419   1.959 -0.6134 -0.7813 -0.5585
   92MOL   C12231244   5.945   3.450   2.108  0.2352  0.4121  0.1886
   92MOL   C12331245   5.950   3.601   2.130  0.0686 -0.0589 -0.3507
   92MOL   C12431246   5.834   3.682   2.105  0.6477 -0.8630 -0.1442
   92MOL   C12531247   5.843   3.820   2.131 -0.3214  0.5946 -0.0017
   92MOL   C12631248   5.962   3.877   2.181 -0.2298 -0.1688  0.0079
   92MOL   C12731249   6.074   3.802   2.200 -0.0614 -0.2693  0.4925
   92MOL   C12831250   6.071   3.661   2.175  0.2364  0.4582 -0.3213
   92MOL   O12931251   5.838   3.397   2.188 -0.2727  0.6096 -0.6907
   92MOL   H13031252   5.806   3.438   1.932 -0.3840  1.9082  0.3211
   92MOL   H13131253   5.980   3.477   1.901  0.5189 -1.2023  0.3572
   92MOL   H13231254   6.041   3.403   2.129 -0.4885 -2.0951 -1.8325
   92MOL   H13331255   5.751   3.631   2.058 -0.5022 -0.9219  1.9165
   92MOL   H13431256   5.750   3.871   2.112 -0.6226  0.3304  0.7365
   92MOL   H13531257   5.960   3.984   2.195 -3.1731 -0.4976  2.5135
   92MOL   H13631258   6.165   3.853   2.231 -0.8859  2.2092 -0.9603
   92MOL   H13731259   6.161   3.602   2.187 -0.8813 -1.2741 -0.3770
   92MOL   C13831260   5.871   3.378   2.332  0.0233  0.0242 -0.2814
   92MOL   C13931261   5.820   3.493   2.412  0.0772  0.3554  0.4071
   92MOL   C14031262   5.664   3.484   2.412 -0.3525 -0.8589  0.0521
   92MOL   C14131263   5.589   3.581   2.344  0.2492  0.1641 -0.0271
   92MOL   C14231264   5.453   3.558   2.314  0.4628  0.3865 -0.5739
   92MOL   C14331265   5.398   3.438   2.363 -1.0053  0.2195 -0.0864
   92MOL   C14431266   5.462   3.354   2.454  0.2651  0.2534  0.2630
   92MOL   C14531267   5.600   3.380   2.472 -0.8601  0.0249 -0.0113
   92MOL   O14631268   5.874   3.488   2.538  0.3070  0.1757  0.5116
   92MOL   H14731269   5.978   3.363   2.349  0.0708 -1.9280 -2.0817
   92MOL   H14831270   5.835   3.278   2.358  0.3338 -0.6369 -2.2784
   92MOL   H14931271   5.864   3.583   2.370  0.5992  0.2498  0.7155
   92MOL   H15031272   5.630   3.668   2.293 -0.6537 -0.6701 -2.2542
   92MOL   H15131273   5.385   3.625   2.263  1.1756  0.8909 -0.8872
   92MOL   H15231274   5.297   3.413   2.337 -0.1767 -1.8392 -1.4198
   92MOL   H15331275   5.413   3.278   2.512  0.9848  1.0759  1.9761
   92MOL   H15431276   5.664   3.322   2.536  0.1036  1.7780  0.6613
   92MOL   C15531277   5.829   3.585   2.632  0.0168 -0.8291 -0.2171
   92MOL   C15631278   5.875   3.731   2.597 -0.2262 -0.8427  0.3094
   92MOL   C15731279   5.766   3.835   2.628 -0.1051 -0.0358  0.8985
   92MOL   C15831280   5.746   3.940   2.537  0.2940  0.6121 -0.1056
   92MOL   C15931281   5.649   4.041   2.570 -0.0707  0.0743  0.8861
   92MOL   C16031282   5.572   4.036   2.689 -0.3477  0.2110  0.2024
   92MOL   C16131283   5.602   3.930   2.777  1.2720  0.2907 -0.3370
   92MOL   C16231284   5.696   3.829   2.749 -0.2999  0.0511 -0.3036
   92MOL   O16331285   5.994   3.768   2.659 -0.1433  0.1353  0.3802
   92MOL   H16431286   5.854   3.551   2.733 -1.4439  0.1269  0.5043
   92MOL   H16531287   5.720   3.576   2.632  0.0952 -1.7632 -0.1329
   92MOL   H16631288   5.883   3.742   2.489 -4.0420 -0.6188 -0.0240
   92MOL   H16731289   5.799   3.967   2.447 -1.2587  2.1244 -0.6173
   92MOL   H16831290   5.626   4.118   2.498 -0.4781 -1.3661 -0.5375
   92MOL   H16931291   5.499   4.109   2.724 -0.0025  0.6516  0.0081
   92MOL   H17031292   5.554   3.926   2.874  0.1370 -1.4638 -0.9429
   92MOL   H17131293   5.708   3.749   2.820  0.2735  0.6983  0.3323
   92MOL   C17231294   6.107   3.696   2.602 -0.3020  0.3761  0.6875
   92MOL   C17331295   6.245   3.728   2.650  0.0799 -0.1006 -0.2051
   92MOL   C17431296   6.343   3.724   2.534  0.0862 -0.3084 -0.1034
   92MOL   C17531297   6.372   3.842   2.464  0.3613 -0.3900  0.2070
   92MOL   C17631298   6.473   3.835   2.365 -0.2295  0.0219 -0.4973
   92MOL   C17731299   6.546   3.722   2.335 -0.5498  0.0633  0.1828
   92MOL   C17831300   6.507   3.605   2.394  0.1753 -0.7335  0.9417
   92MOL   C17931301   6.406   3.604   2.496  0.1798 -0.1952 -0.7132
   92MOL   O18031302   6.277   3.642   2.755  0.5207 -0.6224  0.2003
   92MOL   H18131303   6.084   3.590   2.607 -0.8182  0.4463 -0.0871
   92MOL   H18231304   6.101   3.700   2.493 -0.0454 -1.3985  0.6045
   92MOL   H18331305   6.249   3.829   2.693  2.6770 -0.7453  1.1421
   92MOL   H18431306   6.313   3.932   2.475  0.3404 -0.3812  0.0272
   92MOL   H18531307   6.488   3.920   2.300 -0.9643 -0.3173 -1.1335
   92MOL   H18631308   6.620   3.720   2.257 -0.4718 -0.1510  0.2627
   92MOL   H18731309   6.549   3.513   2.358  2.2487  0.6602 -0.3619
   92MOL   H18831310   6.384   3.512   2.547 -0.7151  0.8182  0.7740
   92MOL   C18931311   6.194   3.661   2.872 -0.4079  0.3853 -0.1062
   92MOL   C19031312   6.240   3.785   2.953  0.0079  0.8901 -0.0193
   92MOL   C19131313   6.253   3.765   3.102 -0.3700  0.2860 -0.0171
   92MOL   C19231314   6.150   3.790   3.194 -0.1243 -0.3371  0.6462
   92MOL   C19331315   6.173   3.764   3.329 -0.5897  0.6937  0.1694
   92MOL   C19431316   6.296   3.723   3.379 -0.1599 -0.8764 -0.1080
   92MOL   C19531317   6.396   3.699   3.285  0.1845  0.1626 -0.7380
   92MOL   C19631318   6.377   3.719   3.146 -0.2396  0.2782 -1.0440
   92MOL   O19731319   6.148   3.885   2.927 -0.4777 -0.1083 -0.3432
   92MOL   H19831320   6.086   3.652   2.867 -0.5722  1.4476  1.0562
   92MOL   H19931321   6.225   3.574   2.930 -2.9485 -1.4870 -1.4518
   92MOL   H20031322   6.338   3.822   2.923 -1.0911  2.4066 -1.8297
   92MOL   H20131323   6.053   3.819   3.157 -0.0542 -0.8863  0.0446
   92MOL   H20231324   6.101   3.791   3.405 -0.2180  1.1757  0.3537
   92MOL   H20331325   6.300   3.703   3.485 -0.1173  1.6339  0.3868
   92MOL   H20431326   6.494   3.663   3.312 -0.4131 -1.4808 -0.7068
   92MOL   H20531327   6.451   3.677   3.079  0.1173  1.0864 -1.1517
   92MOL   C20631328   6.171   4.020   2.950 -0.0373  0.5000 -0.1693
   92MOL   C20731329   6.068   4.094   2.866  0.0929 -0.2844  0.3717
   92MOL   C20831330   6.128   4.136   2.731  0.6051 -0.2655 -0.5404
   92MOL   C20931331   6.087   4.076   2.616 -0.0979  0.3041  0.6484
   92MOL   C21031332   6.132   4.130   2.494  0.1669  0.2635  0.4286
   92MOL   C21131333   6.230   4.234   2.491 -0.3342  0.3534 -0.4927
   92MOL   C21231334   6.280   4.286   2.614 -0.0083  0.3053 -0.5324
   92MOL   C21331335   6.231   4.230   2.734 -0.3013  0.6315  0.3665
   92MOL   O21431336   6.021   4.204   2.947 -0.1451  0.3492 -0.4192
   92MOL   H21531337   6.156   4.038   3.057  0.4740 -0.9534  0.1582
   92MOL   H21631338   6.274   4.045   2.926  0.2565  0.2321  0.7848
   92MOL   H21731339   5.980   4.033   2.846 -0.8814  1.3207 -0.3942
   92MOL   H21831340   6.009   4.001   2.612  0.3583 -0.1619  0.4554
   92MOL   H21931341   6.100   4.090   2.399  2.6567  0.0027 -0.3573
   92MOL   H22031342   6.271   4.275   2.400 -0.0009  0.6901 -0.1907
   92MOL   H22131343   6.359   4.358   2.623  0.5222 -0.1695 -1.3327
   92MOL   H22231344   6.274   4.261   2.828 -3.3689  1.5583  1.5316
   92MOL   C22331345   5.906   4.279   2.894  0.0525  1.0585 -0.4148
   92MOL   C22431346   5.853   4.384   2.997  0.1742 -0.3983  0.5977
   92MOL   C22531347   5.970   4.464   3.046 -0.3974  0.4031  0.1524
   92MOL   C22631348   6.037   4.551   2.963  0.2795  0.4320  0.2177
   92MOL   C22731349   6.133   4.639   3.011  0.3627 -0.0122  0.6752
   92MOL   C22831350   6.171   4.635   3.144 -0.8582  0.3616  0.3859
   92MOL   C22931351   6.121   4.527   3.232 -0.1264  0.5928  0.0564
   92MOL   C23031352   6.018   4.450   3.183 -0.0254 -0.2927 -0.0805
   92MOL   O23131353   5.755   4.466   2.931 -0.4269  0.5874  0.1335
   92MOL   H23231354   5.937   4.318   2.798  1.3366 -0.9306 -0.8241
   92MOL   H23331355   5.820   4.214   2.878  0.2425  0.7134 -0.0500
   92MOL   H23431356   5.803   4.347   3.086 -0.2348 -0.6172  0.2784
   92MOL   H23531357   6.008   4.558   2.860  0.3511 -0.4329  0.1362
   92MOL   H23631358   6.177   4.712   2.945 -2.1428  1.5000  0.6301
   92MOL   H23731359   6.255   4.690   3.185 -1.6878  1.2911  0.8543
   92MOL   H23831360   6.150   4.511   3.335  2.2187  0.9365 -0.5194
   92MOL   H23931361   5.957   4.392   3.251 -0.1098  0.7693  0.7610
   92MOL   C24031362   5.628   4.403   2.912  0.5640 -1.4772  0.2939
   92MOL   C24131363   5.533   4.499   2.835  0.3323 -0.2763  0.2943
   92MOL   C24231364   5.412   4.414   2.802  0.1304 -0.6406  0.3590
   92MOL   C24331365   5.321   4.365   2.898  0.3817 -0.1658  1.0456
   92MOL   C24431366   5.203   4.296   2.850  0.1841 -0.7298 -0.4594
   92MOL   C24531367   5.179   4.271   2.715  1.1084 -0.2231  0.2097
   92MOL   C24631368   5.271   4.318   2.618  0.2871 -0.4592 -0.2296
   92MOL   C24731369   5.387   4.389   2.664 -0.3778  0.1979 -0.0156
   92MOL   O24831370   5.501   4.608   2.920  0.2891 -0.3393 -0.6039
   92MOL   H24931371   5.627   4.306   2.862 -3.4752 -0.2879 -2.2187
   92MOL   H25031372   5.583   4.388   3.010 -3.2543  0.5801 -1.0260
   92MOL   H25131373   5.580   4.537   2.745 -1.1417 -1.0960 -0.8519
   92MOL   H25231374   5.344   4.382   3.002 -2.1514  0.3465  1.5489
   92MOL   H25331375   5.135   4.255   2.923 -0.1018 -1.5882 -1.2107
   92MOL   H25431376   5.089   4.218   2.688  0.8121  1.2093 -1.8095
   92MOL   H25531377   5.238   4.305   2.516 -0.4994  2.4074 -0.3878
   92MOL   H25631378   5.457   4.419   2.587 -1.3910 -1.6244 -1.6901
   92MOL   C25731379   5.427   4.710   2.864  0.0024 -0.1967 -0.1964
   92MOL   C25831380   5.523   4.816   2.829 -0.2006  0.0874  0.1141
   92MOL   C25931381   5.472   4.957   2.837 -0.6147 -0.1677 -0.4142
   92MOL   C26031382   5.512   5.043   2.945 -0.1824 -0.5796 -0.2907
   92MOL   C26131383   5.455   5.172   2.956 -0.1742 -0.1535 -0.5824
   92MOL   C26231384   5.358   5.218   2.872  0.3176 -0.4727 -0.0160
   92MOL   C26331385   5.318   5.136   2.766 -0.8482 -0.1395 -1.1960
   92MOL   C26431386   5.375   5.010   2.746  0.0206 -0.0263 -0.2059
   92MOL   O26531387   5.572   4.803   2.693  0.0732 -0.1624  0.0337
   92MOL   H26631388   5.364   4.743   2.946 -1.3906  0.9626 -1.6928
   92MOL   H26731389   5.347   4.681   2.796 -0.2829  1.6524 -0.6902
   92MOL   H26831390   5.618   4.811   2.882  0.3878 -1.0769 -1.0168
   92MOL   H26931391   5.591   5.009   3.010 -1.5872 -2.2915  0.5228
   92MOL   H27031392   5.494   5.234   3.035 -0.2491 -1.3650  0.4112
   92MOL   H27131393   5.318   5.316   2.891  1.2311  0.0277 -0.6766
   92MOL   H27231394   5.238   5.164   2.699 -0.9662 -0.8969 -1.3800
   92MOL   H27331395   5.336   4.949   2.666  0.5751  0.4387 -0.8325
   92MOL   C27431396   5.696   4.868   2.655  0.4827 -0.2719 -0.5350
   92MOL   C27531397   5.732   4.813   2.519  0.7139  0.1480  0.1759
   92MOL   C27631398   5.778   4.661   2.517  0.4199 -0.3651 -0.2448
   92MOL   C27731399   5.691   4.558   2.473  0.8611 -0.8459  0.1086
   92MOL   C27831400   5.737   4.426   2.469 -0.0458 -0.3155 -0.3993
   92MOL   C27931401   5.862   4.388   2.516 -0.7984  0.5510 -0.8189
   92MOL   C28031402   5.945   4.489   2.546 -0.4439 -0.3609  0.0888
   92MOL   C28131403   5.910   4.628   2.551 -0.0141  0.6544 -0.2089
   92MOL   O28231404   5.828   4.898   2.465 -0.6098  0.1363 -0.7235
   92MOL   H28331405   5.680   4.976   2.655  1.3245 -0.1369  1.1267
   92MOL   H28431406   5.775   4.842   2.725 -0.5331  2.2270  1.6030
   92MOL   H28531407   5.644   4.827   2.455  0.3431  1.4330  0.9590
   92MOL   H28631408   5.595   4.578   2.428  0.8521 -0.3466  0.3359
   92MOL   H28731409   5.668   4.354   2.427 -2.0329  1.8483 -0.9444
   92MOL   H28831410   5.904   4.289   2.509 -1.8750  0.0992 -1.0265
   92MOL   H28931411   6.040   4.451   2.581 -0.9953  0.3695  2.4701
   92MOL   H29031412   5.978   4.705   2.583  0.3386  1.2144 -2.2740
   92MOL   C29131413   5.783   5.018   2.408 -0.1223 -0.4170  0.7766
   92MOL   C29231414   5.763   4.995   2.254 -0.2340 -0.5267  0.4528
   92MOL   C29331415   5.888   4.942   2.190  0.2234  0.0900 -0.3802
   92MOL   C29431416   6.015   4.976   2.244 -0.3236 -0.0670 -0.5281
   92MOL   C29531417   6.130   4.934   2.184 -0.1677  1.0485 -0.6520
   92MOL   C29631418   6.124   4.855   2.064 -0.7199 -0.8324 -0.2479
   92MOL   C29731419   5.995   4.815   2.020 -0.1710  0.8505  0.1242
   92MOL   C29831420   5.881   4.860   2.076  0.5845  0.3485 -0.0584
   92MOL   O29931421   5.647   4.913   2.220 -0.2321  0.6954 -0.2979
   92MOL   H30031422   5.855   5.099   2.418  0.1675 -0.3749 -1.2841
   92MOL   H30131423   5.694   5.060   2.455 -0.9114  1.2315 -2.0157
   92MOL   H30231424   5.737   5.085   2.200 -1.1909 -0.4395  1.0434
   92MOL   H30331425   6.031   5.020   2.341 -1.1291 -0.5511 -0.1739
   92MOL   H30431426   6.225   4.956   2.230 -0.1006 -1.5972  0.5957
   92MOL   H30531427   6.218   4.827   2.018  0.7932 -0.2307  2.4241
   92MOL   H30631428   5.979   4.748   1.937 -0.9717  0.0594  0.9054
   92MOL   H30731429   5.781   4.837   2.040  1.2876 -0.9772 -1.2320
   92MOL   C30831430   5.519   4.966   2.248 -0.1747 -0.5347 -0.5241
   92MOL   C30931431   5.471   5.034   2.117 -0.1870  0.3352  0.1196
   92MOL   C31031432   5.324   5.027   2.109 -0.0719  0.0045  0.5833
   92MOL   C31131433   5.247   5.075   2.218  0.4479  1.0297 -0.1366
   92MOL   C31231434   5.104   5.055   2.214 -0.1949  0.7028  0.7116
   92MOL   C31331435   5.042   4.991   2.103 -0.2873  0.4901  0.2297
   92MOL   C31431436   5.120   4.956   1.993  0.1545 -0.2880 -0.4599
   92MOL   C31531437   5.263   4.968   1.996  0.4379  0.1595 -0.0774
   92MOL   O31631438   5.526   5.168   2.119 -0.4102  0.6015 -0.5696
   92MOL   H31731439   5.506   5.025   2.338 -0.0232  0.6927 -1.3028
   92MOL   H31831440   5.457   4.877   2.263 -1.7151  0.3143 -1.6634
   92MOL   H31931441   5.517   4.980   2.034 -3.1417 -3.7707  1.0059
   92MOL   H32031442   5.296   5.132   2.295  1.0342 -1.0099  1.0400
   92MOL   H32131443   5.045   5.079   2.302 -0.6354 -0.7716  0.8234
   92MOL   H32231444   4.936   4.971   2.093  0.0982 -1.9563  0.7759
   92MOL   H32331445   5.067   4.910   1.911 -2.5459  3.0909 -0.7297
   92MOL   H32431446   5.326   4.935   1.915  2.8496  1.4507  1.2104
   92MOL   C32531447   5.495   5.250   2.017 -0.1100  0.3320 -0.3172
   92MOL   C32631448   5.609   5.344   1.975  0.1000  0.1159  0.1219
   92MOL   C32731449   5.735   5.273   1.929 -0.2821  0.0775 -0.2608
   92MOL   C32831450   5.731   5.198   1.807 -0.6445  0.3409 -0.1179
   92MOL   C32931451   5.841   5.113   1.772  0.0103 -0.4073  0.3477
   92MOL   C33031452   5.955   5.119   1.850  0.1601 -0.3510 -0.7897
   92MOL   C33131453   5.963   5.196   1.964 -0.9279  0.1723 -0.2541
   92MOL   C33231454   5.855   5.277   2.005  0.0867 -0.2082 -0.0158
   92MOL   O33331455   5.565   5.444   1.876 -0.4594 -0.1404 -0.1183
   92MOL   H33431456   5.403   5.303   2.040  0.9138  1.3305  1.5929
   92MOL   H33531457   5.460   5.197   1.929  1.1868  1.4997 -1.5700
   92MOL   H33631458   5.633   5.410   2.058 -0.4244 -1.2457  1.3590
   92MOL   H33731459   5.640   5.191   1.749 -2.3780  0.0604  2.5267
   92MOL   H33831460   5.826   5.059   1.679 -1.9574 -0.4692  0.6802
   92MOL   H33931461   6.033   5.047   1.831  0.8247 -0.4203  1.9867
   92MOL   H34031462   6.047   5.187   2.032  0.5481  0.3734 -2.0065
   92MOL   H34131463   5.868   5.340   2.092  1.2408 -2.4815  1.4891
   92MOL   H34231464   5.532   5.398   1.800  0.4129 -0.4716 -0.3008
   93MOL     C131465   3.687   0.646   3.126  0.5802  0.2399 -0.0940
   93MOL     C231466   3.657   0.788   3.089 -0.4625 -0.6397 -0.4989
   93MOL     C331467   3.557   0.846   3.192 -0.3132  0.0155  0.2649
   93MOL     C431468   3.422   0.805   3.185  0.1442 -0.1211 -0.2557
   93MOL     C531469   3.328   0.864   3.273 -0.3708  0.7346 -1.2641
   93MOL     C631470   3.371   0.960   3.370  0.2636 -0.1537  0.2336
   93MOL     C731471   3.506   1.006   3.367  0.2993  0.3606 -1.0939
   93MOL     C831472   3.597   0.945   3.280  0.2241  0.0097  0.6083
   93MOL     O931473   3.596   0.805   2.962 -0.2050  0.7222  0.3004
   93MOL    H1031474   3.763   0.602   3.062 -0.3338 -0.1581 -0.9252
   93MOL    H1131475   3.718   0.640   3.230  0.3349  0.0070 -0.0336
   93MOL    H1231476   3.753   0.840   3.087 -1.0898  0.5950  0.7130
   93MOL    H1331477   3.394   0.733   3.110 -0.7479  0.3754 -0.4074
   93MOL    H1431478   3.228   0.823   3.270 -0.0451  0.0136 -3.0364
   93MOL    H1531479   3.297   0.990   3.443 -0.4553 -0.4191 -0.3675
   93MOL    H1631480   3.539   1.085   3.432 -1.1474  0.4375 -0.4437
   93MOL    H1731481   3.701   0.971   3.285  0.2916 -0.5514  2.6177
   93MOL    H1831482   3.599   0.582   3.116  0.2126  1.0365 -2.4978
   93MOL    C1931483   3.681   0.812   2.852  0.6768 -0.3853 -0.9563
   93MOL    C2031484   3.600   0.851   2.722  0.0298 -0.4658  0.0928
   93MOL    C2131485   3.601   1.001   2.709 -0.5384  0.5213  0.5214
   93MOL    C2231486   3.696   1.060   2.625  0.4207  0.1352  0.2620
   93MOL    C2331487   3.698   1.200   2.604 -0.8333 -0.4473  0.0809
   93MOL    C2431488   3.612   1.283   2.681  0.0525 -0.1341 -0.3007
   93MOL    C2531489   3.523   1.225   2.774  0.5815  0.6682  0.2800
   93MOL    C2631490   3.519   1.086   2.789 -0.0626  0.8631 -0.1672
   93MOL    O2731491   3.461   0.803   2.737  0.8637 -0.0456 -0.2141
   93MOL    H2831492   3.760   0.885   2.869  0.6320 -0.1721 -1.6495
   93MOL    H2931493   3.711   0.708   2.846 -1.3185 -1.0392 -0.1097
   93MOL    H3031494   3.642   0.800   2.635  2.0405 -2.9482  2.4354
   93MOL    H3131495   3.763   1.000   2.564  1.6087  0.3830  1.3104
   93MOL    H3231496   3.777   1.240   2.542 -1.0675  1.0377  0.7122
   93MOL    H3331497   3.623   1.391   2.682 -1.3116  0.0258 -1.9426
   93MOL    H3431498   3.455   1.281   2.837  1.4406 -0.3359  2.1535
   93MOL    H3531499   3.440   1.055   2.857 -1.5568  2.4664 -1.1292
   93MOL    C3631500   3.393   0.806   2.611  0.0986  0.0880 -0.2144
   93MOL    C3731501   3.259   0.741   2.633 -0.1567 -0.5771  0.1163
   93MOL    C3831502   3.267   0.596   2.676  0.0858 -0.2711 -0.1874
   93MOL    C3931503   3.257   0.563   2.813 -0.4123  0.6992 -0.0745
   93MOL    C4031504   3.261   0.430   2.861 -0.4096  0.5642  0.4175
   93MOL    C4131505   3.267   0.329   2.758 -1.2612  0.5649 -1.0310
   93MOL    C4231506   3.276   0.364   2.622 -0.2986 -0.9192 -0.1654
   93MOL    C4331507   3.281   0.496   2.576 -0.3764 -0.4588  0.7764
   93MOL    O4431508   3.182   0.756   2.512  0.5413 -0.3051  0.3852
   93MOL    H4531509   3.385   0.902   2.560  2.3796  0.2530 -0.2690
   93MOL    H4631510   3.438   0.745   2.532 -3.4003 -1.2342 -1.3212
   93MOL    H4731511   3.216   0.804   2.711  1.5615 -0.8096  1.2730
   93MOL    H4831512   3.255   0.644   2.885 -2.5733 -0.1974  0.8853
   93MOL    H4931513   3.245   0.397   2.962  1.0289  1.5880  0.9975
   93MOL    H5031514   3.263   0.223   2.773 -3.3797  0.7593 -0.0292
   93MOL    H5131515   3.284   0.282   2.552 -0.5239 -0.6314 -0.5330
   93MOL    H5231516   3.285   0.513   2.470 -0.5032  0.4662  0.9192
   93MOL    C5331517   3.051   0.713   2.530 -0.6247 -0.2589 -0.8331
   93MOL    C5431518   2.961   0.774   2.415 -0.3046  0.3063  0.1898
   93MOL    C5531519   2.992   0.716   2.283  0.5439 -0.1283 -0.1269
   93MOL    C5631520   3.085   0.784   2.208  0.1060  0.1493  0.7338
   93MOL    C5731521   3.116   0.741   2.075 -0.5335  0.4596 -0.0062
   93MOL    C5831522   3.044   0.636   2.014 -0.0347  0.4213 -0.6939
   93MOL    C5931523   2.950   0.563   2.094 -0.2588 -1.0873 -0.4896
   93MOL    C6031524   2.926   0.605   2.228  0.2350 -0.2052  0.0708
   93MOL    O6131525   2.828   0.754   2.466  0.0459 -0.7140  0.1517
   93MOL    H6231526   3.037   0.606   2.515 -1.2574 -0.6435  2.0950
   93MOL    H6331527   3.018   0.740   2.631  1.9748 -0.3406  0.0682
   93MOL    H6431528   2.976   0.882   2.410 -0.9453  0.4034  0.2952
   93MOL    H6531529   3.123   0.872   2.256  0.1321  0.8141 -0.4757
   93MOL    H6631530   3.187   0.799   2.018 -1.2476  0.7654 -0.5977
   93MOL    H6731531   3.065   0.589   1.918  0.0509 -0.9172 -0.0294
   93MOL    H6831532   2.910   0.475   2.045 -0.4860 -1.3171  0.0982
   93MOL    H6931533   2.846   0.557   2.283  1.0413 -3.0259 -1.1208
   93MOL    C7031534   2.740   0.851   2.407 -0.3448 -0.8440  0.0427
   93MOL    C7131535   2.595   0.839   2.458 -0.3691 -0.3512  0.0263
   93MOL    C7231536   2.571   0.868   2.607  0.3497 -0.4140 -0.1493
   93MOL    C7331537   2.617   0.777   2.703  0.6388 -0.5096 -0.4427
   93MOL    C7431538   2.597   0.806   2.839  0.0294  0.6477 -0.4093
   93MOL    C7531539   2.515   0.918   2.880  0.1884 -0.1907  0.0885
   93MOL    C7631540   2.476   1.008   2.783  0.1446  0.1418  0.4342
   93MOL    C7731541   2.501   0.982   2.645 -0.6751  0.4061  0.1240
   93MOL    O7831542   2.534   0.712   2.417  0.4947  0.0265  0.1201
   93MOL    H7931543   2.782   0.948   2.433  1.7705 -2.5518  3.3344
   93MOL    H8031544   2.747   0.851   2.298 -1.1350  1.2060 -0.0239
   93MOL    H8131545   2.542   0.915   2.400 -1.4893 -2.2137 -1.4416
   93MOL    H8231546   2.672   0.689   2.671  0.3066 -0.1278 -2.1463
   93MOL    H8331547   2.632   0.738   2.915  2.2726  0.1053 -1.9020
   93MOL    H8431548   2.486   0.922   2.984  1.7441  0.9072  0.5110
   93MOL    H8531549   2.418   1.088   2.825 -1.5512 -0.2855 -1.0255
   93MOL    H8631550   2.461   1.040   2.563 -0.7613  0.6207  0.3207
   93MOL    C8731551   2.391   0.700   2.422 -0.2561 -0.1223 -0.0033
   93MOL    C8831552   2.314   0.776   2.315  0.5963  0.3074 -0.7204
   93MOL    C8931553   2.370   0.753   2.177  0.6977 -0.4209  0.4520
   93MOL    C9031554   2.461   0.843   2.129  0.3400 -0.3788  0.2587
   93MOL    C9131555   2.520   0.830   2.006 -0.3026 -0.3747  0.5085
   93MOL    C9231556   2.484   0.725   1.914  0.2582 -0.0328 -0.9237
   93MOL    C9331557   2.395   0.629   1.968 -0.0025  0.0677  0.5812
   93MOL    C9431558   2.338   0.635   2.097  0.6888  0.4907  1.1868
   93MOL    O9531559   2.301   0.913   2.349 -0.4157  0.5712 -0.5971
   93MOL    H9631560   2.357   0.712   2.525 -0.1559 -1.2643  0.1716
   93MOL    H9731561   2.382   0.592   2.410  1.9332 -0.4447  0.8833
   93MOL    H9831562   2.213   0.736   2.316 -0.0396  1.8222 -2.1432
   93MOL    H9931563   2.494   0.928   2.187  2.1922 -1.6815  1.1944
   93MOL   H10031564   2.585   0.906   1.965 -0.8770 -1.0937 -1.8620
   93MOL   H10131565   2.531   0.714   1.818  0.1731 -0.6995 -0.8899
   93MOL   H10231566   2.383   0.542   1.907  0.5225  1.8509 -2.1551
   93MOL   H10331567   2.276   0.556   2.137  0.7056 -0.1671 -0.0820
   93MOL   C10431568   2.176   0.970   2.314 -0.0467 -0.2539  0.0045
   93MOL   C10531569   2.170   1.122   2.309 -0.0060  0.0750 -0.2840
   93MOL   C10631570   2.211   1.189   2.437  0.2664  0.2794  0.1288
   93MOL   C10731571   2.117   1.200   2.535 -0.2178  0.5569  0.0578
   93MOL   C10831572   2.142   1.259   2.657 -0.1900 -0.5744 -0.0785
   93MOL   C10931573   2.272   1.312   2.677 -0.0666 -0.7637 -0.1284
   93MOL   C11031574   2.367   1.308   2.577  0.3975 -0.3105 -0.7303
   93MOL   C11131575   2.339   1.236   2.461  0.9384 -0.2679  0.0023
   93MOL   O11231576   2.237   1.176   2.198  0.1042 -0.4948 -0.1465
   93MOL   H11331577   2.135   0.933   2.220 -2.8337  0.1364  1.0235
   93MOL   H11431578   2.098   0.928   2.378 -1.0998 -0.0727 -1.1346
   93MOL   H11531579   2.065   1.138   2.288 -0.6026 -1.9080  1.0316
   93MOL   H11631580   2.021   1.155   2.512  0.8888 -1.5989 -0.4160
   93MOL   H11731581   2.071   1.261   2.739 -1.1735  1.7451 -0.9642
   93MOL   H11831582   2.284   1.359   2.773 -1.4331 -1.2741  0.3083
   93MOL   H11931583   2.461   1.350   2.608  0.5879  0.0458 -1.7829
   93MOL   H12031584   2.413   1.226   2.383 -0.2231 -1.0231 -1.0188
   93MOL   C12131585   2.218   1.316   2.178  0.2269  0.1441  0.0667
   93MOL   C12231586   2.333   1.389   2.108  0.5841 -0.3721 -0.1996
   93MOL   C12331587   2.452   1.419   2.201  0.0813  0.4827  0.6280
   93MOL   C12431588   2.447   1.532   2.285  0.6136 -0.4680  0.7982
   93MOL   C12531589   2.559   1.562   2.365 -0.9892 -0.4917 -0.3252
   93MOL   C12631590   2.681   1.496   2.343  0.2288  0.4810  0.3781
   93MOL   C12731591   2.685   1.374   2.268 -0.8115  0.0753  0.2292
   93MOL   C12831592   2.566   1.339   2.192 -0.1922  0.3667  0.7721
   93MOL   O12931593   2.387   1.323   1.995  0.0208  0.8905  0.3383
   93MOL   H13031594   2.189   1.370   2.268  0.7878 -0.0518  0.3654
   93MOL   H13131595   2.125   1.328   2.122  0.4192 -2.2491 -0.8165
   93MOL   H13231596   2.285   1.482   2.077 -1.6340 -0.9558  1.3221
   93MOL   H13331597   2.360   1.596   2.294  1.5897  1.0844 -0.3225
   93MOL   H13431598   2.567   1.653   2.423  0.1683 -2.6342  3.0253
   93MOL   H13531599   2.776   1.527   2.383  0.1420  0.0830  0.8867
   93MOL   H13631600   2.780   1.322   2.262 -2.5411 -3.0806 -0.6876
   93MOL   H13731601   2.555   1.243   2.143 -0.1508  0.5564  0.3971
   93MOL   C13831602   2.295   1.279   1.895  0.5260  0.4748  0.8875
   93MOL   C13931603   2.338   1.143   1.831  0.5931  0.0384 -0.2411
   93MOL   C14031604   2.223   1.071   1.759 -0.4919  0.2397  0.8794
   93MOL   C14131605   2.207   1.077   1.619  0.6045  0.0275  0.1868
   93MOL   C14231606   2.100   1.007   1.558 -0.0989  0.0051 -0.2316
   93MOL   C14331607   2.018   0.921   1.630  0.4722 -0.6091  1.1079
   93MOL   C14431608   2.036   0.909   1.772  0.6126 -0.7777  0.5332
   93MOL   C14531609   2.139   0.982   1.831 -0.2085 -0.1133 -0.3771
   93MOL   O14631610   2.445   1.174   1.743  0.1310  0.4118  0.7018
   93MOL   H14731611   2.292   1.351   1.813 -0.2611 -1.4692 -0.8389
   93MOL   H14831612   2.191   1.259   1.923  0.9263 -1.1553  1.2422
   93MOL   H14931613   2.374   1.069   1.903 -0.8433  0.2636  0.7477
   93MOL   H15031614   2.278   1.136   1.563 -0.1476  1.5053  0.7358
   93MOL   H15131615   2.088   1.014   1.451  0.7818 -0.1657 -0.3442
   93MOL   H15231616   1.949   0.860   1.574 -2.0775  1.5958  1.7385
   93MOL   H15331617   1.962   0.856   1.829  1.1157 -4.0964 -1.7534
   93MOL   H15431618   2.154   0.968   1.937  0.9577  1.9741 -0.2286
   93MOL   C15531619   2.574   1.183   1.798 -0.1190 -0.2616 -0.3684
   93MOL   C15631620   2.667   1.250   1.689 -0.3369  0.2377  0.4793
   93MOL   C15731621   2.662   1.188   1.550 -0.2601  0.0848  0.7641
   93MOL   C15831622   2.736   1.076   1.513 -0.1276  0.5119 -0.0202
   93MOL   C15931623   2.732   1.034   1.378 -0.3150 -0.2916  0.0051
   93MOL   C16031624   2.648   1.094   1.280 -0.2695  0.5624  0.6201
   93MOL   C16131625   2.567   1.197   1.326 -0.1107  0.3478  0.5863
   93MOL   C16231626   2.586   1.250   1.451  0.2616  0.0546  0.2887
   93MOL   O16331627   2.630   1.388   1.688  0.3300  0.1163  0.3576
   93MOL   H16431628   2.610   1.082   1.822 -1.2333 -0.2704  1.3705
   93MOL   H16531629   2.574   1.245   1.887  0.2697  0.8479 -1.1329
   93MOL   H16631630   2.770   1.247   1.725 -0.2631  2.4044  0.5150
   93MOL   H16731631   2.799   1.032   1.589 -0.3844  2.8152  1.5864
   93MOL   H16831632   2.797   0.953   1.347 -1.1730 -1.6002  1.5669
   93MOL   H16931633   2.647   1.062   1.177 -0.1499 -1.4642  1.2395
   93MOL   H17031634   2.492   1.244   1.264 -1.9793 -0.8292  1.9023
   93MOL   H17131635   2.531   1.337   1.482 -1.0550 -0.0188 -1.7359
   93MOL   C17231636   2.732   1.489   1.667  0.2481 -0.8064 -0.6323
   93MOL   C17331637   2.788   1.535   1.801 -0.3063 -0.1527  0.5149
   93MOL   C17431638   2.854   1.669   1.799  0.0895 -0.0403  0.1478
   93MOL   C17531639   2.791   1.785   1.848 -0.1545 -0.2258 -0.1503
   93MOL   C17631640   2.857   1.912   1.839 -0.0044  0.6917  0.2706
   93MOL   C17731641   2.983   1.919   1.781 -0.6633  0.2242 -0.5501
   93MOL   C17831642   3.048   1.807   1.735 -0.2231  0.7074 -0.5473
   93MOL   C17931643   2.983   1.677   1.737 -0.2067 -0.1262 -0.4286
   93MOL   O18031644   2.875   1.431   1.840  0.0785 -0.3099 -0.0277
   93MOL   H18131645   2.804   1.466   1.588 -0.9983 -0.9297 -1.7465
   93MOL   H18231646   2.681   1.580   1.635  0.6719  0.5696  2.4239
   93MOL   H18331647   2.700   1.534   1.864 -0.3303 -1.0025  0.4623
   93MOL   H18431648   2.688   1.777   1.878  0.0676 -2.9475 -0.0140
   93MOL   H18531649   2.814   2.004   1.874  0.0146  0.9278 -0.3194
   93MOL   H18631650   3.036   2.012   1.766  0.2217  0.3274  2.7623
   93MOL   H18731651   3.140   1.818   1.680  0.3903 -0.3949  0.2300
   93MOL   H18831652   3.034   1.586   1.709 -0.7323 -1.8211  3.6816
   93MOL   C18931653   2.872   1.404   1.981 -0.2391  0.3901 -0.0987
   93MOL   C19031654   2.984   1.303   2.002  0.0780 -0.4798 -0.5303
   93MOL   C19131655   2.956   1.171   1.931  0.2259  0.5654  0.5672
   93MOL   C19231656   3.016   1.154   1.801  0.1513 -0.4350 -0.0200
   93MOL   C19331657   2.996   1.032   1.735  0.0565 -0.0623 -0.4411
   93MOL   C19431658   2.925   0.928   1.800 -0.3408  0.0247  0.6030
   93MOL   C19531659   2.860   0.949   1.922  0.4934 -0.2090  0.0289
   93MOL   C19631660   2.869   1.076   1.985  0.4421 -0.3685 -0.8120
   93MOL   O19731661   3.012   1.273   2.144 -0.7914 -0.6764 -0.5702
   93MOL   H19831662   2.899   1.499   2.028 -0.1774  0.1744  0.3105
   93MOL   H19931663   2.772   1.364   1.995  0.7438 -1.7131  1.1431
   93MOL   H20031664   3.068   1.347   1.946 -1.5035  0.8245 -1.9248
   93MOL   H20131665   3.070   1.239   1.761  0.9932 -0.8342  0.2547
   93MOL   H20231666   3.052   1.025   1.644  0.0317  0.0791 -0.4672
   93MOL   H20331667   2.920   0.833   1.749 -0.3640  0.0476  0.5626
   93MOL   H20431668   2.806   0.862   1.957 -0.0296 -0.2285 -0.8286
   93MOL   H20531669   2.836   1.085   2.087  0.3061 -0.3103 -0.8615
   93MOL   C20631670   3.063   1.374   2.228 -0.2538  0.4282 -0.4627
   93MOL   C20731671   3.128   1.319   2.355 -0.9764  0.3767 -0.3001
   93MOL   C20831672   3.270   1.276   2.335 -0.0257  0.5424 -0.9030
   93MOL   C20931673   3.310   1.142   2.324  0.0675 -0.3420  0.8031
   93MOL   C21031674   3.444   1.100   2.314  0.2155  0.9009  0.1186
   93MOL   C21131675   3.542   1.196   2.326 -0.3856  0.5030 -0.2733
   93MOL   C21231676   3.508   1.332   2.328 -0.1448 -0.1195 -1.3533
   93MOL   C21331677   3.372   1.372   2.329  1.1924  0.3299 -0.5589
   93MOL   O21431678   3.044   1.228   2.425  0.0480  0.0469  1.0629
   93MOL   H21531679   3.130   1.443   2.178 -0.2636  0.4345 -0.4667
   93MOL   H21631680   2.975   1.426   2.268  0.0958  1.1662 -0.6453
   93MOL   H21731681   3.131   1.398   2.430 -3.1604 -1.0696  1.3854
   93MOL   H21831682   3.235   1.065   2.318 -0.1842  0.0979 -2.6306
   93MOL   H21931683   3.467   0.996   2.295  1.8174  1.0666  1.0537
   93MOL   H22031684   3.646   1.167   2.334 -0.3238  0.5043 -1.0215
   93MOL   H22131685   3.578   1.413   2.344 -1.1890  0.8607 -1.6520
   93MOL   H22231686   3.340   1.473   2.348 -0.3261 -0.3856  0.8896
   93MOL   C22331687   3.080   1.186   2.555  0.2313  0.1734 -0.4795
   93MOL   C22431688   2.969   1.149   2.655 -0.0016  0.2577 -0.0755
   93MOL   C22531689   3.009   1.052   2.762  0.6837 -0.2723 -0.8320
   93MOL   C22631690   2.906   1.001   2.845 -0.7024  0.0504  0.2537
   93MOL   C22731691   2.932   0.931   2.959  0.1954 -0.4404  0.5068
   93MOL   C22831692   3.059   0.912   2.999 -1.1848  0.4123  0.0617
   93MOL   C22931693   3.169   0.962   2.926 -0.6599  0.4695 -0.5343
   93MOL   C23031694   3.140   1.038   2.810  0.0891 -0.4632  0.0600
   93MOL   O23131695   2.914   1.269   2.707  0.2652  0.0012 -0.2918
   93MOL   H23231696   3.127   1.089   2.540 -2.3398 -1.1879 -0.0556
   93MOL   H23331697   3.162   1.248   2.590  0.2878 -0.8603  1.2778
   93MOL   H23431698   2.900   1.089   2.596 -0.9744 -0.7075  2.0170
   93MOL   H23531699   2.804   1.015   2.813 -0.1596  2.1191 -0.6969
   93MOL   H23631700   2.843   0.902   3.012 -1.1082  0.4218 -1.1327
   93MOL   H23731701   3.083   0.843   3.078 -0.6164 -1.3068 -1.5804
   93MOL   H23831702   3.270   0.931   2.946 -0.6755 -0.0961 -1.2681
   93MOL   H23931703   3.218   1.083   2.750  0.8954  0.1169  1.5170
   93MOL   C24031704   2.817   1.338   2.629  0.0269  0.2009  0.9123
   93MOL   C24131705   2.773   1.472   2.693  0.1430 -0.5143  0.2122
   93MOL   C24231706   2.754   1.466   2.843  0.6501  0.9636  0.0491
   93MOL   C24331707   2.777   1.583   2.919 -0.2592  0.2187 -0.0836
   93MOL   C24431708   2.777   1.571   3.060 -0.1337 -0.1633 -0.1598
   93MOL   C24531709   2.739   1.452   3.130 -0.6260  0.0232 -0.4937
   93MOL   C24631710   2.693   1.344   3.046 -0.6251  0.0430 -0.0377
   93MOL   C24731711   2.709   1.343   2.904  0.7118 -1.1218 -0.5346
   93MOL   O24831712   2.852   1.575   2.640 -0.3720 -0.6354 -0.0033
   93MOL   H24931713   2.851   1.378   2.533 -1.3866 -0.6866  0.0158
   93MOL   H25031714   2.733   1.270   2.616  2.0736 -2.4153  0.8483
   93MOL   H25131715   2.675   1.482   2.647  0.3989 -0.2741 -0.2776
   93MOL   H25231716   2.802   1.675   2.870 -1.3420  0.0035 -1.0460
   93MOL   H25331717   2.820   1.653   3.116  2.0415 -1.3018 -0.1358
   93MOL   H25431718   2.741   1.449   3.238 -1.4891 -0.6649 -0.4927
   93MOL   H25531719   2.669   1.250   3.094  2.1739  0.3112  1.9704
   93MOL   H25631720   2.677   1.258   2.845 -2.4577 -1.0388  0.9836
   93MOL   C25731721   2.995   1.576   2.661  0.6064  0.4204 -0.0001
   93MOL   C25831722   3.049   1.711   2.606 -0.2665  0.0877  0.1426
   93MOL   C25931723   2.985   1.745   2.472 -0.4161 -0.1681  0.0916
   93MOL   C26031724   2.864   1.815   2.461  0.7449 -0.4335  0.2168
   93MOL   C26131725   2.804   1.853   2.333  0.1077  0.1020 -0.1922
   93MOL   C26231726   2.864   1.818   2.209  0.3732 -0.3743  0.0059
   93MOL   C26331727   2.989   1.756   2.218 -0.1773 -0.7012 -0.9019
   93MOL   C26431728   3.037   1.713   2.346  0.1747  0.1886  0.0750
   93MOL   O26531729   3.186   1.695   2.588  0.0723 -0.4872 -0.5203
   93MOL   H26631730   3.047   1.493   2.613  1.1442  0.9856 -0.4081
   93MOL   H26731731   3.012   1.567   2.768 -0.3910 -1.9830 -0.0146
   93MOL   H26831732   3.021   1.794   2.671 -1.4009  0.2571 -0.5498
   93MOL   H26931733   2.806   1.824   2.552 -0.9761 -1.3959 -0.7704
   93MOL   H27031734   2.706   1.898   2.332 -0.4316 -1.0302  0.6171
   93MOL   H27131735   2.818   1.862   2.122 -0.1943 -0.9786 -0.0012
   93MOL   H27231736   3.050   1.738   2.131  2.0596 -0.2235  0.5476
   93MOL   H27331737   3.125   1.651   2.344 -0.5632 -0.8479 -0.5183
   93MOL   C27431738   3.267   1.736   2.695 -0.4282  0.2297 -0.1083
   93MOL   C27531739   3.413   1.719   2.637 -0.0762 -0.4828 -0.2950
   93MOL   C27631740   3.507   1.687   2.751  0.4521  0.1425  0.0832
   93MOL   C27731741   3.485   1.580   2.843 -0.4865 -0.1914  0.0274
   93MOL   C27831742   3.566   1.562   2.958  0.6842  0.1294 -0.1325
   93MOL   C27931743   3.674   1.646   2.980  0.7453 -0.1106 -0.7090
   93MOL   C28031744   3.701   1.749   2.887 -0.4943 -0.3147  0.3069
   93MOL   C28131745   3.610   1.780   2.779 -0.7193  1.2689 -0.3543
   93MOL   O28231746   3.453   1.834   2.570 -0.2709  0.4619  0.2969
   93MOL   H28331747   3.245   1.838   2.727 -2.8610 -0.9922  2.3180
   93MOL   H28431748   3.234   1.674   2.778  0.2270 -2.0739 -1.5307
   93MOL   H28531749   3.422   1.632   2.572  0.0463 -0.4601 -0.3067
   93MOL   H28631750   3.404   1.510   2.826 -1.3534  1.1568 -1.4449
   93MOL   H28731751   3.548   1.473   3.018  2.1531  0.1129  0.3022
   93MOL   H28831752   3.747   1.641   3.059 -0.4365  0.8019  0.4622
   93MOL   H28931753   3.787   1.813   2.904 -1.4433  1.1854 -0.3899
   93MOL   H29031754   3.618   1.862   2.710 -0.3206  0.5335 -1.1917
   93MOL   C29131755   3.389   1.850   2.444  0.1503 -0.2044  0.5573
   93MOL   C29231756   3.486   1.915   2.348 -0.0311 -0.5304  0.7202
   93MOL   C29331757   3.597   1.823   2.318 -0.3211  0.0187 -0.4421
   93MOL   C29431758   3.589   1.735   2.213 -0.5618 -0.1473  0.0771
   93MOL   C29531759   3.697   1.650   2.192 -0.1620  0.5022 -0.3749
   93MOL   C29631760   3.818   1.663   2.257 -0.3350  0.3078 -0.1689
   93MOL   C29731761   3.825   1.757   2.361  0.0172 -0.5770 -0.0421
   93MOL   C29831762   3.719   1.835   2.396 -0.0010 -0.6470 -0.7810
   93MOL   O29931763   3.418   1.948   2.231 -0.0093  0.1402  0.0362
   93MOL   H30031764   3.302   1.913   2.461  0.4265 -0.1513  1.8370
   93MOL   H30131765   3.354   1.757   2.398 -1.5155  0.7854 -0.2056
   93MOL   H30231766   3.530   2.009   2.380  0.2411 -0.4509  0.1257
   93MOL   H30331767   3.502   1.722   2.151 -0.8580  0.0928  0.4444
   93MOL   H30431768   3.703   1.575   2.114  0.2086 -0.5813  0.6911
   93MOL   H30531769   3.900   1.601   2.223 -0.8033 -0.5999  0.3216
   93MOL   H30631770   3.918   1.768   2.417 -0.5964 -0.1841  0.9176
   93MOL   H30731771   3.728   1.901   2.481  0.4169 -0.6163 -0.8488
   93MOL   C30831772   3.483   2.049   2.148  0.1535  0.0810 -0.2919
   93MOL   C30931773   3.426   2.046   2.006  0.5045 -1.1036 -0.2527
   93MOL   C31031774   3.299   2.134   2.009  0.2999  0.5597  0.1682
   93MOL   C31131775   3.307   2.272   1.999 -0.0741  0.4017 -0.1119
   93MOL   C31231776   3.190   2.348   2.011  0.3684  0.0806  0.2152
   93MOL   C31331777   3.067   2.286   2.026 -0.0875 -0.2614 -0.0279
   93MOL   C31431778   3.053   2.150   2.021 -0.6677 -0.0223 -0.0145
   93MOL   C31531779   3.171   2.072   2.014 -0.2967 -0.0752  0.1419
   93MOL   O31631780   3.529   2.100   1.924 -0.0264 -0.4799 -0.2745
   93MOL   H31731781   3.586   2.023   2.124  0.8243  1.6408  0.8166
   93MOL   H31831782   3.481   2.149   2.192 -1.7588  0.9330 -2.1977
   93MOL   H31931783   3.401   1.943   1.982 -1.0910 -0.7746 -0.0212
   93MOL   H32031784   3.403   2.320   1.986  0.4386 -0.9744 -1.6128
   93MOL   H32131785   3.198   2.456   2.011  0.7506  0.0557 -0.9556
   93MOL   H32231786   2.981   2.348   2.046  0.0013  0.1085 -0.7816
   93MOL   H32331787   2.955   2.106   2.035 -0.7743  0.7292  1.6440
   93MOL   H32431788   3.158   1.966   2.022  1.6758 -0.1967  2.3783
   93MOL   C32531789   3.517   2.077   1.781  0.8740 -0.7458  0.5176
   93MOL   C32631790   3.577   1.942   1.729  0.0612  0.2944  0.4389
   93MOL   C32731791   3.719   1.928   1.787 -0.1249  0.5995 -0.0473
   93MOL   C32831792   3.829   1.928   1.696 -0.5948  0.2451  0.3114
   93MOL   C32931793   3.962   1.918   1.741 -0.9459  0.0071  0.0596
   93MOL   C33031794   3.995   1.898   1.874  0.1606 -0.3264 -0.1692
   93MOL   C33131795   3.893   1.895   1.967  0.1519 -0.8843  0.5444
   93MOL   C33231796   3.758   1.906   1.921  0.3009 -0.3411  0.4589
   93MOL   O33331797   3.502   1.827   1.753  0.9737 -0.2400 -0.1518
   93MOL   H33431798   3.573   2.153   1.726  0.3919  0.9133  2.2875
   93MOL   H33531799   3.416   2.080   1.740  1.0007  1.4622  0.2924
   93MOL   H33631800   3.591   1.951   1.622 -1.1470  1.3832  0.3595
   93MOL   H33731801   3.809   1.944   1.591  0.2192  0.1419  0.1357
   93MOL   H33831802   4.033   1.925   1.660 -1.2542  1.3759 -0.1039
   93MOL   H33931803   4.099   1.890   1.903 -0.0054 -2.2636 -0.0220
   93MOL   H34031804   3.910   1.871   2.071 -1.2701 -1.1977  0.7142
   93MOL   H34131805   3.684   1.879   1.995 -0.0786 -1.1586 -0.2113
   93MOL   H34231806   3.479   1.829   1.845 -1.1313  1.0200 -0.6548
   94MOL     C131807   1.929   3.636   1.617 -0.1055  0.0867 -0.5506
   94MOL     C231808   1.873   3.765   1.561 -0.3164  0.1274  0.6188
   94MOL     C331809   1.853   3.871   1.664 -0.1761 -0.2774  0.0574
   94MOL     C431810   1.727   3.921   1.709 -0.0015 -0.0532 -0.3581
   94MOL     C531811   1.722   4.009   1.816 -0.2000 -0.6334 -0.2540
   94MOL     C631812   1.842   4.059   1.865  0.0247 -0.0496 -0.3177
   94MOL     C731813   1.964   4.016   1.815 -0.2815 -0.7109  0.7427
   94MOL     C831814   1.973   3.917   1.717 -0.3068  0.1329 -0.0579
   94MOL     O931815   1.746   3.723   1.501 -0.7206 -0.5680  0.0895
   94MOL    H1031816   1.902   3.547   1.560 -0.5132 -0.2598  0.1791
   94MOL    H1131817   2.037   3.644   1.609 -0.0856  2.2922  1.5416
   94MOL    H1231818   1.944   3.804   1.488 -0.2209 -1.1433  0.0211
   94MOL    H1331819   1.633   3.885   1.668 -0.7371  1.6221 -0.1843
   94MOL    H1431820   1.622   4.036   1.847  0.4110  0.3519  0.9139
   94MOL    H1531821   1.845   4.141   1.936  2.4753  0.9373 -1.5148
   94MOL    H1631822   2.045   4.074   1.856 -0.2655 -1.3448  1.6058
   94MOL    H1731823   2.075   3.893   1.690  0.5964  1.7318  1.8530
   94MOL    H1831824   1.922   3.611   1.723  1.7714  2.0601  0.0584
   94MOL    C1931825   1.727   3.759   1.363 -0.1597 -0.5150  0.3161
   94MOL    C2031826   1.793   3.653   1.266  1.3857 -0.4927  0.3320
   94MOL    C2131827   1.746   3.506   1.285 -0.0970 -0.6482  0.8112
   94MOL    C2231828   1.841   3.413   1.332 -0.1040 -0.4589  0.5218
   94MOL    C2331829   1.801   3.282   1.345  0.1421  0.3098  0.0432
   94MOL    C2431830   1.666   3.242   1.323 -0.0415 -0.0460  0.4343
   94MOL    C2531831   1.570   3.340   1.294 -0.7894 -0.1270 -0.0358
   94MOL    C2631832   1.607   3.470   1.272 -0.0654 -0.4401 -0.0098
   94MOL    O2731833   1.929   3.667   1.265  0.0269 -0.0842  0.6628
   94MOL    H2831834   1.619   3.753   1.351 -0.2069  1.5805 -0.5257
   94MOL    H2931835   1.771   3.857   1.345 -0.4227 -0.2632  1.0456
   94MOL    H3031836   1.766   3.687   1.166  1.0196 -4.1117 -0.8884
   94MOL    H3131837   1.943   3.443   1.350 -0.1394 -0.2143  0.3119
   94MOL    H3231838   1.879   3.209   1.359  0.7782  1.4211  2.5417
   94MOL    H3331839   1.641   3.137   1.325 -0.6459  0.0545 -1.2992
   94MOL    H3431840   1.467   3.315   1.274 -1.1126  1.2383 -0.1263
   94MOL    H3531841   1.536   3.548   1.248 -1.2602 -0.5151  3.0949
   94MOL    C3631842   1.985   3.611   1.141 -0.0456  0.3016 -0.2123
   94MOL    C3731843   2.131   3.663   1.143 -0.1434 -0.5366 -0.1638
   94MOL    C3831844   2.194   3.668   1.286  0.5200 -0.4329  0.5879
   94MOL    C3931845   2.191   3.783   1.367  0.9398 -0.3236 -0.1350
   94MOL    C4031846   2.248   3.768   1.501  0.2140 -0.2103  0.3286
   94MOL    C4131847   2.302   3.644   1.547  0.2440  0.5960 -0.2004
   94MOL    C4231848   2.289   3.529   1.465  0.5583  0.0993 -0.1155
   94MOL    C4331849   2.229   3.542   1.338  0.0576  0.0825  0.1708
   94MOL    O4431850   2.137   3.792   1.088 -0.0064 -0.3153 -0.0397
   94MOL    H4531851   1.989   3.502   1.138  0.8011  0.2174  2.3421
   94MOL    H4631852   1.943   3.645   1.047  1.9191 -0.1422 -1.2795
   94MOL    H4731853   2.185   3.592   1.080 -0.4627 -0.1614 -0.8763
   94MOL    H4831854   2.151   3.878   1.335  2.1109  0.2970  0.2121
   94MOL    H4931855   2.253   3.854   1.567 -0.6910 -0.6525  0.9845
   94MOL    H5031856   2.331   3.642   1.651  1.6796  3.1281 -0.4833
   94MOL    H5131857   2.328   3.435   1.502  0.2082 -0.8132 -2.0287
   94MOL    H5231858   2.207   3.451   1.285 -1.2211  0.3193  0.2729
   94MOL    C5331859   2.257   3.807   1.016  0.4436  1.0848 -0.0817
   94MOL    C5431860   2.268   3.954   0.965  0.6515  1.1321 -0.2299
   94MOL    C5531861   2.268   4.054   1.079 -0.5422 -0.1400  0.1814
   94MOL    C5631862   2.188   4.171   1.080 -0.2790 -0.1166  0.1005
   94MOL    C5731863   2.188   4.261   1.185  0.0804 -0.5816 -0.2223
   94MOL    C5831864   2.270   4.240   1.289 -0.3005  0.2763 -0.2744
   94MOL    C5931865   2.347   4.122   1.300 -0.3435 -0.2119  0.1829
   94MOL    C6031866   2.344   4.031   1.197  0.2506 -0.4389  0.1895
   94MOL    O6131867   2.389   3.961   0.898  0.0752 -0.0431  0.4626
   94MOL    H6231868   2.337   3.773   1.082 -1.7352  0.9699  2.5794
   94MOL    H6331869   2.250   3.743   0.929  1.7743  0.7280  0.0649
   94MOL    H6431870   2.192   3.988   0.894  1.0346  1.8702 -0.2879
   94MOL    H6531871   2.125   4.196   0.995 -0.2437 -2.9869 -0.7999
   94MOL    H6631872   2.140   4.357   1.177 -0.2544 -0.7793 -0.6323
   94MOL    H6731873   2.286   4.316   1.364 -0.5378 -0.7436  0.8280
   94MOL    H6831874   2.419   4.100   1.377  0.4879 -2.1186 -1.1105
   94MOL    H6931875   2.393   3.936   1.214  0.5165 -0.5421 -1.0526
   94MOL    C7031876   2.402   4.054   0.791 -0.4422  0.0006 -0.4463
   94MOL    C7131877   2.338   4.002   0.665 -0.4004 -0.0255 -0.5302
   94MOL    C7231878   2.432   3.962   0.555 -0.0014 -0.1506 -0.0847
   94MOL    C7331879   2.449   3.827   0.524  1.1926  0.1116 -0.2700
   94MOL    C7431880   2.526   3.794   0.411 -0.5758 -0.1190 -0.1686
   94MOL    C7531881   2.582   3.895   0.334 -0.5939  0.5291  0.4526
   94MOL    C7631882   2.566   4.032   0.371  0.0994  0.6362 -0.4037
   94MOL    C7731883   2.493   4.069   0.482  0.0623 -0.0688 -0.0819
   94MOL    O7831884   2.252   4.106   0.623 -0.6563  0.0701 -0.2127
   94MOL    H7931885   2.361   4.151   0.820  0.4195  0.4079 -0.5687
   94MOL    H8031886   2.506   4.086   0.785 -0.8456  1.2767 -0.9283
   94MOL    H8131887   2.274   3.916   0.689 -1.7630  0.5468 -1.9670
   94MOL    H8231888   2.414   3.752   0.593  0.6510  1.7543  1.2811
   94MOL    H8331889   2.537   3.690   0.384  1.4152 -0.2672  1.0583
   94MOL    H8431890   2.630   3.876   0.239  0.8915  2.4640  0.7768
   94MOL    H8531891   2.618   4.106   0.313  1.0820  2.4516  2.6627
   94MOL    H8631892   2.489   4.170   0.520  2.1099  0.1822 -0.4745
   94MOL    C8731893   2.138   4.067   0.542 -0.0606  0.1821 -0.3555
   94MOL    C8831894   2.059   4.194   0.496 -0.3175  0.3750  0.4100
   94MOL    C8931895   2.151   4.304   0.451 -0.5040 -0.5045 -0.3724
   94MOL    C9031896   2.255   4.272   0.368 -0.3271  0.4722  0.7229
   94MOL    C9131897   2.339   4.375   0.316 -0.9238 -0.2545 -0.2924
   94MOL    C9231898   2.307   4.511   0.343  0.5254 -0.4364  0.3065
   94MOL    C9331899   2.191   4.545   0.415  0.0743 -0.3483 -0.1234
   94MOL    C9431900   2.114   4.441   0.472 -0.1381 -0.4367  0.0029
   94MOL    O9531901   1.988   4.236   0.615  0.5527  0.5017  0.0583
   94MOL    H9631902   2.079   3.988   0.590  2.1051 -1.4245 -0.2165
   94MOL    H9731903   2.175   4.013   0.455  0.6377  3.3282 -2.0581
   94MOL    H9831904   2.009   4.160   0.405  1.2916  1.4098 -0.8864
   94MOL    H9931905   2.260   4.173   0.326  2.2535  0.8212  0.0885
   94MOL   H10031906   2.419   4.340   0.252 -0.3939 -1.3193  0.9397
   94MOL   H10131907   2.369   4.584   0.293  2.6374 -2.8260 -0.7008
   94MOL   H10231908   2.158   4.648   0.410  0.6805 -0.1172  0.5701
   94MOL   H10331909   2.028   4.460   0.534 -0.4447 -0.5007 -0.4000
   94MOL   C10431910   1.845   4.236   0.593 -0.0616 -0.5234  0.3698
   94MOL   C10531911   1.755   4.286   0.705 -0.5717  0.2180 -0.0112
   94MOL   C10631912   1.801   4.426   0.751  0.5277 -0.2086 -0.8304
   94MOL   C10731913   1.741   4.542   0.701 -0.6260 -0.0070  0.0760
   94MOL   C10831914   1.796   4.668   0.731 -0.5512  0.0946 -1.0091
   94MOL   C10931915   1.913   4.678   0.808  0.0688 -0.5639  0.0733
   94MOL   C11031916   1.963   4.562   0.872 -0.1776  0.6626  0.0108
   94MOL   C11131917   1.908   4.436   0.843  0.6614 -0.5669 -0.2442
   94MOL   O11231918   1.617   4.289   0.672 -0.2585 -0.2122 -0.3405
   94MOL   H11331919   1.828   4.314   0.519  2.2046 -0.5800 -0.2375
   94MOL   H11431920   1.803   4.150   0.542 -1.0172 -0.6047  1.2665
   94MOL   H11531921   1.765   4.214   0.786 -1.5215 -0.2032 -0.2646
   94MOL   H11631922   1.660   4.540   0.630 -0.0735  2.8329 -0.7434
   94MOL   H11731923   1.757   4.761   0.693  1.0677  1.5161  0.7075
   94MOL   H11831924   1.959   4.775   0.821  1.8092 -1.4748  0.8502
   94MOL   H11931925   2.034   4.566   0.954  0.2034 -0.4335 -0.2504
   94MOL   H12031926   1.966   4.355   0.885 -1.7678 -2.1476  0.1236
   94MOL   C12131927   1.529   4.248   0.775 -0.2467  0.0371 -0.5666
   94MOL   C12231928   1.466   4.350   0.871  0.2228 -0.0929 -0.0731
   94MOL   C12331929   1.335   4.305   0.925  0.3325 -0.0624 -0.3933
   94MOL   C12431930   1.327   4.215   1.037  0.9789 -0.0902  0.5476
   94MOL   C12531931   1.201   4.167   1.073 -0.4350 -0.3201 -0.3315
   94MOL   C12631932   1.088   4.217   1.016  0.3710  0.2694 -0.0215
   94MOL   C12731933   1.089   4.306   0.908 -0.4021 -0.7557  0.6414
   94MOL   C12831934   1.215   4.348   0.861 -0.4143  0.6763 -0.6640
   94MOL   O12931935   1.570   4.372   0.971 -0.2573 -0.2731  0.2656
   94MOL   H13031936   1.567   4.171   0.842  2.1085  3.2278  1.9281
   94MOL   H13131937   1.455   4.192   0.718 -1.6939 -0.4840  1.7582
   94MOL   H13231938   1.449   4.444   0.819 -0.5507 -1.2371 -1.9637
   94MOL   H13331939   1.412   4.174   1.089  1.0629 -1.4349 -0.6200
   94MOL   H13431940   1.190   4.098   1.154  0.3283  0.4409  0.4336
   94MOL   H13531941   0.997   4.179   1.059 -0.8208  1.3049 -1.5245
   94MOL   H13631942   0.991   4.346   0.886 -0.7974 -1.7867  0.5063
   94MOL   H13731943   1.221   4.418   0.779  0.6984  1.6239  0.2022
   94MOL   C13831944   1.559   4.496   1.032 -0.6248  0.0850  0.0729
   94MOL   C13931945   1.678   4.509   1.142  0.1848  1.2554  0.1655
   94MOL   C14031946   1.666   4.642   1.215  0.1505  0.1130  0.3756
   94MOL   C14131947   1.742   4.752   1.170 -0.0021 -0.1806 -0.2413
   94MOL   C14231948   1.731   4.879   1.221  1.1310  0.3039 -0.5506
   94MOL   C14331949   1.642   4.898   1.332  0.2433  0.4133  0.5403
   94MOL   C14431950   1.556   4.795   1.374 -0.3549  0.3379  0.2169
   94MOL   C14531951   1.572   4.668   1.317  0.3779 -0.1696  0.7271
   94MOL   O14631952   1.672   4.405   1.236 -0.3726  0.9747  0.7981
   94MOL   H14731953   1.467   4.504   1.089 -1.6244  0.0516 -1.4988
   94MOL   H14831954   1.566   4.580   0.963 -2.4791 -0.9625 -1.4328
   94MOL   H14931955   1.777   4.506   1.097  0.5521 -0.2921  1.0359
   94MOL   H15031956   1.815   4.727   1.094 -0.6060  0.0620 -0.9029
   94MOL   H15131957   1.801   4.953   1.185  1.4548  0.1221 -0.2925
   94MOL   H15231958   1.635   4.994   1.381 -2.1934 -0.1320  1.3410
   94MOL   H15331959   1.478   4.813   1.447 -1.5952 -1.6394 -0.5839
   94MOL   H15431960   1.508   4.587   1.348  0.8525 -1.5903 -1.8384
   94MOL   C15531961   1.787   4.392   1.314  0.0137 -0.1287  0.7262
   94MOL   C15631962   1.768   4.295   1.429  0.3507 -0.1011 -0.0389
   94MOL   C15731963   1.900   4.271   1.503  0.1215  0.4533  0.0410
   94MOL   C15831964   1.944   4.371   1.589  0.7197  0.6456  0.6824
   94MOL   C15931965   2.069   4.362   1.651  0.4876  0.3121  0.3603
   94MOL   C16031966   2.157   4.251   1.627 -0.6508  0.2132 -0.5723
   94MOL   C16131967   2.110   4.150   1.540 -0.3650 -0.8809 -0.2131
   94MOL   C16231968   1.982   4.160   1.476 -0.5485 -0.8403 -0.1408
   94MOL   O16331969   1.658   4.340   1.504 -0.2559  0.4055 -0.3212
   94MOL   H16431970   1.823   4.485   1.357 -1.2976  0.4580  0.6013
   94MOL   H16531971   1.861   4.352   1.245  0.1402 -0.2841  0.9528
   94MOL   H16631972   1.741   4.205   1.373  2.2137 -0.0897 -0.9942
   94MOL   H16731973   1.882   4.455   1.613 -0.3816 -0.5512  2.0883
   94MOL   H16831974   2.117   4.431   1.719  2.4857  0.7253 -1.3889
   94MOL   H16931975   2.259   4.251   1.664 -0.2876 -2.4340 -1.4382
   94MOL   H17031976   2.167   4.059   1.526  2.5246  0.8527 -0.1019
   94MOL   H17131977   1.954   4.080   1.410  1.4411 -1.1748 -0.6373
   94MOL   C17231978   1.610   4.268   1.615 -0.3525 -0.2195 -0.0768
   94MOL   C17331979   1.524   4.358   1.715 -0.1748  0.5127  0.7091
   94MOL   C17431980   1.602   4.471   1.783 -0.1581 -0.4013 -0.4027
   94MOL   C17531981   1.567   4.602   1.756  0.3966 -0.0414  0.6846
   94MOL   C17631982   1.622   4.706   1.832 -0.0377  0.0611  0.1224
   94MOL   C17731983   1.712   4.678   1.939 -0.1261  0.6642 -1.0967
   94MOL   C17831984   1.758   4.542   1.963 -0.0699  0.1712 -0.4184
   94MOL   C17931985   1.698   4.438   1.881  0.0562 -0.0153 -0.3127
   94MOL   O18031986   1.461   4.282   1.822 -0.4967  0.1848  0.0546
   94MOL   H18131987   1.549   4.191   1.568 -0.9226 -0.0517  0.3785
   94MOL   H18231988   1.687   4.216   1.673 -0.6568  0.3165  0.8218
   94MOL   H18331989   1.440   4.414   1.673 -1.3736 -1.4513  0.4546
   94MOL   H18431990   1.489   4.623   1.684 -1.9991 -1.0294  2.9107
   94MOL   H18531991   1.579   4.805   1.820  1.5257  1.0761  2.5483
   94MOL   H18631992   1.743   4.756   2.007  0.5672 -0.6957  0.1766
   94MOL   H18731993   1.826   4.517   2.042 -0.7702  1.3476  0.5747
   94MOL   H18831994   1.715   4.334   1.903 -1.5748 -0.4483 -1.0376
   94MOL   C18931995   1.326   4.246   1.808  0.2444  0.4277 -0.2790
   94MOL   C19031996   1.268   4.180   1.930  0.3090  0.3353  0.0277
   94MOL   C19131997   1.377   4.114   2.012 -0.0677  0.1060  0.2626
   94MOL   C19231998   1.399   3.973   1.998  0.4187 -0.1283  0.7370
   94MOL   C19331999   1.510   3.912   2.067 -0.5366  0.0835 -0.6004
   94MOL   C19432000   1.587   3.993   2.157 -0.3924  0.5583 -0.4764
   94MOL   C19532001   1.566   4.125   2.172 -0.0256 -0.1592 -0.5755
   94MOL   C19632002   1.464   4.185   2.103  0.3575  0.2484  0.2199
   94MOL   O19732003   1.151   4.089   1.907 -0.4972 -0.3559  0.5473
   94MOL   H19832004   1.270   4.331   1.770 -0.9518 -0.7741 -1.2111
   94MOL   H19932005   1.327   4.172   1.728 -0.4662 -1.0920  1.1044
   94MOL   H20032006   1.228   4.263   1.989 -1.7349 -1.1825  0.8486
   94MOL   H20132007   1.332   3.919   1.933  1.0119  0.5673 -0.4678
   94MOL   H20232008   1.544   3.811   2.057 -0.2096  0.1780 -0.4287
   94MOL   H20332009   1.655   3.934   2.217 -0.3532  0.5417 -0.5366
   94MOL   H20432010   1.623   4.183   2.243 -0.3500 -1.5861  0.8835
   94MOL   H20532011   1.452   4.290   2.123 -1.6123 -0.6369  4.2784
   94MOL   C20632012   1.043   4.163   1.852  0.3601 -0.3382 -0.2612
   94MOL   C20732013   0.908   4.091   1.856  0.4924 -0.1045  0.0706
   94MOL   C20832014   0.830   4.128   1.730 -0.1059 -0.0297  0.4402
   94MOL   C20932015   0.844   4.051   1.615  0.0853  0.3508 -0.1850
   94MOL   C21032016   0.764   4.079   1.501 -0.3283 -0.0168 -0.8024
   94MOL   C21132017   0.683   4.195   1.502  0.4063  0.1095  0.0662
   94MOL   C21232018   0.675   4.276   1.619 -0.3975  0.1222 -0.0239
   94MOL   C21332019   0.754   4.245   1.730  0.2642 -0.1849 -0.2691
   94MOL   O21432020   0.844   4.114   1.985  0.4918  0.1592 -0.2105
   94MOL   H21532021   1.022   4.262   1.892 -0.4586  0.6687 -3.0525
   94MOL   H21632022   1.075   4.185   1.750  1.3129 -0.7612 -0.0581
   94MOL   H21732023   0.929   3.984   1.857 -0.7711 -0.3669  1.7311
   94MOL   H21832024   0.899   3.958   1.609 -1.6477 -0.7846  1.1631
   94MOL   H21932025   0.770   4.009   1.419 -0.7784  0.1052 -0.9410
   94MOL   H22032026   0.612   4.214   1.423 -0.2688 -0.3884  0.5350
   94MOL   H22132027   0.614   4.365   1.608 -0.5224 -0.1162 -1.3039
   94MOL   H22232028   0.759   4.297   1.825 -0.5058 -1.1569  0.3136
   94MOL   C22332029   0.737   4.022   2.014 -0.3695 -0.2678  0.3356
   94MOL   C22432030   0.658   4.090   2.122 -0.4562  0.6806  0.0907
   94MOL   C22532031   0.627   4.234   2.090  0.2497 -1.1385 -0.2335
   94MOL   C22632032   0.718   4.338   2.125  0.2591 -0.3144 -0.3972
   94MOL   C22732033   0.686   4.472   2.089  0.0876 -0.1665  1.0842
   94MOL   C22832034   0.561   4.501   2.028 -0.5084 -0.2343  0.4626
   94MOL   C22932035   0.474   4.396   1.991  0.3647  1.1792 -0.3405
   94MOL   C23032036   0.505   4.263   2.028 -0.4598 -1.0142  0.5430
   94MOL   O23132037   0.542   4.009   2.133 -0.1716 -0.2209  0.5871
   94MOL   H23232038   0.684   4.005   1.921 -3.3105  0.6606  1.8042
   94MOL   H23332039   0.766   3.919   2.038 -0.5492 -0.8070 -1.6725
   94MOL   H23432040   0.722   4.072   2.208  1.6957 -1.5191 -1.9050
   94MOL   H23532041   0.814   4.313   2.166 -0.2545 -0.6236  0.6368
   94MOL   H23632042   0.750   4.555   2.111  0.5454 -0.2329  0.0101
   94MOL   H23732043   0.532   4.597   1.989 -0.9529 -0.1086  1.1036
   94MOL   H23832044   0.381   4.435   1.953 -0.7802 -1.1549 -0.0655
   94MOL   H23932045   0.441   4.182   1.996  0.1870 -0.3153 -2.7914
   94MOL   C24032046   0.485   4.010   2.255  0.2201  0.0128  0.3108
   94MOL   C24132047   0.544   3.908   2.352  0.2828  0.6110  0.2967
   94MOL   C24232048   0.561   3.779   2.281 -0.4470 -0.2365 -0.1914
   94MOL   C24332049   0.448   3.710   2.236 -0.0953 -0.4511 -0.6776
   94MOL   C24432050   0.466   3.590   2.166  0.7745 -0.3738 -0.2636
   94MOL   C24532051   0.587   3.533   2.146 -0.4435  0.4314  0.2533
   94MOL   C24632052   0.700   3.596   2.205 -0.4262  0.0916  0.0801
   94MOL   C24732053   0.691   3.721   2.265  0.3917  0.1994 -0.5350
   94MOL   O24832054   0.662   3.962   2.406  0.0870 -0.6511  0.0505
   94MOL   H24932055   0.473   4.109   2.301 -0.6371 -0.8219  1.9347
   94MOL   H25032056   0.380   3.983   2.243  0.3096  0.3266 -1.2814
   94MOL   H25132057   0.482   3.899   2.441 -0.1994  0.1083 -0.0872
   94MOL   H25232058   0.351   3.756   2.246 -1.1062 -2.7374  0.3604
   94MOL   H25332059   0.377   3.541   2.128 -0.6444  1.5568  0.4663
   94MOL   H25432060   0.600   3.433   2.108 -1.6779  1.1109 -2.0344
   94MOL   H25532061   0.798   3.551   2.196 -1.0141 -0.7460 -2.8921
   94MOL   H25632062   0.777   3.766   2.311 -0.8899 -0.5838  2.7614
   94MOL   C25732063   0.708   3.904   2.528  0.2093 -0.5486  0.5171
   94MOL   C25832064   0.843   3.967   2.543  0.5921 -0.9232  0.1729
   94MOL   C25932065   0.943   3.937   2.434  0.3214 -0.2527 -0.2034
   94MOL   C26032066   0.965   4.031   2.329 -0.4118  0.5339 -0.0613
   94MOL   C26132067   1.055   3.991   2.228 -0.2711  0.5811  0.5534
   94MOL   C26232068   1.124   3.867   2.235 -0.0778  0.5896  0.0678
   94MOL   C26332069   1.094   3.777   2.341 -0.1789 -0.7335 -0.4553
   94MOL   C26432070   1.003   3.807   2.441 -0.8267  0.1805  0.6855
   94MOL   O26532071   0.888   3.915   2.671  0.0138 -0.3284  0.4157
   94MOL   H26632072   0.723   3.796   2.526 -2.1128 -0.8749 -0.5090
   94MOL   H26732073   0.652   3.934   2.617  1.9247 -2.5253  2.3384
   94MOL   H26832074   0.843   4.076   2.550  0.6841 -0.9281  0.2517
   94MOL   H26932075   0.916   4.128   2.323 -0.7398  0.5046  1.8309
   94MOL   H27032076   1.090   4.056   2.149  0.9592  0.0269  0.6422
   94MOL   H27132077   1.201   3.844   2.163  0.7936 -2.5260  1.8903
   94MOL   H27232078   1.142   3.680   2.341 -0.4976 -0.8981 -1.4308
   94MOL   H27332079   0.991   3.735   2.521 -1.8935 -0.2684  0.1367
   94MOL   C27432080   0.996   3.985   2.728 -0.1885  0.4059  0.2356
   94MOL   C27532081   1.016   3.974   2.880  0.3388  0.2810 -0.6219
   94MOL   C27632082   1.027   3.826   2.928  0.2601  0.7852 -0.4073
   94MOL   C27732083   0.909   3.748   2.942  0.0850 -1.0271 -0.0139
   94MOL   C27832084   0.918   3.621   2.993  0.4357  0.1935  0.6526
   94MOL   C27932085   1.039   3.565   3.026  0.4468 -0.2425  0.4222
   94MOL   C28032086   1.158   3.638   3.013  0.6457 -0.5638 -0.2468
   94MOL   C28132087   1.155   3.769   2.959  0.6493 -0.2896 -0.2905
   94MOL   O28232088   0.919   4.047   2.948 -0.1005 -0.0186 -0.7616
   94MOL   H28332089   1.085   3.947   2.677  0.0189  1.4249 -0.1676
   94MOL   H28432090   0.994   4.092   2.711 -0.7407 -0.1061 -3.1299
   94MOL   H28532091   1.106   4.032   2.900 -0.3965  0.9991  0.6453
   94MOL   H28632092   0.817   3.791   2.906  0.7370 -0.8349 -1.4842
   94MOL   H28732093   0.824   3.568   2.998 -0.2782  1.1383 -1.8335
   94MOL   H28832094   1.047   3.471   3.080 -0.5029 -0.5263  0.0802
   94MOL   H28932095   1.254   3.596   3.037  0.4214 -1.9640 -1.7124
   94MOL   H29032096   1.246   3.819   2.932  1.5409 -0.2336  2.6440
   94MOL   C29132097   0.933   4.063   3.093  0.0592  0.0576  0.0033
   94MOL   C29232098   1.018   4.182   3.138  1.1797  0.7169  0.6133
   94MOL   C29332099   1.010   4.212   3.290  0.5808  0.0365 -0.0327
   94MOL   C29432100   0.934   4.319   3.343  0.0969  0.3339 -0.6381
   94MOL   C29532101   0.917   4.343   3.485  0.5259  0.9618 -0.0547
   94MOL   C29632102   0.986   4.252   3.569  0.2773  0.2540 -0.3450
   94MOL   C29732103   1.066   4.146   3.520  0.0908  0.4727 -0.3040
   94MOL   C29832104   1.066   4.124   3.387 -0.1731  0.1494  0.2446
   94MOL   O29932105   1.147   4.133   3.108 -0.2451 -0.6383 -0.3720
   94MOL   H30032106   0.975   3.978   3.146 -0.6413 -0.4833 -0.2945
   94MOL   H30132107   0.832   4.060   3.134 -0.8197  1.6201 -1.9767
   94MOL   H30232108   0.981   4.268   3.083  1.5633  0.7328  0.3762
   94MOL   H30332109   0.880   4.380   3.272 -0.8851  0.0962 -0.1082
   94MOL   H30432110   0.869   4.431   3.525 -1.1388 -0.0222  0.1695
   94MOL   H30532111   0.990   4.275   3.674  0.0234  1.0972 -0.5102
   94MOL   H30632112   1.110   4.080   3.592 -2.0544  0.3143  0.9235
   94MOL   H30732113   1.124   4.037   3.360  0.2231 -0.2131  2.2076
   94MOL   C30832114   1.244   4.242   3.101 -0.4864 -0.1628  0.0900
   94MOL   C30932115   1.385   4.190   3.055  0.3242  0.5259  0.1228
   94MOL   C31032116   1.440   4.107   3.175  0.4956  0.7626  0.1064
   94MOL   C31132117   1.396   3.971   3.187 -0.2584 -0.8455 -0.5185
   94MOL   C31232118   1.442   3.901   3.301  0.1733  0.1352  0.0959
   94MOL   C31332119   1.533   3.954   3.395 -0.1269  0.3094 -0.2956
   94MOL   C31432120   1.592   4.079   3.368 -0.3292  0.3692 -0.1146
   94MOL   C31532121   1.541   4.159   3.260 -0.0406 -0.4999 -0.5904
   94MOL   O31632122   1.380   4.113   2.940  0.0687 -0.0516 -0.2635
   94MOL   H31732123   1.245   4.305   3.190  0.1514  2.3468 -1.6506
   94MOL   H31832124   1.218   4.318   3.027  3.6824  0.6661 -0.6213
   94MOL   H31932125   1.452   4.273   3.034 -0.1776  1.0676  0.6456
   94MOL   H32032126   1.325   3.927   3.118 -0.1256 -0.9255 -0.6038
   94MOL   H32132127   1.408   3.800   3.316 -0.4933  0.5076  1.1224
   94MOL   H32232128   1.559   3.901   3.485  0.0294 -0.1171 -0.5908
   94MOL   H32332129   1.667   4.122   3.433  0.2404 -1.6877  0.6235
   94MOL   H32432130   1.590   4.255   3.252  0.1895 -0.5154  0.5142
   94MOL   C32532131   1.509   4.075   2.886 -0.7366 -0.0590  0.1181
   94MOL   C32632132   1.558   4.159   2.771  0.6717  0.7742  0.1332
   94MOL   C32732133   1.448   4.193   2.667  0.3733  0.6641  0.2027
   94MOL   C32832134   1.347   4.291   2.696 -0.6998  0.3034  0.2008
   94MOL   C32932135   1.239   4.304   2.606 -0.0978 -0.6642  0.4456
   94MOL   C33032136   1.226   4.223   2.489  0.1011  0.2890 -0.1071
   94MOL   C33132137   1.330   4.133   2.463 -0.3656 -0.2575  0.5305
   94MOL   C33232138   1.445   4.121   2.544 -0.0221  0.0477 -0.6017
   94MOL   O33332139   1.612   4.271   2.824 -0.1010  0.6419 -0.3556
   94MOL   H33432140   1.488   3.977   2.844 -1.6305 -0.3233  1.1634
   94MOL   H33532141   1.588   4.065   2.960  0.8516  1.6735 -1.2714
   94MOL   H33632142   1.640   4.107   2.722  0.1468 -1.6124  1.7580
   94MOL   H33732143   1.353   4.350   2.787  4.0023  1.9351 -1.0193
   94MOL   H33832144   1.158   4.373   2.622  1.5461  1.3015  0.4662
   94MOL   H33932145   1.143   4.238   2.423 -0.4219 -0.6410  0.3232
   94MOL   H34032146   1.320   4.072   2.374  0.0842 -0.4571  0.6148
   94MOL   H34132147   1.519   4.049   2.512 -0.1735 -0.1070 -0.6018
   94MOL   H34232148   1.544   4.329   2.856  0.0020  0.6380 -0.1294
   95MOL     C132149   3.135   3.510   3.164  0.1723 -0.2392 -0.9333
   95MOL     C232150   3.284   3.530   3.146  0.2962  0.2580 -0.5810
   95MOL     C332151   3.323   3.675   3.145 -0.7022  0.0776  0.8586
   95MOL     C432152   3.343   3.742   3.268 -0.5776  0.8306  0.2301
   95MOL     C532153   3.353   3.886   3.272  0.0913 -0.0438  0.0569
   95MOL     C632154   3.350   3.963   3.146  0.0984 -0.6287  0.4339
   95MOL     C732155   3.334   3.890   3.023  0.2144 -0.3165  0.0103
   95MOL     C832156   3.319   3.749   3.024 -0.1805  0.2301  0.0682
   95MOL     O932157   3.332   3.468   3.026  0.7224 -0.3214 -0.2427
   95MOL    H1032158   3.112   3.404   3.176  2.0104 -0.6386 -0.6957
   95MOL    H1132159   3.106   3.562   3.255  0.3590  1.7291 -1.9746
   95MOL    H1232160   3.343   3.478   3.222  1.2543 -0.3558 -1.7298
   95MOL    H1332161   3.351   3.694   3.365 -0.1229  2.0982  0.8224
   95MOL    H1432162   3.365   3.929   3.370  0.3674  0.2363 -0.0983
   95MOL    H1532163   3.362   4.071   3.148  0.3686 -0.5737 -2.3279
   95MOL    H1632164   3.343   3.948   2.932  1.7397  1.1605  1.0908
   95MOL    H1732165   3.302   3.689   2.936 -0.2368 -1.8250  1.4642
   95MOL    H1832166   3.077   3.542   3.078  0.0227  1.6354 -0.1515
   95MOL    C1932167   3.316   3.325   3.013  1.2524  0.3092 -0.1088
   95MOL    C2032168   3.400   3.285   2.889 -0.3730  0.1256 -0.0995
   95MOL    C2132169   3.363   3.371   2.768 -0.5941 -0.3939 -0.1117
   95MOL    C2232170   3.419   3.497   2.751  0.0325 -0.6825  0.1591
   95MOL    C2332171   3.377   3.583   2.644 -0.2505 -0.1195  0.1798
   95MOL    C2432172   3.274   3.546   2.553 -0.1971  0.1947 -0.3716
   95MOL    C2532173   3.226   3.417   2.563 -0.1584 -0.1505  1.0640
   95MOL    C2632174   3.266   3.327   2.675 -0.1310  0.2860  0.3796
   95MOL    O2732175   3.397   3.147   2.860 -0.0778 -0.1627 -0.3287
   95MOL    H2832176   3.331   3.283   3.113 -2.6013  0.1811  0.5115
   95MOL    H2932177   3.210   3.301   3.004  1.2160  0.2125  0.5571
   95MOL    H3032178   3.504   3.301   2.915  0.2263 -0.2888 -2.1112
   95MOL    H3132179   3.490   3.534   2.823 -0.0337  0.7965 -0.5150
   95MOL    H3232180   3.426   3.677   2.626  1.2497 -0.9423 -0.1613
   95MOL    H3332181   3.249   3.599   2.462 -1.6071 -1.9486 -1.2784
   95MOL    H3432182   3.159   3.385   2.484 -0.0781 -0.5351  1.1526
   95MOL    H3532183   3.229   3.226   2.682  0.6118 -0.0759 -0.6962
   95MOL    C3632184   3.494   3.097   2.776 -0.4608 -0.1800 -0.0170
   95MOL    C3732185   3.451   2.955   2.740  0.8421  0.8282  0.8338
   95MOL    C3832186   3.571   2.870   2.701  0.6315  0.3714  0.6865
   95MOL    C3932187   3.655   2.828   2.802  0.4478 -1.0778  0.2360
   95MOL    C4032188   3.768   2.749   2.770  0.8730  0.0081  0.1969
   95MOL    C4132189   3.789   2.717   2.640 -0.8434 -0.2780 -0.2716
   95MOL    C4232190   3.709   2.758   2.533 -0.2245  0.5609 -0.3766
   95MOL    C4332191   3.595   2.832   2.564  0.1157 -0.3205 -0.0886
   95MOL    O4432192   3.368   2.966   2.627 -0.0916 -0.2646 -0.1944
   95MOL    H4532193   3.505   3.147   2.679 -0.6966  1.2659  0.6803
   95MOL    H4632194   3.591   3.104   2.826 -0.6993  1.9270  0.2254
   95MOL    H4732195   3.410   2.905   2.827  1.3675  2.1520  1.8500
   95MOL    H4832196   3.636   2.847   2.906  0.2955  0.1354 -0.0071
   95MOL    H4932197   3.829   2.713   2.851  0.1731 -1.3908  0.1193
   95MOL    H5032198   3.878   2.657   2.627 -1.9578 -2.5439  2.0892
   95MOL    H5132199   3.739   2.738   2.431  0.8208  0.4537 -0.0527
   95MOL    H5232200   3.520   2.849   2.488 -0.1162  1.5410  0.5290
   95MOL    C5332201   3.253   2.876   2.642  0.1772  0.4773  0.2164
   95MOL    C5432202   3.144   2.908   2.747  0.1840 -0.2004 -0.1126
   95MOL    C5532203   3.010   2.882   2.694  0.1258 -0.4009  0.4302
   95MOL    C5632204   2.933   2.992   2.659  0.0475  0.0119  0.0242
   95MOL    C5732205   2.801   2.968   2.620  0.4898  0.5772  0.2892
   95MOL    C5832206   2.754   2.830   2.600 -0.3339 -1.1714 -0.0386
   95MOL    C5932207   2.842   2.725   2.621  0.0304  0.5933 -0.0333
   95MOL    C6032208   2.967   2.750   2.669 -0.3338 -0.3152  0.1815
   95MOL    O6132209   3.175   2.844   2.872 -0.1101 -0.4054  0.0203
   95MOL    H6232210   3.215   2.882   2.540  1.1239 -1.5070 -0.2789
   95MOL    H6332211   3.283   2.772   2.654 -0.8399  0.2574  0.9980
   95MOL    H6432212   3.155   3.015   2.766  2.4858 -0.4719  0.2467
   95MOL    H6532213   2.974   3.089   2.680  0.3494 -0.0143 -0.4484
   95MOL    H6632214   2.730   3.048   2.606 -0.3176 -0.4399 -1.5545
   95MOL    H6732215   2.655   2.824   2.556 -1.0159  0.0707  1.2876
   95MOL    H6832216   2.801   2.626   2.612 -1.0301  1.1689 -1.9622
   95MOL    H6932217   3.030   2.664   2.688  2.3675  1.2988 -1.1132
   95MOL    C7032218   3.081   2.873   2.983 -0.5077 -0.1209  0.3025
   95MOL    C7132219   3.113   2.790   3.111 -0.3743 -0.6129  0.1479
   95MOL    C7232220   3.071   2.638   3.110 -0.7420  0.6183  0.3231
   95MOL    C7332221   2.982   2.579   3.201  0.2520  0.2486 -0.7484
   95MOL    C7432222   2.964   2.440   3.201 -0.6777  0.0643  1.0183
   95MOL    C7532223   3.034   2.352   3.117  0.0088  0.2518  0.4237
   95MOL    C7632224   3.112   2.411   3.019  0.3938  0.5890 -0.4144
   95MOL    C7732225   3.136   2.548   3.023  0.4366 -1.2643  0.6916
   95MOL    O7832226   3.065   2.853   3.231  0.5000 -0.0810  0.4545
   95MOL    H7932227   3.086   2.980   3.002  0.8340 -0.3387  1.2300
   95MOL    H8032228   2.978   2.842   2.966 -0.6917 -0.4940  2.0293
   95MOL    H8132229   3.222   2.795   3.111 -0.3342 -1.5169  0.2386
   95MOL    H8232230   2.943   2.649   3.274  1.8328  1.7336 -1.3176
   95MOL    H8332231   2.894   2.405   3.276 -2.1514 -0.1738 -0.4502
   95MOL    H8432232   3.021   2.245   3.124 -0.3720  0.2721  0.0713
   95MOL    H8532233   3.171   2.346   2.956  2.2417  0.3906  1.4563
   95MOL    H8632234   3.198   2.581   2.941 -0.1862 -0.8817  0.3694
   95MOL    C8732235   3.092   2.992   3.266  0.1961 -0.3324 -0.6165
   95MOL    C8832236   3.020   3.030   3.397  0.0073 -0.0447  0.2101
   95MOL    C8932237   3.031   3.179   3.425 -0.3009 -1.2249  0.2258
   95MOL    C9032238   3.141   3.237   3.495  0.5618  0.1345 -0.0502
   95MOL    C9132239   3.148   3.373   3.526 -0.3809  0.0035 -1.0105
   95MOL    C9232240   3.045   3.462   3.489  0.0889  0.3665  0.0481
   95MOL    C9332241   2.938   3.408   3.409 -0.2873  0.7272 -0.7971
   95MOL    C9432242   2.933   3.270   3.383 -0.0099  0.2336 -1.2578
   95MOL    O9532243   3.063   2.947   3.507 -0.0406  0.0630  0.3938
   95MOL    H9632244   3.052   3.058   3.189  0.1692 -0.0099 -0.3241
   95MOL    H9732245   3.199   3.013   3.274 -0.3269  1.8265  1.0040
   95MOL    H9832246   2.918   3.004   3.368  0.3083  0.7188 -1.6465
   95MOL    H9932247   3.218   3.169   3.529 -0.6820 -0.4270  1.7112
   95MOL   H10032248   3.221   3.412   3.595  0.6905  0.0880 -2.1585
   95MOL   H10132249   3.043   3.567   3.514 -0.0852  0.5197 -0.5889
   95MOL   H10232250   2.848   3.460   3.379 -0.8383  0.8346  0.9934
   95MOL   H10332251   2.851   3.219   3.336 -0.4484  1.0249 -1.3531
   95MOL   C10432252   2.952   2.912   3.593  0.3563 -0.0036 -0.3655
   95MOL   C10532253   3.016   2.874   3.734 -0.3642 -0.1797  0.5577
   95MOL   C10632254   3.109   2.990   3.784 -1.3526 -0.1031  0.0162
   95MOL   C10732255   3.250   2.974   3.781 -1.0304 -0.0994  0.6794
   95MOL   C10832256   3.328   3.084   3.816  0.1436 -0.4785  0.5413
   95MOL   C10932257   3.270   3.207   3.851  0.4360  0.2068 -0.1058
   95MOL   C11032258   3.132   3.216   3.865 -0.7376  0.0898 -0.4967
   95MOL   C11132259   3.051   3.108   3.825 -0.5122  0.1297  0.3401
   95MOL   O11232260   2.904   2.863   3.832  0.0358  0.1581  0.5825
   95MOL   H11332261   2.887   2.996   3.619  0.3010  0.0563 -0.6980
   95MOL   H11432262   2.888   2.839   3.541 -0.7623  0.5312  0.2472
   95MOL   H11532263   3.089   2.793   3.736  1.4170  1.3757  0.5151
   95MOL   H11632264   3.294   2.884   3.741 -2.3455  0.9087 -3.2153
   95MOL   H11732265   3.435   3.084   3.798 -0.0029  1.7820 -0.4297
   95MOL   H11832266   3.323   3.296   3.879 -0.3932  0.9593 -0.9051
   95MOL   H11932267   3.092   3.309   3.901  2.8683  2.4073 -2.2257
   95MOL   H12032268   2.945   3.126   3.809 -0.2693  0.2163 -1.2747
   95MOL   C12132269   2.949   2.788   3.941 -0.2891 -0.0510  0.1905
   95MOL   C12232270   2.854   2.800   4.059  0.1957  0.9136 -0.4032
   95MOL   C12332271   2.864   2.941   4.120 -0.0861  0.6582 -0.2506
   95MOL   C12432272   2.945   2.966   4.235 -0.1616 -0.6043 -0.5869
   95MOL   C12532273   2.936   3.092   4.299 -0.4040  0.2777 -0.0950
   95MOL   C12632274   2.842   3.185   4.254 -0.2204  0.0233  0.4549
   95MOL   C12732275   2.775   3.171   4.137  0.3155 -0.0408 -0.3796
   95MOL   C12832276   2.788   3.050   4.066 -0.6768 -0.2213 -0.3940
   95MOL   O12932277   2.723   2.762   4.004  0.3978  0.4508  0.2577
   95MOL   H13032278   3.052   2.811   3.969 -0.0383 -1.2694  0.2956
   95MOL   H13132279   2.940   2.682   3.916  1.3986 -0.2817  0.5273
   95MOL   H13232280   2.896   2.729   4.130  1.9702  2.1017 -0.2348
   95MOL   H13332281   3.001   2.881   4.271  0.5007  0.1547  0.2036
   95MOL   H13432282   2.988   3.113   4.391 -0.6116  0.3936 -0.0043
   95MOL   H13532283   2.840   3.280   4.306  0.6574 -1.1798  2.7544
   95MOL   H13632284   2.713   3.253   4.104  1.2385  0.4262 -0.9666
   95MOL   H13732285   2.728   3.040   3.977 -1.5275  1.6247 -0.0581
   95MOL   C13832286   2.615   2.746   4.090 -0.1033  0.7640 -0.0646
   95MOL   C13932287   2.620   2.621   4.180  0.0848 -0.6415  0.6715
   95MOL   C14032288   2.607   2.482   4.116  0.2048 -0.0733  0.2386
   95MOL   C14132289   2.726   2.438   4.052  0.1775  0.1379 -0.3261
   95MOL   C14232290   2.716   2.306   4.006 -0.5699  0.5457 -0.1803
   95MOL   C14332291   2.605   2.217   4.032 -0.5450  0.0261 -0.2676
   95MOL   C14432292   2.498   2.263   4.116 -0.8888 -0.4334  0.1675
   95MOL   C14532293   2.499   2.397   4.149  0.1096 -0.3453  0.1819
   95MOL   O14632294   2.734   2.638   4.268  0.1429 -0.0724  0.4331
   95MOL   H14732295   2.522   2.740   4.033 -0.3504 -0.6458  0.4648
   95MOL   H14832296   2.601   2.836   4.150  0.2253  1.3967 -0.9156
   95MOL   H14932297   2.533   2.644   4.242 -0.0785  0.3273  0.1082
   95MOL   H15032298   2.812   2.501   4.033 -0.4587  2.0146  2.6119
   95MOL   H15132299   2.798   2.266   3.949 -1.9886 -0.4761 -1.5181
   95MOL   H15232300   2.611   2.114   4.000  2.2801 -0.1631  0.7282
   95MOL   H15332301   2.423   2.195   4.154 -0.1870 -1.2286  0.1235
   95MOL   H15432302   2.411   2.444   4.192  1.0549  0.7531  0.9404
   95MOL   C15532303   2.744   2.542   4.371 -0.0092 -0.0438  0.0518
   95MOL   C15632304   2.706   2.588   4.505  0.3081  0.1856  0.6058
   95MOL   C15732305   2.786   2.715   4.542 -0.0360 -0.0807 -0.2348
   95MOL   C15832306   2.729   2.842   4.543  0.8382 -0.5616  0.9348
   95MOL   C15932307   2.798   2.956   4.575  0.6450  0.7416  0.1778
   95MOL   C16032308   2.934   2.947   4.603  0.4189  0.5397 -0.2562
   95MOL   C16132309   2.997   2.816   4.603  0.0387 -0.2899  0.4687
   95MOL   C16232310   2.920   2.705   4.579 -0.3310 -0.3020 -0.0197
   95MOL   O16332311   2.566   2.614   4.531 -0.0950  0.2269  0.7786
   95MOL   H16432312   2.850   2.523   4.380  0.2111  1.1246 -0.0323
   95MOL   H16532313   2.721   2.439   4.343 -0.5459 -0.7777  3.0907
   95MOL   H16632314   2.729   2.508   4.575  1.0372 -1.5983 -1.6346
   95MOL   H16732315   2.623   2.854   4.527  1.1963  0.1256 -1.1498
   95MOL   H16832316   2.754   3.054   4.583 -0.7789  0.1394 -0.2057
   95MOL   H16932317   2.989   3.039   4.615  0.1294  0.6011  0.6149
   95MOL   H17032318   3.102   2.800   4.621 -0.2115 -1.0249  1.3047
   95MOL   H17132319   2.970   2.609   4.571 -1.4685 -1.0290  1.4304
   95MOL   C17232320   2.476   2.501   4.565 -0.2244  0.2286  0.2561
   95MOL   C17332321   2.481   2.471   4.707  0.2415 -0.4180  0.5031
   95MOL   C17432322   2.478   2.596   4.791  0.5873 -0.3751  0.1378
   95MOL   C17532323   2.590   2.668   4.824 -0.6284 -0.1280 -0.7823
   95MOL   C17632324   2.579   2.795   4.882  0.0888  0.4041 -0.0213
   95MOL   C17732325   2.450   2.839   4.912 -0.2660  0.0859  0.1156
   95MOL   C17832326   2.336   2.773   4.877  0.5659  0.0287  0.6562
   95MOL   C17932327   2.347   2.643   4.815 -0.3828 -0.2454 -0.6018
   95MOL   O18032328   2.590   2.385   4.720 -0.1914 -0.4066  0.0040
   95MOL   H18132329   2.375   2.520   4.529 -0.5315  1.2424  1.6217
   95MOL   H18232330   2.508   2.413   4.510 -1.1551  0.3418 -0.4860
   95MOL   H18332331   2.386   2.418   4.718 -0.5935  0.8692 -0.2490
   95MOL   H18432332   2.682   2.617   4.803 -1.1672 -0.7540 -1.6320
   95MOL   H18532333   2.668   2.848   4.913 -0.3373  0.8458  0.4499
   95MOL   H18632334   2.439   2.932   4.965 -1.8228 -0.7836  1.3679
   95MOL   H18732335   2.238   2.812   4.899  0.8644  0.0484  1.9993
   95MOL   H18832336   2.260   2.589   4.781 -1.4039  1.7168 -1.1751
   95MOL   C18932337   2.579   2.296   4.833  0.1076 -0.0880 -0.3431
   95MOL   C19032338   2.490   2.171   4.807 -0.3522 -0.6050  0.5140
   95MOL   C19132339   2.529   2.110   4.665  0.4662  0.4323 -0.0308
   95MOL   C19232340   2.430   2.114   4.560  0.0590  0.6207  0.2889
   95MOL   C19332341   2.458   2.064   4.431 -0.6629 -0.3289 -0.4689
   95MOL   C19432342   2.593   2.014   4.409  0.2662  0.0351 -0.2112
   95MOL   C19532343   2.686   2.007   4.507 -0.1011 -0.9156 -0.0928
   95MOL   C19632344   2.659   2.059   4.638 -0.1745  0.4446 -0.2933
   95MOL   O19732345   2.354   2.214   4.821 -0.1882  0.8038  0.1186
   95MOL   H19832346   2.680   2.266   4.859  0.1804  0.4720  0.0513
   95MOL   H19932347   2.546   2.357   4.918  1.6439  0.1292  0.1169
   95MOL   H20032348   2.517   2.102   4.887 -2.2715  0.1670  1.8653
   95MOL   H20132349   2.324   2.118   4.583  0.0644 -2.5978  1.1606
   95MOL   H20232350   2.382   2.059   4.355 -2.0245  1.5706  0.7118
   95MOL   H20332351   2.620   1.985   4.309 -2.3059 -1.8923 -0.4273
   95MOL   H20432352   2.787   1.983   4.477  0.2851  1.4377 -0.8057
   95MOL   H20532353   2.723   2.031   4.721 -0.4180 -1.7221 -0.8051
   95MOL   C20632354   2.267   2.113   4.864 -0.6628 -0.1734 -0.3152
   95MOL   C20732355   2.122   2.173   4.883 -0.1993 -0.5427  0.9937
   95MOL   C20832356   2.101   2.292   4.975  0.1135 -0.1458  0.1353
   95MOL   C20932357   1.978   2.355   4.979 -0.3672 -0.3710  0.2898
   95MOL   C21032358   1.959   2.480   5.052 -0.1274  0.2459  0.5550
   95MOL   C21132359   2.079   2.539   5.098 -0.3820 -0.0726  0.5990
   95MOL   C21232360   2.206   2.480   5.092  0.3595  0.4856 -0.5265
   95MOL   C21332361   2.211   2.354   5.032  0.5951 -0.5857  0.2686
   95MOL   O21432362   2.015   2.083   4.892 -0.3119  0.1384 -0.4913
   95MOL   H21532363   2.254   2.031   4.793 -0.1289 -0.4538 -0.0927
   95MOL   H21632364   2.306   2.067   4.955  0.0228  1.0041  0.0052
   95MOL   H21732365   2.109   2.218   4.784  1.0594 -1.0469  0.5839
   95MOL   H21832366   1.893   2.305   4.935 -1.3856  0.9247  0.7577
   95MOL   H21932367   1.859   2.520   5.057  0.1202  1.4439 -2.4812
   95MOL   H22032368   2.064   2.632   5.150 -3.6180  0.3366 -0.9657
   95MOL   H22132369   2.299   2.528   5.120  1.6275 -2.2173  0.0974
   95MOL   H22232370   2.309   2.308   5.032 -0.3344 -2.6070  0.1372
   95MOL   C22332371   1.995   2.012   5.017  0.1036 -0.5206  0.0283
   95MOL   C22432372   1.876   1.912   5.013 -0.5015 -0.1264 -0.3180
   95MOL   C22532373   1.734   1.964   4.971 -0.3486 -0.2872 -0.2628
   95MOL   C22632374   1.618   1.895   5.021 -0.5548  0.4556 -0.3272
   95MOL   C22732375   1.493   1.958   5.006 -0.7001 -0.5642  0.2091
   95MOL   C22832376   1.477   2.074   4.921 -0.9106 -0.0722 -0.5386
   95MOL   C22932377   1.593   2.137   4.874 -0.5102  0.1515  0.1994
   95MOL   C23032378   1.720   2.081   4.891 -0.2012 -0.3552 -0.2396
   95MOL   O23132379   1.919   1.808   4.928  0.1352  0.1909  0.3663
   95MOL   H23232380   2.086   1.959   5.045  1.0262  1.1905  0.3370
   95MOL   H23332381   1.981   2.078   5.103 -0.6703 -2.0321  1.0839
   95MOL   H23432382   1.873   1.888   5.119 -0.8950  0.3962 -0.2112
   95MOL   H23532383   1.635   1.807   5.081 -1.4495 -0.2022 -1.0328
   95MOL   H23632384   1.409   1.905   5.049 -0.5844 -0.0378  1.0896
   95MOL   H23732385   1.381   2.118   4.898 -1.2248 -1.5801 -2.2377
   95MOL   H23832386   1.581   2.229   4.819  1.5418  0.6752  0.5652
   95MOL   H23932387   1.804   2.119   4.836 -0.3089  0.2530  0.0132
   95MOL   C24032388   1.964   1.700   5.001 -0.0848 -0.0458  0.5079
   95MOL   C24132389   2.028   1.598   4.902 -0.1146  0.9791 -0.5431
   95MOL   C24232390   2.163   1.654   4.857 -0.8820 -0.5515 -0.0749
   95MOL   C24332391   2.261   1.689   4.951 -0.5421  0.0312 -0.3670
   95MOL   C24432392   2.387   1.741   4.918  0.6659 -0.0412 -0.1617
   95MOL   C24532393   2.401   1.778   4.783 -0.0116  0.2242  1.0756
   95MOL   C24632394   2.299   1.759   4.689 -0.5104 -0.2915  0.5696
   95MOL   C24732395   2.177   1.704   4.725  0.4902  0.1153  0.0570
   95MOL   O24832396   2.039   1.478   4.966 -0.1933 -0.0553  0.8603
   95MOL   H24932397   2.039   1.728   5.076  0.0563 -0.1546  0.4069
   95MOL   H25032398   1.877   1.659   5.053 -0.2972 -1.1724 -0.7251
   95MOL   H25132399   1.966   1.596   4.812 -0.1872 -0.5236 -0.4694
   95MOL   H25232400   2.241   1.648   5.049 -1.0035  2.0637  0.4164
   95MOL   H25332401   2.466   1.760   4.989 -1.2069  0.5133  1.8148
   95MOL   H25432402   2.492   1.831   4.759  0.2733  0.4137  2.5236
   95MOL   H25532403   2.315   1.795   4.589  2.8823  1.0678  1.5184
   95MOL   H25632404   2.092   1.693   4.661  0.5351 -1.6537  0.2734
   95MOL   C25732405   2.070   1.366   4.882  1.1134  0.1563  0.3024
   95MOL   C25832406   2.085   1.234   4.962  0.2888 -0.3700 -0.3548
   95MOL   C25932407   2.139   1.122   4.885  0.2218  0.1177  0.6940
   95MOL   C26032408   2.277   1.098   4.880 -0.1073  0.9234 -0.3404
   95MOL   C26132409   2.338   1.015   4.789  0.8777  0.4217  0.3067
   95MOL   C26232410   2.251   0.940   4.711  0.5895  0.4693 -0.1480
   95MOL   C26332411   2.115   0.967   4.699  0.1553 -0.3835  0.8019
   95MOL   C26432412   2.053   1.055   4.793 -0.4078  0.4879  0.1831
   95MOL   O26532413   1.954   1.211   5.022  0.0240  0.3891 -0.2107
   95MOL   H26632414   2.161   1.375   4.824 -0.7661 -0.6541 -2.9097
   95MOL   H26732415   1.998   1.352   4.801  0.7397 -0.0164  0.6588
   95MOL   H26832416   2.151   1.264   5.044  0.3423 -0.7039 -0.2733
   95MOL   H26932417   2.337   1.159   4.946 -0.3887  1.3611 -0.4934
   95MOL   H27032418   2.442   0.986   4.789  0.9717  0.7307 -0.8089
   95MOL   H27132419   2.300   0.875   4.640  0.9249  0.3067  0.2299
   95MOL   H27232420   2.057   0.914   4.625  1.4578  0.1086 -0.6051
   95MOL   H27332421   1.946   1.069   4.798 -0.5395 -0.6166  0.6728
   95MOL   C27432422   1.969   1.138   5.141 -0.7473 -0.8114  0.4721
   95MOL   C27532423   1.843   1.069   5.200  0.1495  0.2616 -0.4603
   95MOL   C27632424   1.875   1.017   5.341 -0.6022 -0.0871 -0.3396
   95MOL   C27732425   1.804   1.065   5.450  0.2725  0.4378  0.8779
   95MOL   C27832426   1.823   1.016   5.581  0.9927 -1.1464 -0.3358
   95MOL   C27932427   1.933   0.928   5.609  0.2076 -0.2962 -0.3599
   95MOL   C28032428   2.013   0.891   5.504 -0.1609  0.5648  0.5946
   95MOL   C28132429   1.991   0.933   5.368 -0.1340  0.2976 -0.4355
   95MOL   O28232430   1.811   0.959   5.117  0.2134  0.8091  0.2648
   95MOL   H28332431   2.047   1.065   5.126 -0.4211 -0.7057  1.5666
   95MOL   H28432432   1.993   1.218   5.211 -0.2240  1.4632 -2.2474
   95MOL   H28532433   1.759   1.137   5.209 -0.2776 -0.6568  3.4393
   95MOL   H28632434   1.729   1.135   5.417 -0.4200 -0.4255  0.6024
   95MOL   H28732435   1.778   1.065   5.666 -0.0675 -0.2125 -1.4285
   95MOL   H28832436   1.961   0.909   5.712  1.6893 -0.6947 -0.8221
   95MOL   H28932437   2.100   0.834   5.533  0.3027  1.8226  1.7028
   95MOL   H29032438   2.059   0.909   5.289 -0.0284 -0.7653 -0.0260
   95MOL   C29132439   1.693   0.889   5.138  0.0668  0.1694  0.1748
   95MOL   C29232440   1.562   0.965   5.104  0.7339  0.0021 -0.3483
   95MOL   C29332441   1.443   0.869   5.087 -0.8123 -0.0908  0.0371
   95MOL   C29432442   1.410   0.822   4.955  0.3075 -0.0626 -0.0864
   95MOL   C29532443   1.306   0.733   4.938  0.7686  0.0352  0.3570
   95MOL   C29632444   1.221   0.689   5.048  0.5642  0.9096  0.3248
   95MOL   C29732445   1.256   0.738   5.174  0.4839  0.4728  0.1785
   95MOL   C29832446   1.371   0.817   5.201 -0.5540 -0.0972  0.2257
   95MOL   O29932447   1.525   1.061   5.210  0.2697  0.1393 -0.2019
   95MOL   H30032448   1.691   0.863   5.244  0.7122  1.6185  0.5523
   95MOL   H30132449   1.691   0.795   5.083 -3.3822 -0.9034  1.9832
   95MOL   H30232450   1.579   1.023   5.013  0.8965 -0.2026 -0.4479
   95MOL   H30332451   1.470   0.843   4.868  2.2415  2.3346  1.7758
   95MOL   H30432452   1.270   0.706   4.840  1.2832  0.5529  0.0245
   95MOL   H30532453   1.127   0.638   5.031  1.3796 -0.7770  0.6890
   95MOL   H30632454   1.199   0.714   5.262 -0.9866 -1.0125 -1.1548
   95MOL   H30732455   1.402   0.832   5.303  0.9157 -2.6933  0.2214
   95MOL   C30832456   1.491   1.188   5.155  0.4634  0.6994 -0.0595
   95MOL   C30932457   1.426   1.273   5.259 -0.1105 -0.3462 -0.5774
   95MOL   C31032458   1.317   1.206   5.340  0.0910  0.6495  0.4727
   95MOL   C31132459   1.197   1.162   5.284 -0.0702 -0.1364  0.2101
   95MOL   C31232460   1.099   1.098   5.361 -0.0844  0.9960  0.0582
   95MOL   C31332461   1.119   1.084   5.502 -0.4100  0.2515  0.3272
   95MOL   C31432462   1.233   1.137   5.565  0.5317 -0.1437  0.0114
   95MOL   C31532463   1.330   1.189   5.480  0.1199 -0.6824  0.2154
   95MOL   O31632464   1.522   1.326   5.346 -0.1225  0.4228  0.3277
   95MOL   H31732465   1.418   1.180   5.074  0.8448  2.2318 -0.5843
   95MOL   H31832466   1.573   1.239   5.104  0.6578  0.6512  0.2083
   95MOL   H31932467   1.368   1.351   5.210  1.0228  0.4364 -0.6939
   95MOL   H32032468   1.183   1.163   5.177  0.7117  0.2204  0.1082
   95MOL   H32132469   1.006   1.068   5.316  0.4911  0.6891 -0.9480
   95MOL   H32232470   1.041   1.052   5.570 -1.4822 -0.4185 -1.1833
   95MOL   H32332471   1.254   1.139   5.670 -1.7411  1.0023  0.4666
   95MOL   H32432472   1.416   1.240   5.521 -0.8022  0.9470  0.1966
   95MOL   C32532473   1.554   1.453   5.297  0.0997  0.2514  0.5947
   95MOL   C32632474   1.645   1.526   5.393 -0.0983  0.6451  0.6601
   95MOL   C32732475   1.789   1.483   5.389  0.0994 -0.6119  0.1850
   95MOL   C32832476   1.840   1.383   5.474  0.2013 -0.5870 -0.3258
   95MOL   C32932477   1.982   1.355   5.477  0.1937  0.7006 -0.3196
   95MOL   C33032478   2.068   1.423   5.393 -0.2402  0.4210  0.2357
   95MOL   C33132479   2.014   1.510   5.299  0.5615  0.0971  0.0313
   95MOL   C33232480   1.878   1.548   5.305 -0.2318  0.3518 -0.5751
   95MOL   O33332481   1.639   1.664   5.371  0.2189  0.2402 -0.5481
   95MOL   H33432482   1.461   1.510   5.304 -0.6024 -0.8523  0.2509
   95MOL   H33532483   1.602   1.447   5.200 -0.5068  1.5841  0.1993
   95MOL   H33632484   1.606   1.502   5.492 -3.4779 -1.0793 -0.9843
   95MOL   H33732485   1.768   1.323   5.528  0.1889  0.0394  0.3584
   95MOL   H33832486   2.017   1.283   5.549 -0.3091 -0.2819 -1.0563
   95MOL   H33932487   2.175   1.420   5.404 -0.2707  3.4242  1.9013
   95MOL   H34032488   2.078   1.565   5.231 -0.1652 -0.7926 -1.3877
   95MOL   H34132489   1.837   1.622   5.238  0.0880 -0.2781 -1.4839
   95MOL   H34232490   1.665   1.711   5.449 -0.4244 -0.4304  0.0634
   96MOL     C132491   6.551   0.897   4.883  0.1549 -0.3042  0.1318
   96MOL     C232492   6.689   0.935   4.837  0.2535  0.2649  0.6231
   96MOL     C332493   6.710   0.916   4.687  0.6081  0.6312 -0.1704
   96MOL     C432494   6.718   0.783   4.633 -0.2170 -0.1607 -0.7880
   96MOL     C532495   6.744   0.762   4.492  0.0931  1.0857 -0.2253
   96MOL     C632496   6.766   0.876   4.406  0.9289 -0.4209  0.5336
   96MOL     C732497   6.768   1.001   4.471  0.8624  0.0351 -0.4214
   96MOL     C832498   6.728   1.028   4.601  0.2867  0.7206 -0.0767
   96MOL     O932499   6.778   0.851   4.906 -0.3263 -0.0029  0.5590
   96MOL    H1032500   6.533   0.790   4.876 -1.5141 -0.1838  2.0812
   96MOL    H1132501   6.556   0.932   4.986 -2.2306 -0.3565  0.2905
   96MOL    H1232502   6.702   1.038   4.872 -0.7732 -0.1783  2.4025
   96MOL    H1332503   6.711   0.699   4.700  0.1924  0.4313  0.0042
   96MOL    H1432504   6.747   0.659   4.460  1.4832  1.6309 -1.9424
   96MOL    H1532505   6.805   0.867   4.306 -0.8832  0.8881 -0.3386
   96MOL    H1632506   6.767   1.091   4.412 -5.2717  0.6136  0.2988
   96MOL    H1732507   6.733   1.131   4.633  2.2331  0.4946  0.3916
   96MOL    H1832508   6.466   0.948   4.836  1.6380  2.5381  0.4139
   96MOL    C1932509   6.913   0.893   4.903  0.3412 -0.1940  0.2148
   96MOL    C2032510   6.955   0.958   5.031 -0.3639 -0.1094  0.1923
   96MOL    C2132511   6.874   1.078   5.068  0.4977  0.8219  0.4728
   96MOL    C2232512   6.922   1.208   5.035 -0.3811  0.1849 -0.9183
   96MOL    C2332513   6.846   1.323   5.075 -0.5524  0.4675 -0.1969
   96MOL    C2432514   6.735   1.307   5.154 -0.7999  0.5481  0.1652
   96MOL    C2532515   6.682   1.176   5.182  0.6498  0.4922 -0.4597
   96MOL    C2632516   6.754   1.059   5.146  0.2246  0.0743  0.3600
   96MOL    O2732517   7.096   0.984   5.035  0.0426  0.0593 -0.0472
   96MOL    H2832518   6.972   0.802   4.898 -0.5675 -0.7955  0.3561
   96MOL    H2932519   6.944   0.948   4.813 -0.2296  1.7895  1.1969
   96MOL    H3032520   6.929   0.879   5.102  1.7499 -0.2531  0.8522
   96MOL    H3132521   7.020   1.218   4.991 -0.0041 -0.7147 -0.3084
   96MOL    H3232522   6.882   1.424   5.063  1.5476 -0.2364  0.0312
   96MOL    H3332523   6.685   1.394   5.196 -0.9675 -0.2467  1.6391
   96MOL    H3432524   6.588   1.172   5.235  0.0314  1.3844 -1.4615
   96MOL    H3532525   6.714   0.964   5.176 -0.8547  0.1550 -0.7848
   96MOL    C3632526   7.157   0.963   5.162  0.3932  0.1719 -0.0229
   96MOL    C3732527   7.307   1.007   5.152 -0.0050 -0.6802  0.2875
   96MOL    C3832528   7.325   1.153   5.111  0.0010  0.5728 -0.2185
   96MOL    C3932529   7.306   1.246   5.210 -0.2502 -0.5461 -0.4024
   96MOL    C4032530   7.319   1.379   5.189 -0.3778 -0.4397 -0.2020
   96MOL    C4132531   7.371   1.426   5.071  0.2331  0.9810  0.7221
   96MOL    C4232532   7.386   1.333   4.966 -0.5235  0.2994  0.4770
   96MOL    C4332533   7.351   1.193   4.978  0.1859  0.9116 -0.1195
   96MOL    O4432534   7.381   0.914   5.082 -0.6224 -0.0422 -0.2328
   96MOL    H4532535   7.107   1.029   5.234 -0.2585  1.9374 -2.0535
   96MOL    H4632536   7.136   0.865   5.205 -0.6856  1.0888  1.6363
   96MOL    H4732537   7.345   1.004   5.255  0.5420 -1.6209  0.0697
   96MOL    H4832538   7.268   1.219   5.308 -1.2026 -2.1624 -1.2025
   96MOL    H4932539   7.295   1.443   5.272 -0.7160 -0.3202 -0.3872
   96MOL    H5032540   7.384   1.533   5.057 -0.2421  0.9974  0.3644
   96MOL    H5132541   7.433   1.371   4.876 -0.1220 -0.1546  0.4903
   96MOL    H5232542   7.358   1.112   4.906 -1.0331 -0.1369  0.9186
   96MOL    C5332543   7.518   0.926   5.087 -0.5070 -0.7844 -0.0211
   96MOL    C5432544   7.598   0.812   5.028  0.0884 -0.1981  0.0777
   96MOL    C5532545   7.579   0.667   5.091 -0.6550  0.2097 -0.1927
   96MOL    C5632546   7.641   0.643   5.217 -0.5337 -0.9568  0.0171
   96MOL    C5732547   7.636   0.520   5.276 -0.4565  0.7836  0.2352
   96MOL    C5832548   7.559   0.415   5.216  0.3687 -0.2745 -0.2080
   96MOL    C5932549   7.500   0.432   5.086 -0.5828  0.4079 -0.1780
   96MOL    C6032550   7.525   0.555   5.025  0.3353 -0.2304  0.1180
   96MOL    O6132551   7.564   0.815   4.893  0.0736 -0.1334 -0.4188
   96MOL    H6232552   7.543   1.012   5.026 -0.2189 -1.2148 -0.5151
   96MOL    H6332553   7.555   0.940   5.188 -2.0113 -0.3081  0.4794
   96MOL    H6432554   7.704   0.836   5.040  0.7244 -1.9321 -1.7619
   96MOL    H6532555   7.692   0.724   5.268 -0.5307 -0.5251 -0.6576
   96MOL    H6632556   7.685   0.496   5.369  1.1474 -1.7852 -1.2175
   96MOL    H6732557   7.550   0.324   5.274  5.5090 -0.5607  0.3819
   96MOL    H6832558   7.452   0.353   5.031 -0.7546  0.9375 -0.8021
   96MOL    H6932559   7.509   0.565   4.918 -1.0621  0.7261  0.4096
   96MOL    C7032560   7.668   0.783   4.803  0.4405  0.1649 -0.1218
   96MOL    C7132561   7.763   0.903   4.786  1.0658 -0.2728  0.1877
   96MOL    C7232562   7.702   1.013   4.700  0.3986 -0.3449  0.3358
   96MOL    C7332563   7.662   0.990   4.566  0.4886  0.0179 -0.6065
   96MOL    C7432564   7.612   1.100   4.494  0.4188  0.8585  0.2697
   96MOL    C7532565   7.603   1.223   4.547  0.0086  0.4531 -0.1256
   96MOL    C7632566   7.628   1.245   4.683 -0.5592  0.6673 -0.4701
   96MOL    C7732567   7.678   1.139   4.758 -0.3536 -0.4319 -0.0745
   96MOL    O7832568   7.886   0.851   4.744 -0.2545 -0.1736 -0.0760
   96MOL    H7932569   7.726   0.699   4.840 -0.0803 -0.3402 -0.4498
   96MOL    H8032570   7.622   0.749   4.710  0.0075 -0.6618  0.3863
   96MOL    H8132571   7.782   0.944   4.885 -1.9753  1.4410  0.0995
   96MOL    H8232572   7.675   0.899   4.510 -0.6343  0.0979 -1.0045
   96MOL    H8332573   7.568   1.086   4.397 -0.6187 -0.2261  0.8816
   96MOL    H8432574   7.565   1.307   4.491 -2.2459 -0.1306  0.4918
   96MOL    H8532575   7.603   1.334   4.739  2.3514  0.0966  1.9167
   96MOL    H8632576   7.691   1.154   4.864 -1.3782  0.4543 -0.0658
   96MOL    C8732577   7.995   0.940   4.720 -0.1209  0.4798  0.2089
   96MOL    C8832578   0.013   0.905   4.607  0.1434  0.3125  0.7674
   96MOL    C8932579   8.026   0.849   4.477  0.8954 -0.3078  0.3413
   96MOL    C9032580   7.964   0.722   4.477 -0.0719 -0.0936  0.3145
   96MOL    C9132581   7.911   0.670   4.358 -1.1686 -0.1217  0.2581
   96MOL    C9232582   7.913   0.755   4.240 -0.1146 -0.1433 -0.3762
   96MOL    C9332583   7.980   0.877   4.241 -0.1890 -0.4346 -0.3562
   96MOL    C9432584   8.041   0.924   4.358 -0.2069  0.0187  0.4124
   96MOL    O9532585   0.121   0.832   4.664 -0.1386 -0.0209  0.2644
   96MOL    H9632586   8.052   0.956   4.812 -0.6265  2.0282  0.2622
   96MOL    H9732587   7.954   1.034   4.683 -1.4220  0.1909  0.8681
   96MOL    H9832588   0.057   1.000   4.578  0.8438  0.2174  1.4895
   96MOL    H9932589   7.961   0.676   4.575  0.9076  2.8648  1.7828
   96MOL   H10032590   7.840   0.588   4.362 -3.1706  1.5234 -0.2709
   96MOL   H10132591   7.862   0.723   4.151 -2.1658 -1.3222  1.1813
   96MOL   H10232592   8.000   0.931   4.150 -0.0557  0.9222  0.4519
   96MOL   H10332593   0.020   1.014   4.351  0.1626 -0.2196  0.4275
   96MOL   C10432594   0.236   0.843   4.582 -0.0571  0.4454 -0.2051
   96MOL   C10532595   0.363   0.909   4.661 -0.1437 -0.0318 -0.4446
   96MOL   C10632596   0.499   0.873   4.599  1.0811 -0.4329  0.3136
   96MOL   C10732597   0.581   0.963   4.525  0.1701 -1.3285 -0.2085
   96MOL   C10832598   0.694   0.918   4.462 -0.9670 -0.0105  0.4971
   96MOL   C10932599   0.731   0.781   4.467 -0.2009 -0.1839 -0.0392
   96MOL   C11032600   0.658   0.695   4.549  0.6527 -0.1637  0.5764
   96MOL   C11132601   0.536   0.732   4.609 -0.0079  0.2169 -1.2916
   96MOL   O11232602   0.344   1.046   4.675 -0.2769  0.2747 -0.0773
   96MOL   H11332603   0.260   0.737   4.584 -1.5409  0.1135  0.4074
   96MOL   H11432604   0.220   0.868   4.477  0.5525  0.8522 -0.2067
   96MOL   H11532605   0.379   0.858   4.756 -0.2516  0.1323 -0.3402
   96MOL   H11632606   0.554   1.067   4.510  0.7457 -0.8635  1.7421
   96MOL   H11732607   0.744   0.999   4.410 -0.6919 -0.0127  0.7613
   96MOL   H11832608   0.825   0.754   4.422 -0.2886  1.1009 -1.0370
   96MOL   H11932609   0.695   0.595   4.564 -1.0448 -1.0984 -1.1848
   96MOL   H12032610   0.472   0.659   4.656  1.8610  0.9773  2.6349
   96MOL   C12132611   0.271   1.089   4.784 -0.9474  0.5746 -0.0185
   96MOL   C12232612   0.354   1.119   4.915 -0.2376  0.8660 -0.1410
   96MOL   C12332613   0.490   1.204   4.883  0.1248  0.2703 -0.0225
   96MOL   C12432614   0.605   1.144   4.834  0.1445  0.3511  0.6596
   96MOL   C12532615   0.715   1.224   4.794  1.0395  0.9936 -0.4896
   96MOL   C12632616   0.714   1.359   4.816  0.4803 -0.0878  0.2879
   96MOL   C12732617   0.594   1.422   4.854 -0.0626 -0.0559  0.8828
   96MOL   C12832618   0.481   1.343   4.891  0.1642 -0.2095  0.7009
   96MOL   O12932619   0.268   1.188   5.005  0.4389 -0.4972  0.2095
   96MOL   H13032620   0.190   1.022   4.812  1.1316 -1.7244  0.7366
   96MOL   H13132621   0.241   1.191   4.760 -1.8908  0.6375  1.3961
   96MOL   H13232622   0.386   1.020   4.947  1.7197  1.1202 -1.2411
   96MOL   H13332623   0.602   1.036   4.827 -2.1672  0.4959 -1.1028
   96MOL   H13432624   0.799   1.173   4.750 -2.3972 -1.9418 -3.9903
   96MOL   H13532625   0.805   1.414   4.797 -0.5984  1.6365  0.0324
   96MOL   H13632626   0.587   1.529   4.868 -1.9996  0.3826 -2.7698
   96MOL   H13732627   0.389   1.386   4.928  1.6802  1.5175  2.6343
   96MOL   C13832628   0.323   1.185   5.141  0.4918 -0.1851 -0.1836
   96MOL   C13932629   0.199   1.213   5.232 -0.0479 -0.1749 -0.2871
   96MOL   C14032630   0.128   1.342   5.200 -0.5000  0.2175  0.5951
   96MOL   C14132631   0.047   1.366   5.089  0.2038  0.6473 -0.7447
   96MOL   C14232632   8.067   1.486   5.057 -0.4606  0.3937 -0.1370
   96MOL   C14332633   0.024   1.594   5.135  0.1573  0.2676 -0.3532
   96MOL   C14432634   0.106   1.585   5.248 -0.0801  0.2728  0.0385
   96MOL   C14532635   0.152   1.452   5.286 -0.0358 -0.0914  0.2875
   96MOL   O14632636   0.115   1.096   5.224  0.3296  0.3078  0.3994
   96MOL   H14732637   0.400   1.262   5.140  0.6435 -0.2379  2.8558
   96MOL   H14832638   0.376   1.092   5.158  1.4663  0.2323 -0.8816
   96MOL   H14932639   0.223   1.216   5.339  0.0657  1.6216 -0.3408
   96MOL   H15032640   0.030   1.286   5.019  0.2808 -0.6245  0.6674
   96MOL   H15132641   8.018   1.485   4.961 -0.0840  0.8243 -0.3287
   96MOL   H15232642   8.070   1.694   5.110 -2.5480 -0.3704  0.7045
   96MOL   H15332643   0.122   1.665   5.319 -2.9640  0.4525  0.5776
   96MOL   H15432644   0.218   1.435   5.371 -1.1744  1.1827  1.4524
   96MOL   C15532645   0.043   1.075   5.346 -0.3677 -0.0171  0.4032
   96MOL   C15632646   7.992   0.996   5.319 -0.3012  0.9918  0.1025
   96MOL   C15732647   8.022   0.854   5.259 -0.0102 -0.5965 -0.0547
   96MOL   C15832648   8.019   0.742   5.340 -0.0401 -0.3969  0.5869
   96MOL   C15932649   8.045   0.613   5.288  0.5648  0.5858  0.5255
   96MOL   C16032650   8.034   0.598   5.146  0.1868  0.2253 -0.1703
   96MOL   C16132651   8.029   0.710   5.064  0.5428  0.5332 -0.0641
   96MOL   C16232652   8.035   0.835   5.115 -0.0395  0.5812  0.4865
   96MOL   O16332653   7.904   0.995   5.437  0.4336  0.1737 -0.2194
   96MOL   H16432654   0.020   1.169   5.397 -2.3331 -1.0219  1.4196
   96MOL   H16532655   0.101   1.013   5.414 -0.2419 -0.7495 -0.3612
   96MOL   H16632656   7.933   1.045   5.241  0.2294 -1.0086 -1.6085
   96MOL   H16732657   8.021   0.757   5.447 -1.5498  0.6970  0.4782
   96MOL   H16832658   8.041   0.522   5.347  0.2398 -2.2669 -3.5932
   96MOL   H16932659   8.044   0.496   5.113 -0.1048  0.4795 -1.0268
   96MOL   H17032660   8.041   0.698   4.957 -1.3189 -0.7619 -0.1469
   96MOL   H17132661   8.030   0.927   5.060 -1.2488 -0.2491 -0.8396
   96MOL   C17232662   7.767   0.960   5.408 -0.1109  0.2224 -0.6559
   96MOL   C17332663   7.678   1.082   5.448 -0.1932  0.1017 -0.0300
   96MOL   C17432664   7.718   1.215   5.390 -0.0836  0.0601 -0.6204
   96MOL   C17532665   7.827   1.289   5.452 -0.3670  0.5178  0.8199
   96MOL   C17632666   7.867   1.411   5.386 -0.7113  0.5251 -0.0282
   96MOL   C17732667   7.794   1.465   5.279  0.4083 -0.0542  0.0314
   96MOL   C17832668   7.687   1.393   5.223 -0.1134 -0.1211  0.5801
   96MOL   C17932669   7.651   1.268   5.278  0.4430 -0.0613 -0.3592
   96MOL   O18032670   7.677   1.085   5.589 -0.2330  0.2499  0.1148
   96MOL   H18132671   7.748   0.931   5.305 -1.0738  0.7138 -0.6174
   96MOL   H18232672   7.743   0.871   5.466  1.8024 -0.4938 -0.9031
   96MOL   H18332673   7.579   1.049   5.415  1.0576 -2.9620 -0.8950
   96MOL   H18432674   7.864   1.258   5.549  1.0803 -2.0742 -0.5247
   96MOL   H18532675   7.950   1.470   5.423 -0.8659  0.0392  1.1212
   96MOL   H18632676   7.815   1.566   5.248 -2.2798  0.6655  0.3503
   96MOL   H18732677   7.635   1.428   5.135 -1.6515 -2.2532  0.6187
   96MOL   H18832678   7.566   1.213   5.242 -1.0858  0.3584  2.4471
   96MOL   C18932679   7.585   1.171   5.660 -0.0003 -0.0955 -0.4109
   96MOL   C19032680   7.442   1.115   5.640 -1.0735  0.1051 -0.3151
   96MOL   C19132681   7.340   1.187   5.725  0.4010  1.4679  0.4681
   96MOL   C19232682   7.257   1.283   5.664  0.4713  0.0057  0.1855
   96MOL   C19332683   7.164   1.364   5.726 -0.0722  0.1532 -0.0617
   96MOL   C19432684   7.152   1.345   5.864 -0.3512 -0.1025 -0.7625
   96MOL   C19532685   7.225   1.246   5.932 -0.5514  0.1869  0.0172
   96MOL   C19632686   7.323   1.168   5.864  0.1600 -0.1745  0.8259
   96MOL   O19732687   7.442   0.979   5.664 -0.0481 -0.2701  1.1385
   96MOL   H19832688   7.612   1.178   5.766  2.0706 -1.4172 -0.8412
   96MOL   H19932689   7.587   1.266   5.607 -1.8900 -1.0318 -2.2307
   96MOL   H20032690   7.413   1.140   5.538 -1.0681 -1.1270 -0.6222
   96MOL   H20132691   7.278   1.298   5.559  0.7114 -0.4315  0.1697
   96MOL   H20232692   7.120   1.453   5.683  1.3166  1.2179  0.6916
   96MOL   H20332693   7.101   1.422   5.919 -3.1334 -0.9244 -2.1258
   96MOL   H20432694   7.217   1.235   6.040 -0.3699  0.2246  0.0341
   96MOL   H20532695   7.382   1.099   5.922 -0.7897 -0.7214  1.1544
   96MOL   C20632696   7.330   0.901   5.625 -0.6082  0.5367  0.0363
   96MOL   C20732697   7.366   0.772   5.555 -0.1422  0.8303  0.8989
   96MOL   C20832698   7.259   0.722   5.462 -0.0381  0.7807  0.7113
   96MOL   C20932699   7.129   0.690   5.512  0.6456  0.2422  0.3168
   96MOL   C21032700   7.035   0.610   5.440 -1.5118  0.1207  0.7076
   96MOL   C21132701   7.064   0.572   5.305 -0.2985 -0.4317  0.0250
   96MOL   C21232702   7.185   0.616   5.255  0.2831  0.4501 -0.1206
   96MOL   C21332703   7.282   0.688   5.323 -0.0653 -0.0678  0.1590
   96MOL   O21432704   7.411   0.676   5.651 -0.5713  0.0056  0.0570
   96MOL   H21532705   7.263   0.884   5.709 -0.1872  0.3162  0.3263
   96MOL   H21632706   7.265   0.950   5.553  0.1797  1.6999  0.1049
   96MOL   H21732707   7.452   0.794   5.492  0.0388  2.1735  1.5955
   96MOL   H21832708   7.103   0.722   5.612 -0.0243  0.9894 -0.0940
   96MOL   H21932709   6.932   0.594   5.467 -1.0873 -1.8792  1.2386
   96MOL   H22032710   6.993   0.508   5.254  0.6339  0.2047 -2.1423
   96MOL   H22132711   7.211   0.606   5.150  2.8554 -0.2211  0.5542
   96MOL   H22232712   7.380   0.703   5.281  0.0824 -0.6735  0.2704
   96MOL   C22332713   7.451   0.549   5.603 -0.3315 -0.0924  0.3116
   96MOL   C22432714   7.520   0.462   5.710  0.1237  0.2238  0.6443
   96MOL   C22532715   7.413   0.397   5.788  0.3369 -0.0637  0.2843
   96MOL   C22632716   7.315   0.305   5.738 -0.2287  0.5930  0.6165
   96MOL   C22732717   7.240   0.229   5.833 -0.1296 -0.1564 -0.8104
   96MOL   C22832718   7.234   0.270   5.969 -0.2665  0.6774  0.7580
   96MOL   C22932719   7.317   0.372   6.015  0.9110  0.5038  0.0598
   96MOL   C23032720   7.411   0.425   5.923 -0.4506  0.5568 -0.0242
   96MOL   O23132721   7.604   0.364   5.644  0.0547 -0.0165  0.0427
   96MOL   H23232722   7.374   0.485   5.561 -0.2826 -1.1752  1.8001
   96MOL   H23332723   7.528   0.570   5.529 -0.0905 -0.0881  0.5598
   96MOL   H23432724   7.581   0.525   5.775  0.8766  0.6327 -0.4400
   96MOL   H23532725   7.325   0.271   5.635  0.1580 -1.8375  1.4163
   96MOL   H23632726   7.175   0.148   5.803  1.2932 -1.6954  0.1364
   96MOL   H23732727   7.172   0.220   6.042 -0.4636  0.5004  0.4684
   96MOL   H23832728   7.310   0.399   6.119 -1.4014 -0.6207  0.2191
   96MOL   H23932729   7.476   0.503   5.959 -1.1391  0.5443  1.2621
   96MOL   C24032730   7.702   0.292   5.720 -0.1834 -0.0909 -0.1109
   96MOL   C24132731   7.731   0.156   5.664 -0.4022 -0.0265 -0.3427
   96MOL   C24232732   7.858   0.148   5.580  0.0991 -0.2416  0.8508
   96MOL   C24332733   7.978   0.172   5.649 -0.1685 -0.7224  0.4909
   96MOL   C24432734   0.020   0.165   5.578  0.6465 -0.2592  0.3353
   96MOL   C24532735   0.022   0.141   5.435 -0.7646  0.4473 -0.5099
   96MOL   C24632736   7.981   0.123   5.367 -0.1162 -0.1572 -0.0470
   96MOL   C24732737   7.855   0.131   5.439 -0.1165  0.4797  0.5431
   96MOL   O24832738   7.737   0.049   5.758 -0.1385 -0.0933 -0.1972
   96MOL   H24932739   7.790   0.355   5.729 -2.0011  2.5406 -0.3263
   96MOL   H25032740   7.661   0.276   5.820 -1.4552  1.8423 -0.2929
   96MOL   H25132741   7.648   0.145   5.595 -1.3333  1.9464  0.4378
   96MOL   H25232742   7.984   0.184   5.757  1.1520  1.0830  0.2342
   96MOL   H25332743   0.114   0.186   5.628  1.7696  0.0577 -1.8364
   96MOL   H25432744   0.117   0.136   5.384 -0.4056 -0.8882  0.2720
   96MOL   H25532745   7.982   0.107   5.260  1.1573 -0.5307  0.0104
   96MOL   H25632746   7.762   0.129   5.385 -0.1779  3.1941  0.4967
   96MOL   C25732747   7.627   8.045   5.767  0.3167 -0.5460  0.5336
   96MOL   C25832748   7.611   7.955   5.645  0.4729 -0.4432  0.7112
   96MOL   C25932749   7.462   7.934   5.618 -0.6957  0.0747 -0.1579
   96MOL   C26032750   7.410   7.806   5.626  0.3774  0.8234  0.5656
   96MOL   C26132751   7.274   7.783   5.608 -0.4666  0.4925 -0.2335
   96MOL   C26232752   7.183   7.888   5.580  0.0779  0.2414 -0.1722
   96MOL   C26332753   7.242   8.015   5.575  0.4452 -0.0570 -0.0360
   96MOL   C26432754   7.379   8.039   5.592 -0.2659 -0.3803 -0.1899
   96MOL   O26532755   7.688   7.837   5.669 -0.2854 -0.3646 -0.4205
   96MOL   H26632756   7.546   0.036   5.782 -0.3906 -1.2204  0.0038
   96MOL   H26732757   7.634   7.983   5.856  2.2376 -1.5365 -0.2796
   96MOL   H26832758   7.636   8.011   5.555  0.7607 -1.3701  0.2196
   96MOL   H26932759   7.474   7.720   5.636  0.0966  0.6755  1.1248
   96MOL   H27032760   7.239   7.681   5.618  2.2557 -0.4430  0.3161
   96MOL   H27132761   7.076   7.874   5.586 -0.1043  1.5152 -0.2420
   96MOL   H27232762   7.168   0.014   5.567 -1.8143 -1.9454  1.4850
   96MOL   H27332763   7.417   0.060   5.597  1.5420 -1.0355 -0.4755
   96MOL   C27432764   7.820   7.855   5.614 -0.2394  0.1310 -0.0429
   96MOL   C27532765   7.904   7.727   5.630  0.2839 -0.4720  0.7899
   96MOL   C27632766   8.052   7.755   5.590 -0.7759  0.3907  0.1357
   96MOL   C27732767   0.014   7.872   5.512 -1.1243 -0.7318  0.1786
   96MOL   C27832768   0.153   7.900   5.497 -0.0441 -0.5504 -1.0169
   96MOL   C27932769   0.250   7.814   5.551 -0.5563 -0.3229 -0.0676
   96MOL   C28032770   0.208   7.698   5.621 -0.8105  0.2986 -0.0352
   96MOL   C28132771   0.070   7.668   5.643 -0.0601  0.3028  0.3612
   96MOL   O28232772   7.844   7.626   5.546  0.1856 -0.5469 -0.3016
   96MOL   H28332773   7.820   7.895   5.513  0.2683  1.2988  0.4170
   96MOL   H28432774   7.866   7.938   5.668  3.3411 -2.5248  1.2709
   96MOL   H28532775   7.917   7.708   5.737  2.3199 -1.3883  0.4110
   96MOL   H28632776   8.022   7.941   5.469  0.0021  0.0475 -0.4625
   96MOL   H28732777   0.196   7.988   5.451 -0.6871  0.2803 -0.0642
   96MOL   H28832778   0.353   7.843   5.537 -0.3974  0.4430  2.4804
   96MOL   H28932779   0.283   7.634   5.666 -0.2082 -0.0348 -1.4903
   96MOL   H29032780   0.037   7.584   5.702 -0.9403  0.5903  0.2875
   96MOL   C29132781   7.749   7.536   5.600  0.5797 -0.1558  0.0324
   96MOL   C29232782   7.802   7.414   5.682  0.3177  0.7526 -0.0083
   96MOL   C29332783   7.866   7.312   5.590 -0.3581  0.0887 -0.2845
   96MOL   C29432784   8.003   7.328   5.561  0.7610 -0.3347  0.3170
   96MOL   C29532785   8.061   7.236   5.472 -0.0597 -0.0025  0.6842
   96MOL   C29632786   7.999   7.119   5.424  0.4373 -0.1238 -0.0197
   96MOL   C29732787   7.863   7.105   5.458  0.2886  0.7537 -0.3414
   96MOL   C29832788   7.792   7.209   5.526 -0.1917 -0.4209 -0.3854
   96MOL   O29932789   7.875   7.462   5.793  0.1347 -0.0308  0.3142
   96MOL   H30032790   7.687   7.494   5.520 -0.5646 -1.6255  1.6400
   96MOL   H30132791   7.685   7.598   5.663 -0.8564 -0.3060 -1.2445
   96MOL   H30232792   7.710   7.368   5.717  0.8870 -1.4381 -1.2933
   96MOL   H30332793   8.067   7.408   5.594  1.1297 -0.5125  0.0335
   96MOL   H30432794   0.085   7.247   5.444 -0.1711 -0.7796 -0.0388
   96MOL   H30532795   8.047   7.043   5.364  0.0558  1.1883 -2.0105
   96MOL   H30632796   7.809   7.020   5.419  2.0771 -0.8826  0.6779
   96MOL   H30732797   7.688   7.197   5.551  0.0902 -0.0359  1.0116
   96MOL   C30832798   7.884   7.362   5.893 -0.0051  0.7107  0.2369
   96MOL   C30932799   7.945   7.436   6.016 -0.1849  0.8403 -0.3219
   96MOL   C31032800   7.956   7.334   6.130  0.0409 -0.7725 -0.1026
   96MOL   C31132801   8.041   7.220   6.126  0.3711 -0.0388 -0.4723
   96MOL   C31232802   8.058   7.147   6.248 -0.4346  0.1280 -0.2037
   96MOL   C31332803   7.987   7.185   6.363 -0.2612 -0.1581 -0.0373
   96MOL   C31432804   7.888   7.283   6.360 -0.2943 -0.0714  0.5035
   96MOL   C31532805   7.872   7.360   6.241 -0.0389  0.9567  0.1976
   96MOL   O31632806   8.075   7.490   5.989  0.2772  0.3509  0.3575
   96MOL   H31732807   7.961   7.294   5.856 -1.7864 -0.9442 -0.5079
   96MOL   H31832808   7.801   7.294   5.914 -0.2664  0.7737 -0.5857
   96MOL   H31932809   7.876   7.513   6.050 -1.1145 -0.1216  0.0220
   96MOL   H32032810   0.017   7.194   6.037  1.3966 -0.7171  0.3619
   96MOL   H32132811   0.053   7.070   6.253  0.6053  1.2562  2.5186
   96MOL   H32232812   8.004   7.123   6.450  1.9202  0.9120  0.3388
   96MOL   H32332813   7.829   7.299   6.449  1.1280  1.9022  1.1245
   96MOL   H32432814   7.798   7.439   6.239  0.1450  1.1560 -4.2069
   96MOL   C32532815   0.051   7.555   6.102 -0.6358 -0.2409 -0.1753
   96MOL   C32632816   0.142   7.674   6.054  0.5558 -0.5569 -0.6507
   96MOL   C32732817   0.051   7.794   6.019  0.2643  0.1828  0.0872
   96MOL   C32832818   8.043   7.831   6.122 -0.2597 -0.3571 -0.2294
   96MOL   C32932819   7.961   7.940   6.102 -0.1896  0.3186  0.0033
   96MOL   C33032820   7.964   8.009   5.979  0.4185  0.3091 -0.1472
   96MOL   C33132821   8.048   7.971   5.879 -0.5460  0.0130  0.0607
   96MOL   C33232822   0.053   7.863   5.897  0.1443 -0.4678  1.3391
   96MOL   O33332823   0.225   7.702   6.161  0.3606  0.0941  0.6391
   96MOL   H33432824   0.113   7.474   6.139 -1.4266 -0.8103 -0.0810
   96MOL   H33532825   8.059   7.573   6.182 -0.2601 -1.3702  0.4298
   96MOL   H33632826   0.209   7.654   5.970  0.6711 -1.3719 -0.3669
   96MOL   H33732827   8.039   7.783   6.219 -1.1243 -2.2789 -1.1990
   96MOL   H33832828   7.904   7.980   6.185 -0.1663 -0.2374  0.2832
   96MOL   H33932829   7.921   0.027   5.967  1.5318  0.5771 -2.0546
   96MOL   H34032830   8.058   8.021   5.783 -2.9833 -0.3881 -0.4194
   96MOL   H34132831   0.127   7.844   5.821 -1.2303 -1.7191  0.2963
   96MOL   H34232832   0.164   7.718   6.231  0.5006 -3.7471  1.7374
   97MOL     C132833   1.471   0.142   5.359 -0.1857 -0.4716 -0.3309
   97MOL     C232834   1.492   0.008   5.422  0.0290  0.5817 -0.4910
   97MOL     C332835   1.493   0.016   5.574  0.3450  0.3665  0.5945
   97MOL     C432836   1.607   8.036   5.638 -0.0554  0.4301  0.2237
   97MOL     C532837   1.627   8.043   5.778 -0.2949  0.2413 -0.5357
   97MOL     C632838   1.522   0.015   5.859 -0.1514 -0.2671 -0.5115
   97MOL     C732839   1.402   0.057   5.800 -0.0879  0.1144  0.1999
   97MOL     C832840   1.386   0.063   5.658 -0.0190  0.2322  0.0424
   97MOL     O932841   1.613   8.036   5.375  0.3163 -0.4824  0.1250
   97MOL    H1032842   1.537   0.220   5.396  0.1921 -0.8932 -0.1234
   97MOL    H1132843   1.473   0.141   5.250 -1.2077  1.2175 -0.3850
   97MOL    H1232844   1.412   8.019   5.394  1.3419 -1.5085  0.7127
   97MOL    H1332845   1.683   7.995   5.574 -2.3656 -1.4502 -1.4156
   97MOL    H1432846   1.724   8.014   5.817 -0.9349  0.8967  1.6253
   97MOL    H1532847   1.524   0.023   5.967  0.8541 -0.0597 -0.5372
   97MOL    H1632848   1.315   0.081   5.861 -1.4590 -2.1394 -0.7870
   97MOL    H1732849   1.293   0.096   5.615  0.3592  2.3544  0.7741
   97MOL    H1832850   1.370   0.178   5.383 -1.2770 -2.6759 -1.4473
   97MOL    C1932851   1.607   7.979   5.240  0.0795  0.6943 -0.1360
   97MOL    C2032852   1.752   7.972   5.199 -0.2816 -0.6787 -1.5603
   97MOL    C2132853   1.844   7.884   5.285  0.8897 -0.0167 -0.8215
   97MOL    C2232854   1.804   7.812   5.401  0.2672 -0.7198  0.2944
   97MOL    C2332855   1.895   7.730   5.461 -0.3131  0.3532  0.2890
   97MOL    C2432856   2.027   7.716   5.412  0.2144  0.8997  0.4263
   97MOL    C2532857   2.074   7.797   5.303 -1.0042  0.6728 -0.4960
   97MOL    C2632858   1.984   7.883   5.240 -0.1685  0.2525  0.2374
   97MOL    O2732859   1.807   0.023   5.164  0.0746 -0.2840 -0.1994
   97MOL    H2832860   1.567   7.879   5.257 -0.5501  0.7589 -1.1898
   97MOL    H2932861   1.539   8.035   5.176 -1.8716 -1.0541  0.3829
   97MOL    H3032862   1.740   7.921   5.103 -1.1209 -0.3892 -1.6076
   97MOL    H3132863   1.707   7.820   5.449  0.1025  1.9815 -0.4368
   97MOL    H3232864   1.845   7.672   5.538  3.5270 -1.5045  1.5379
   97MOL    H3332865   2.099   7.647   5.454  2.3250  1.6392 -1.8259
   97MOL    H3432866   2.178   7.797   5.276 -0.6501  0.0629  0.8394
   97MOL    H3532867   2.016   7.951   5.162 -1.5674 -0.0043 -0.5833
   97MOL    C3632868   1.847   0.100   5.280 -0.1414  0.5246 -0.2417
   97MOL    C3732869   1.993   0.152   5.260 -0.3818 -0.4342  0.2756
   97MOL    C3832870   2.032   0.238   5.385 -0.1415 -0.0610 -0.0881
   97MOL    C3932871   1.980   0.368   5.404 -0.0667  0.2132 -0.5130
   97MOL    C4032872   2.019   0.446   5.520  0.3013  0.3857  0.4674
   97MOL    C4132873   2.111   0.389   5.614  0.7269 -0.2743 -0.0399
   97MOL    C4232874   2.159   0.262   5.587 -0.0181  0.4051 -0.2018
   97MOL    C4332875   2.125   0.186   5.472  0.2964 -0.2067 -0.2944
   97MOL    O4432876   2.013   0.237   5.150 -0.4063 -0.0145  0.3003
   97MOL    H4532877   1.773   0.180   5.282 -0.9842 -0.1142 -3.0779
   97MOL    H4632878   1.843   0.048   5.375 -0.3841  0.2460 -0.4034
   97MOL    H4732879   2.067   0.072   5.268  0.2260  0.2553  1.7897
   97MOL    H4832880   1.908   0.409   5.335 -1.0692 -2.8769 -1.3726
   97MOL    H4932881   1.973   0.540   5.545  1.8238  0.7556  1.9560
   97MOL    H5032882   2.144   0.440   5.703  0.2911 -1.1087  0.6087
   97MOL    H5132883   2.237   0.223   5.651  1.7153  2.1612 -1.1986
   97MOL    H5232884   2.157   0.085   5.453  1.5344  0.3493 -1.2747
   97MOL    C5332885   2.043   0.158   5.035 -0.4077 -0.3588 -0.7049
   97MOL    C5432886   2.132   0.236   4.940 -0.1253 -0.6415  0.7496
   97MOL    C5532887   2.078   0.365   4.884  0.0783  0.3363 -0.5454
   97MOL    C5632888   2.061   0.475   4.973  0.0481  0.3277  0.5034
   97MOL    C5732889   2.031   0.600   4.917 -0.1351 -0.3394  0.0259
   97MOL    C5832890   1.988   0.616   4.785 -0.7609  0.3660  0.5561
   97MOL    C5932891   1.990   0.495   4.705  0.5982 -0.0635  0.5535
   97MOL    C6032892   2.036   0.371   4.747 -0.4079 -0.0533  0.1588
   97MOL    O6132893   2.260   0.255   4.996 -0.0963  0.3752  0.4043
   97MOL    H6232894   2.098   0.068   5.063  0.6981  0.3176 -0.7163
   97MOL    H6332895   1.948   0.138   4.984 -0.1460  0.1797 -1.4171
   97MOL    H6432896   2.152   0.171   4.855 -0.2791 -0.2821  0.4401
   97MOL    H6532897   2.079   0.468   5.080  0.7677 -3.8968  0.1900
   97MOL    H6632898   2.031   0.686   4.984 -2.6231 -1.6418  1.7768
   97MOL    H6732899   1.962   0.713   4.745 -2.9267  0.2071  1.4713
   97MOL    H6832900   1.967   0.512   4.601 -1.2582 -0.7085  0.8513
   97MOL    H6932901   2.055   0.288   4.681  0.0271  0.1258  0.0517
   97MOL    C7032902   2.377   0.274   4.908  0.8918 -0.4162 -0.0619
   97MOL    C7132903   2.501   0.234   4.996  0.1100  0.1506 -0.0033
   97MOL    C7232904   2.490   0.088   5.052 -0.0180  0.3748 -0.6729
   97MOL    C7332905   2.582   0.061   5.157  0.6204 -0.7330 -0.0938
   97MOL    C7432906   2.582   8.019   5.229  0.1308 -0.2171 -0.7490
   97MOL    C7532907   2.489   7.921   5.187  0.3423 -0.6403 -0.7584
   97MOL    C7632908   2.398   7.939   5.085 -0.5595 -0.5595  0.4866
   97MOL    C7732909   2.403   8.061   5.016  0.2455 -0.0524 -0.1477
   97MOL    O7832910   2.533   0.330   5.095  0.5678 -0.5250 -0.4836
   97MOL    H7932911   2.374   0.212   4.818 -1.2491 -0.4013 -0.0317
   97MOL    H8032912   2.379   0.379   4.879  1.1720 -0.4524 -0.1763
   97MOL    H8132913   2.588   0.235   4.930 -0.2341  3.2405 -0.4630
   97MOL    H8232914   2.647   0.144   5.181  0.6697 -0.2153 -1.9448
   97MOL    H8332915   2.654   7.996   5.306  0.4677  1.2524 -0.6130
   97MOL    H8432916   2.483   7.829   5.245 -2.4069  0.4354  0.7634
   97MOL    H8532917   2.338   7.859   5.045 -0.2154  1.1200 -3.6192
   97MOL    H8632918   2.347   0.001   4.926  1.8519 -1.0943 -1.4227
   97MOL    C8732919   2.423   0.363   5.192 -0.2960 -0.0023  0.3866
   97MOL    C8832920   2.472   0.458   5.303  0.5508 -0.4023 -0.5064
   97MOL    C8932921   2.514   0.597   5.249 -0.2714  0.1540 -0.4260
   97MOL    C9032922   2.422   0.670   5.176 -0.0046  0.5643  0.2397
   97MOL    C9132923   2.454   0.801   5.136 -0.2914 -0.3862  0.4671
   97MOL    C9232924   2.578   0.856   5.171 -0.5350 -0.0453  0.6807
   97MOL    C9332925   2.675   0.781   5.232 -0.6761 -0.9581  0.2274
   97MOL    C9432926   2.646   0.650   5.268 -0.5032 -0.2925 -0.3403
   97MOL    O9532927   2.580   0.398   5.370  0.0801  0.2503  0.1773
   97MOL    H9632928   2.391   0.267   5.233 -0.0875 -0.6870 -1.0220
   97MOL    H9732929   2.348   0.423   5.141 -0.4148  0.1667  0.7561
   97MOL    H9832930   2.376   0.479   5.350  0.7327  0.1936 -0.4034
   97MOL    H9932931   2.320   0.635   5.176  0.2880 -0.4007  2.8832
   97MOL   H10032932   2.372   0.865   5.106 -0.0178  1.1334  2.8171
   97MOL   H10132933   2.588   0.955   5.130  0.4231 -0.0309  0.9292
   97MOL   H10232934   2.776   0.809   5.258 -1.3219 -0.2286  2.0330
   97MOL   H10332935   2.715   0.584   5.319 -0.2521  0.3673  0.1686
   97MOL   C10432936   2.541   0.298   5.473 -0.7488 -0.1188  0.4009
   97MOL   C10532937   2.663   0.230   5.541  0.3796  0.8327  0.0023
   97MOL   C10632938   2.742   0.331   5.627 -0.1773  0.4915 -0.2868
   97MOL   C10732939   2.855   0.391   5.573  0.4703  0.4441  0.2808
   97MOL   C10832940   2.951   0.448   5.652  0.0901 -0.4128 -0.2022
   97MOL   C10932941   2.931   0.451   5.789 -0.1778  0.2423 -0.0946
   97MOL   C11032942   2.817   0.390   5.849 -0.0836 -0.0259  0.4121
   97MOL   C11132943   2.712   0.344   5.764  0.0773  0.2606  0.1531
   97MOL   O11232944   2.632   0.110   5.607  0.0649 -0.3785 -0.1546
   97MOL   H11332945   2.472   0.352   5.538  1.0633 -0.2348  2.4854
   97MOL   H11432946   2.476   0.226   5.423  0.8908 -1.8751  0.7336
   97MOL   H11532947   2.719   0.187   5.458  0.3515 -2.5998  1.6854
   97MOL   H11632948   2.883   0.387   5.469 -0.3094  0.9385  0.0511
   97MOL   H11732949   3.041   0.488   5.606  0.5582 -0.1330  0.9312
   97MOL   H11832950   3.004   0.488   5.859  0.0014 -0.2044 -0.0417
   97MOL   H11932951   2.800   0.380   5.955 -1.9254  0.8064  0.2258
   97MOL   H12032952   2.626   0.294   5.805 -0.0054 -0.4459 -0.8715
   97MOL   C12132953   2.740   0.015   5.610 -0.4288 -0.1249  0.2608
   97MOL   C12232954   2.688   7.967   5.681  0.1231  0.2649  0.3217
   97MOL   C12332955   2.602   7.877   5.591  0.1567  0.2520  0.6004
   97MOL   C12432956   2.654   7.757   5.533 -0.5094  0.5082  0.4560
   97MOL   C12532957   2.567   7.666   5.474 -0.0282 -0.5663  0.0674
   97MOL   C12632958   2.430   7.700   5.452 -0.4075 -0.9751  0.1863
   97MOL   C12732959   2.379   7.819   5.508  0.2277  0.5437  0.0377
   97MOL   C12832960   2.470   7.908   5.575  0.2051 -0.2139  0.0389
   97MOL   O12932961   2.797   7.899   5.737 -0.1547 -0.1040 -0.0088
   97MOL   H13032962   2.819   0.057   5.671  3.5891 -0.6951 -4.3037
   97MOL   H13132963   2.782   8.066   5.513  0.1470  2.2275 -0.2117
   97MOL   H13232964   2.637   7.991   5.774  2.1563  1.6671  1.0983
   97MOL   H13332965   2.757   7.730   5.547 -0.3627 -0.0992 -1.6063
   97MOL   H13432966   2.601   7.570   5.436  1.4789 -0.9726  2.3423
   97MOL   H13532967   2.366   7.636   5.393 -0.3866  0.6158 -1.5942
   97MOL   H13632968   2.277   7.847   5.485  0.1669 -0.8596 -1.4781
   97MOL   H13732969   2.435   7.999   5.621  0.6352  0.1462 -0.3357
   97MOL   C13832970   2.774   7.797   5.841  0.4820  0.4764  0.2773
   97MOL   C13932971   2.896   7.714   5.877 -0.6700  0.4754  0.2680
   97MOL   C14032972   2.935   7.622   5.764  0.0804  0.3087 -0.6329
   97MOL   C14132973   2.835   7.533   5.739  0.6895 -0.7978 -0.0676
   97MOL   C14232974   2.844   7.453   5.623 -0.4545  0.1107  0.5084
   97MOL   C14332975   2.956   7.474   5.533 -0.3617  0.2362  0.3984
   97MOL   C14432976   3.055   7.570   5.564  0.1498  0.2404  0.1511
   97MOL   C14532977   3.051   7.636   5.688 -0.1375  0.6298  0.6795
   97MOL   O14632978   3.001   7.801   5.910  0.7795 -0.0341  0.3651
   97MOL   H14732979   2.689   7.737   5.807  0.6068  0.4289  0.0531
   97MOL   H14832980   2.746   7.841   5.937  1.2989  0.1165  0.6756
   97MOL   H14932981   2.874   7.651   5.963  0.8189 -0.0085  0.3135
   97MOL   H15032982   2.752   7.517   5.806 -0.9383  0.3179 -1.7715
   97MOL   H15132983   2.759   7.390   5.598  1.0999 -1.9240  0.2228
   97MOL   H15232984   2.957   7.421   5.439 -1.4084 -0.4313  0.7589
   97MOL   H15332985   3.137   7.595   5.499  0.1105  1.7571  0.6507
   97MOL   H15432986   3.131   7.699   5.724  0.5612  0.3935 -0.4141
   97MOL   C15532987   3.080   7.768   6.027 -0.0012 -0.9557  0.6796
   97MOL   C15632988   3.211   7.844   6.006  0.1521  0.0286 -0.3434
   97MOL   C15732989   3.192   7.996   5.977  0.0845 -0.1977  0.3778
   97MOL   C15832990   3.214   0.016   6.080  0.2769 -0.2142  0.4795
   97MOL   C15932991   3.187   0.154   6.049 -0.3309 -0.0984 -0.4581
   97MOL   C16032992   3.156   0.194   5.915  0.8125  0.7812 -0.6788
   97MOL   C16132993   3.129   0.097   5.813  0.8232  0.3295  0.5066
   97MOL   C16232994   3.158   8.042   5.843  0.2298 -0.7703  0.6758
   97MOL   O16332995   3.297   7.814   6.106 -0.6052 -0.9261  0.7241
   97MOL   H16432996   3.100   7.661   6.027 -0.8103 -1.1143  1.2555
   97MOL   H16532997   3.032   7.794   6.122  0.9507 -1.7667  1.3900
   97MOL   H16632998   3.256   7.799   5.918  1.0711  1.5784 -0.6746
   97MOL   H16732999   3.252   8.065   6.176 -0.8827 -2.4069  0.2535
   97MOL   H16833000   3.219   0.235   6.112 -1.3322  2.7521 -3.4909
   97MOL   H16933001   3.139   0.296   5.885 -1.5608  0.9887  1.1838
   97MOL   H17033002   3.096   0.115   5.712 -1.2279 -2.3963  0.6268
   97MOL   H17133003   3.156   7.967   5.765  1.0438 -1.2509  1.1021
   97MOL   C17233004   3.358   7.686   6.096 -0.3177  0.8222  1.1302
   97MOL   C17333005   3.462   7.651   6.204  0.0419  0.0857 -0.0748
   97MOL   C17433006   3.410   7.686   6.342  0.5064  0.0307  0.6919
   97MOL   C17533007   3.311   7.605   6.407  0.6247 -0.1266 -0.2528
   97MOL   C17633008   3.261   7.624   6.536 -0.2089  0.2132  0.1590
   97MOL   C17733009   3.310   7.735   6.603 -0.2171  0.3919 -0.1870
   97MOL   C17833010   3.405   7.821   6.546  1.3260  0.1293 -0.1656
   97MOL   C17933011   3.455   7.802   6.423  0.2651  0.1089  0.5543
   97MOL   O18033012   3.585   7.718   6.176  0.0813  0.0646 -0.2377
   97MOL   H18133013   3.278   7.615   6.116  0.2788 -0.9779 -2.5275
   97MOL   H18233014   3.400   7.671   5.997 -2.4751 -0.1598  0.3486
   97MOL   H18333015   3.485   7.545   6.201  2.6964  0.5531  1.7615
   97MOL   H18433016   3.285   7.519   6.348 -1.4663  0.9181 -0.9347
   97MOL   H18533017   3.187   7.553   6.570  1.9135 -1.8968  0.5348
   97MOL   H18633018   3.273   7.757   6.702 -0.4856  0.8081 -0.3808
   97MOL   H18733019   3.426   7.913   6.598 -0.7686  0.8441 -0.5365
   97MOL   H18833020   3.529   7.869   6.381  0.1530 -0.3460 -0.3792
   97MOL   C18933021   3.667   7.677   6.063 -0.2308 -0.6043 -0.7133
   97MOL   C19033022   3.676   7.789   5.966 -0.3611  0.2845 -0.1489
   97MOL   C19133023   3.689   7.920   6.031  0.4979  0.1929 -0.2127
   97MOL   C19233024   3.585   8.010   6.043 -0.7437 -0.4449  0.1399
   97MOL   C19333025   3.596   0.056   6.102  0.2027  0.4220 -0.0558
   97MOL   C19433026   3.730   0.101   6.129 -0.3757  0.2727  0.7210
   97MOL   C19533027   3.831   0.010   6.126 -0.6537 -0.3694 -0.3229
   97MOL   C19633028   3.813   7.956   6.085 -0.3954 -0.0045  0.5052
   97MOL   O19733029   3.563   7.788   5.877  0.5167  0.0787  0.1444
   97MOL   H19833030   3.769   7.660   6.097  0.1396  0.6475 -1.1751
   97MOL   H19933031   3.646   7.580   6.017 -1.7775 -1.2462  1.2687
   97MOL   H20033032   3.773   7.770   5.919 -0.5452  1.3034 -0.9535
   97MOL   H20133033   3.486   7.970   6.022 -1.0485  0.6049 -0.4521
   97MOL   H20233034   3.503   0.111   6.102 -0.7777 -1.1752 -2.1008
   97MOL   H20333035   3.759   0.196   6.170  1.9560 -0.5334  1.0620
   97MOL   H20433036   3.931   0.043   6.147 -0.0465 -1.5377 -1.3315
   97MOL   H20533037   3.893   7.884   6.099 -2.6155 -2.4383  1.0772
   97MOL   C20633038   3.590   7.703   5.767  0.5957  0.2809  0.2337
   97MOL   C20733039   3.482   7.698   5.655 -0.0653  0.7926  0.5745
   97MOL   C20833040   3.480   7.558   5.587  0.3912 -0.4284  0.4535
   97MOL   C20933041   3.444   7.443   5.668 -0.5926  0.4259 -0.5499
   97MOL   C21033042   3.439   7.315   5.607 -0.4734 -0.1884  0.1831
   97MOL   C21133043   3.464   7.298   5.473  0.3201  0.0813  0.3489
   97MOL   C21233044   3.489   7.408   5.392  0.1430  0.3388 -0.0201
   97MOL   C21333045   3.498   7.536   5.449 -0.6339 -0.4259 -0.3702
   97MOL   O21433046   3.504   7.802   5.556  0.3892  0.6164 -0.8105
   97MOL   H21533047   3.681   7.738   5.718  0.7595 -0.6017 -0.1114
   97MOL   H21633048   3.603   7.606   5.813 -1.8598 -1.0794 -1.8001
   97MOL   H21733049   3.389   7.722   5.705  0.5346  0.0958  2.0605
   97MOL   H21833050   3.428   7.449   5.775 -1.4715  0.0476 -0.6479
   97MOL   H21933051   3.427   7.226   5.667  2.6691 -0.2887  0.7294
   97MOL   H22033052   3.470   7.198   5.433  3.7372  0.8859 -1.3752
   97MOL   H22133053   3.502   7.392   5.286  0.8433  3.1869 -0.4305
   97MOL   H22233054   3.523   7.621   5.387  2.5632 -1.3012 -0.3602
   97MOL   C22333055   3.478   7.930   5.605  0.4664  0.2471  0.1805
   97MOL   C22433056   3.536   8.038   5.520  0.3476 -0.7409  0.0526
   97MOL   C22533057   3.499   0.090   5.576  0.5361  0.4536 -0.5813
   97MOL   C22633058   3.399   0.167   5.514  0.7250 -0.5703  0.1759
   97MOL   C22733059   3.356   0.287   5.570  0.6455  0.2379 -0.4962
   97MOL   C22833060   3.420   0.333   5.690  0.3414 -0.3331 -0.3835
   97MOL   C22933061   3.520   0.251   5.744  0.4725 -0.0920 -0.3451
   97MOL   C23033062   3.562   0.133   5.697 -0.1091 -0.4578 -0.6508
   97MOL   O23133063   3.674   8.023   5.508 -0.3269  0.2730  0.1230
   97MOL   H23233064   3.370   7.939   5.614  0.5359 -0.7985  2.4191
   97MOL   H23333065   3.529   7.940   5.701  1.4520  2.2174 -0.5120
   97MOL   H23433066   3.495   8.033   5.420 -1.5545  1.0308  0.7144
   97MOL   H23533067   3.360   0.125   5.422  0.6568  1.0370 -0.5394
   97MOL   H23633068   3.295   0.355   5.512  1.8138  0.6268 -1.2942
   97MOL   H23733069   3.388   0.426   5.734  0.7636  0.8943 -2.5851
   97MOL   H23833070   3.575   0.285   5.830  2.1517  0.7743 -1.7101
   97MOL   H23933071   3.643   0.076   5.738 -0.7780 -1.6083 -0.9059
   97MOL   C24033072   3.746   0.038   5.429 -0.9504  0.1169  0.7369
   97MOL   C24133073   3.748   0.006   5.275  0.0641  0.3444 -0.3341
   97MOL   C24233074   3.816   7.955   5.246 -0.1815 -0.6185  0.3476
   97MOL   C24333075   3.953   7.940   5.208  0.3532 -0.0968 -0.6579
   97MOL   C24433076   4.000   7.826   5.139  0.5697  0.0320 -0.1736
   97MOL   C24533077   3.923   7.709   5.137  0.0613 -0.4644  0.6800
   97MOL   C24633078   3.788   7.720   5.185  0.2652 -0.2799 -0.6284
   97MOL   C24733079   3.735   7.838   5.234 -0.3677  0.2983 -0.3518
   97MOL   O24833080   3.618   0.025   5.235  0.0039  0.3207 -0.6934
   97MOL   H24933081   3.701   0.137   5.441 -1.9540 -0.1314 -0.8856
   97MOL   H25033082   3.845   0.057   5.471  0.9778 -1.0241 -3.0656
   97MOL   H25133083   3.814   0.076   5.225 -1.0937  0.9913 -0.9768
   97MOL   H25233084   4.014   8.027   5.222 -0.4710  0.7874 -2.4120
   97MOL   H25333085   4.102   7.823   5.103  0.1167 -1.8581 -1.3831
   97MOL   H25433086   3.957   7.624   5.080  1.0030  1.1604 -1.2544
   97MOL   H25533087   3.716   7.642   5.163 -0.0943  0.2471 -1.3558
   97MOL   H25633088   3.633   7.848   5.268  0.0129 -0.5742  1.0908
   97MOL   C25733089   3.602   0.048   5.095 -0.1960  0.4419  0.5531
   97MOL   C25833090   3.463   8.075   5.041  0.0380  0.2145  0.6644
   97MOL   C25933091   3.441   7.929   5.050 -0.0662  0.1431  0.2371
   97MOL   C26033092   3.500   7.836   4.962  0.2649  0.1290  0.3601
   97MOL   C26133093   3.485   7.700   4.992  0.8949 -0.2938  0.2305
   97MOL   C26233094   3.408   7.656   5.110  0.5583 -0.5097 -0.4847
   97MOL   C26333095   3.348   7.751   5.194  0.1269 -0.2769  0.2683
   97MOL   C26433096   3.365   7.888   5.165  0.3999 -0.1027 -0.3134
   97MOL   O26533097   3.456   0.037   4.903 -0.2623  0.0939  0.3568
   97MOL   H26633098   3.683   0.005   5.035 -2.6934  1.1434 -3.5349
   97MOL   H26733099   3.595   0.155   5.076  0.8315  0.2292 -1.2646
   97MOL   H26833100   3.381   0.046   5.092 -1.2355 -1.2919  0.1468
   97MOL   H26933101   3.553   7.863   4.872  0.8353 -1.7384  0.1190
   97MOL   H27033102   3.536   7.627   4.930  2.0324  0.5504  0.1629
   97MOL   H27133103   3.401   7.550   5.132  1.8468 -0.4503  0.2386
   97MOL   H27233104   3.307   7.739   5.293  0.8750  2.9936  1.0303
   97MOL   H27333105   3.331   7.965   5.233 -1.3782 -0.3676 -0.9056
   97MOL   C27433106   3.327   0.057   4.844  0.3800  0.1690 -0.3426
   97MOL   C27533107   3.247   0.181   4.902  0.0123  1.0495 -0.0414
   97MOL   C27633108   3.343   0.288   4.938 -0.4642 -0.1819  0.3813
   97MOL   C27733109   3.464   0.320   4.870 -0.5083  0.1155  0.0078
   97MOL   C27833110   3.535   0.431   4.906 -0.2332 -0.1737 -0.0935
   97MOL   C27933111   3.506   0.510   5.019 -0.0767  0.3741  0.5637
   97MOL   C28033112   3.387   0.486   5.088  0.1450  0.3730 -0.0130
   97MOL   C28133113   3.306   0.377   5.051  0.0103  0.0472  0.1535
   97MOL   O28233114   3.164   0.140   5.010 -0.4375  0.0587  1.2203
   97MOL   H28333115   3.352   0.077   4.740 -2.1244  1.5637 -0.7008
   97MOL   H28433116   3.279   8.039   4.839  0.1552  0.1505  1.7062
   97MOL   H28533117   3.180   0.231   4.832  0.1128 -0.1388 -0.9901
   97MOL   H28633118   3.484   0.254   4.788 -1.4616 -1.4781  1.0220
   97MOL   H28733119   3.622   0.445   4.844 -0.6261 -0.4573 -0.7205
   97MOL   H28833120   3.575   0.590   5.039 -1.0339  0.5662  3.2882
   97MOL   H28933121   3.345   0.546   5.168 -1.8452 -0.9345 -0.0289
   97MOL   H29033122   3.220   0.370   5.116  1.2560  1.4465  2.0450
   97MOL   C29133123   3.047   0.068   4.975 -0.5199  0.1152  0.3283
   97MOL   C29233124   2.941   0.104   5.083  0.6019  0.3400  0.8653
   97MOL   C29333125   2.974   0.036   5.215 -0.0874  0.0545 -0.0200
   97MOL   C29433126   2.935   7.981   5.245  0.5622 -0.5344  0.3614
   97MOL   C29533127   2.969   7.923   5.368  1.1089 -0.3915  0.5344
   97MOL   C29633128   3.039   7.998   5.465  0.2449 -1.0723 -0.4374
   97MOL   C29733129   3.077   0.050   5.439 -0.5117  0.8588 -0.0211
   97MOL   C29833130   3.045   0.109   5.315 -0.0308  0.6074 -0.5151
   97MOL   O29933131   2.925   0.240   5.098 -0.6555 -0.0621  0.7669
   97MOL   H30033132   3.076   8.043   4.979  2.9849  1.0483  3.6318
   97MOL   H30133133   3.007   0.101   4.879 -0.5463  2.8976  1.2243
   97MOL   H30233134   2.841   0.073   5.050 -0.1922  3.3671  0.2335
   97MOL   H30333135   2.877   7.936   5.165 -0.3256  2.8389 -0.9946
   97MOL   H30433136   2.948   7.818   5.386 -2.8445 -0.0810 -1.6972
   97MOL   H30533137   3.057   7.959   5.564 -0.3862 -0.9053 -0.2559
   97MOL   H30633138   3.125   0.120   5.506  2.2086 -2.7173  1.9053
   97MOL   H30733139   3.075   0.211   5.295  0.3260  0.6848  0.4083
   97MOL   C30833140   2.910   0.329   4.980  0.2620  0.0069  0.5477
   97MOL   C30933141   2.839   0.459   5.011 -0.3544 -0.7688  0.1795
   97MOL   C31033142   2.923   0.561   5.085  0.2786  0.3187 -0.4138
   97MOL   C31133143   2.953   0.690   5.030 -0.2681  0.6235  0.1430
   97MOL   C31233144   3.040   0.776   5.099  0.2611  0.4760  0.0228
   97MOL   C31333145   3.088   0.741   5.227  0.7539 -0.2683 -0.4414
   97MOL   C31433146   3.057   0.614   5.278 -0.1927 -0.5985 -0.0112
   97MOL   C31533147   2.975   0.526   5.214  0.0636  0.7823  0.8988
   97MOL   O31633148   2.793   0.497   4.880 -0.2086  0.0648  0.0575
   97MOL   H31733149   2.842   0.278   4.912 -1.3429  2.1714  0.4911
   97MOL   H31833150   3.011   0.345   4.943  0.0966 -3.0104 -1.4499
   97MOL   H31933151   2.762   0.439   5.085  0.5979 -1.3808  1.0241
   97MOL   H32033152   2.924   0.700   4.927 -1.6370  0.2354  0.4753
   97MOL   H32133153   3.073   0.869   5.056 -2.2043  1.2069 -0.3197
   97MOL   H32233154   3.152   0.812   5.278  0.8835 -1.3203  0.8811
   97MOL   H32333155   3.095   0.578   5.373 -0.8157 -1.1058  0.0454
   97MOL   H32433156   2.961   0.428   5.256 -0.1540  0.4041 -0.0279
   97MOL   C32533157   2.682   0.587   4.894 -0.1785 -0.7053 -0.2056
   97MOL   C32633158   2.646   0.654   4.758 -0.0115 -0.8531  0.5204
   97MOL   C32733159   2.548   0.575   4.675  0.2430 -0.6194  0.6478
   97MOL   C32833160   2.410   0.605   4.675  0.3239 -0.9218 -0.0351
   97MOL   C32933161   2.319   0.531   4.593  0.4482  0.6984 -0.3212
   97MOL   C33033162   2.367   0.433   4.503 -0.0448 -0.0290  0.1453
   97MOL   C33133163   2.504   0.399   4.505 -0.4211  0.0673  0.1543
   97MOL   C33233164   2.591   0.473   4.589 -0.3679  0.0582  0.2802
   97MOL   O33333165   2.605   0.791   4.773 -0.1648  0.0812 -0.0176
   97MOL   H33433166   2.703   0.669   4.962  2.1718 -1.7992  0.4663
   97MOL   H33533167   2.589   0.551   4.937 -1.2723  3.0308  0.7097
   97MOL   H33633168   2.739   0.664   4.702  0.6330  2.6026  2.0678
   97MOL   H33733169   2.374   0.687   4.735  1.7390 -0.2248 -0.1324
   97MOL   H33833170   2.221   0.574   4.578  0.6029  1.0671 -0.2923
   97MOL   H33933171   2.292   0.386   4.442 -2.0487  1.0306  1.7260
   97MOL   H34033172   2.542   0.319   4.442 -1.2542  1.4397 -2.1680
   97MOL   H34133173   2.696   0.455   4.574 -0.5738 -2.6186  1.7836
   97MOL   H34233174   2.530   0.789   4.830  0.2897  0.2380  0.5902
   98MOL     C133175   3.137   6.226   1.768  0.2383 -0.2964  0.2821
   98MOL     C233176   3.235   6.196   1.650  0.0472  0.3597 -0.7243
   98MOL     C333177   3.298   6.327   1.594 -0.0068  0.0650  0.0997
   98MOL     C433178   3.256   6.380   1.470 -0.3896  0.7844  0.2242
   98MOL     C533179   3.301   6.501   1.419 -0.8153 -0.1942  0.2828
   98MOL     C633180   3.389   6.577   1.501  0.0486  0.7997  0.9284
   98MOL     C733181   3.436   6.520   1.621 -0.5099  0.7170 -0.2634
   98MOL     C833182   3.391   6.395   1.666  0.1592 -0.3143 -0.8254
   98MOL     O933183   3.157   6.131   1.542 -0.2163  0.0681  0.2344
   98MOL    H1033184   3.117   6.131   1.819  0.6116 -0.6178 -0.1706
   98MOL    H1133185   3.183   6.289   1.844  0.0824  0.5647 -0.3359
   98MOL    H1233186   3.323   6.140   1.683 -0.0550  1.1967  1.0372
   98MOL    H1333187   3.197   6.318   1.404  1.5732 -1.5339  0.5755
   98MOL    H1433188   3.260   6.536   1.326 -0.1756 -2.2379 -0.8062
   98MOL    H1533189   3.421   6.675   1.469 -0.5252  0.1376 -1.7996
   98MOL    H1633190   3.514   6.565   1.680  0.7240 -2.2204  0.4599
   98MOL    H1733191   3.421   6.351   1.760  0.0249  0.2850 -0.4971
   98MOL    H1833192   3.047   6.276   1.733  2.0316  0.9587 -2.7520
   98MOL    C1933193   3.158   5.985   1.543  0.1273 -0.3644 -0.1463
   98MOL    C2033194   3.056   5.928   1.443  0.2130  0.6438 -0.1387
   98MOL    C2133195   3.048   5.774   1.450 -0.4081  0.5599  0.1074
   98MOL    C2233196   2.936   5.714   1.509  0.3774  0.3862 -0.6025
   98MOL    C2333197   2.922   5.573   1.528 -0.4194 -0.4461 -0.5509
   98MOL    C2433198   3.036   5.498   1.495  0.1817  0.6737  0.2634
   98MOL    C2533199   3.155   5.555   1.442  0.1163  0.6923  0.2873
   98MOL    C2633200   3.155   5.693   1.415  0.1553 -0.3640 -0.3999
   98MOL    O2733201   3.092   5.965   1.315 -0.1770 -0.1659 -0.0289
   98MOL    H2833202   3.258   5.946   1.524 -0.3177 -0.8013 -1.6226
   98MOL    H2933203   3.145   5.957   1.648 -1.4008 -2.6289 -0.9054
   98MOL    H3033204   2.959   5.973   1.466  0.0060 -0.6759  1.6822
   98MOL    H3133205   2.864   5.790   1.535 -1.3235 -1.4704  0.2723
   98MOL    H3233206   2.828   5.528   1.559 -0.6018 -0.3099 -0.9018
   98MOL    H3333207   3.023   5.391   1.503  2.2134  0.2112 -2.1303
   98MOL    H3433208   3.243   5.500   1.408 -0.1668  0.9243 -0.8557
   98MOL    H3533209   3.235   5.747   1.366  0.2970 -0.6316 -0.4638
   98MOL    C3633210   3.020   6.085   1.271  0.0666 -0.2010 -0.0308
   98MOL    C3733211   2.883   6.048   1.214 -0.2286 -0.3963 -0.0237
   98MOL    C3833212   2.890   5.959   1.086 -0.3559 -0.1834 -0.2581
   98MOL    C3933213   2.914   5.818   1.093  0.2668 -0.5523  0.0727
   98MOL    C4033214   2.933   5.733   0.979  0.0345  0.0375 -0.1110
   98MOL    C4133215   2.921   5.793   0.853  0.5227 -0.2439 -0.1997
   98MOL    C4233216   2.902   5.931   0.848  0.1556 -0.7739 -0.0677
   98MOL    C4333217   2.899   6.021   0.963 -0.0426  0.2745  0.2612
   98MOL    O4433218   2.822   6.173   1.187 -0.1724 -0.0034  0.0683
   98MOL    H4533219   3.022   6.158   1.352  1.4925  0.4633 -0.6456
   98MOL    H4633220   3.073   6.123   1.183 -0.0263  0.7109  0.3065
   98MOL    H4733221   2.826   5.998   1.292 -2.6381  0.9386 -0.8583
   98MOL    H4833222   2.921   5.768   1.188  0.4999  1.7302  1.2879
   98MOL    H4933223   2.957   5.628   0.992  1.5773  0.4149  0.0944
   98MOL    H5033224   2.929   5.741   0.759  3.0657 -1.3754  0.6065
   98MOL    H5133225   2.882   5.975   0.752  0.1349 -0.7766 -0.0647
   98MOL    H5233226   2.925   6.125   0.954  0.1539  0.1347 -0.9594
   98MOL    C5333227   2.679   6.176   1.187  0.0754 -0.5249 -0.6384
   98MOL    C5433228   2.620   6.303   1.151  0.0406 -0.2019 -0.2440
   98MOL    C5533229   2.648   6.336   1.001 -0.4702  0.2248 -0.2192
   98MOL    C5633230   2.776   6.373   0.954 -0.0959  0.2411  0.5860
   98MOL    C5733231   2.794   6.406   0.815 -0.4350  0.3512  0.0004
   98MOL    C5833232   2.685   6.392   0.728  0.3218 -0.2338  0.2601
   98MOL    C5933233   2.565   6.350   0.778 -0.8955  0.5519  0.2792
   98MOL    C6033234   2.545   6.323   0.910 -0.1179 -0.3240  0.0451
   98MOL    O6133235   2.486   6.310   1.187 -0.3904 -0.2341  1.3079
   98MOL    H6233236   2.633   6.104   1.119 -0.3874  0.1652 -1.0689
   98MOL    H6333237   2.631   6.154   1.283  0.4204  2.3079  0.2325
   98MOL    H6433238   2.683   6.368   1.211 -0.1644  1.3782 -1.6893
   98MOL    H6533239   2.867   6.390   1.009 -0.0917 -0.5624  0.8322
   98MOL    H6633240   2.890   6.443   0.785 -0.6905 -0.3098 -1.7038
   98MOL    H6733241   2.698   6.415   0.623 -0.8417  2.1421  0.6121
   98MOL    H6833242   2.483   6.349   0.709  1.7079 -3.1845 -3.0000
   98MOL    H6933243   2.445   6.299   0.943  0.4202  1.4953  3.1474
   98MOL    C7033244   2.436   6.442   1.188 -1.1401 -0.7010  0.3056
   98MOL    C7133245   2.287   6.438   1.163  0.4143 -0.5323  0.4556
   98MOL    C7233246   2.227   6.552   1.080  0.1418  0.2260  0.1455
   98MOL    C7333247   2.125   6.632   1.126  0.5138  0.2820  0.1105
   98MOL    C7433248   2.070   6.738   1.049 -0.2537 -0.3229 -0.0265
   98MOL    C7533249   2.135   6.769   0.924  0.2241  0.0994  0.6980
   98MOL    C7633250   2.238   6.690   0.881  0.3308  0.2691 -0.0824
   98MOL    C7733251   2.282   6.575   0.956 -0.1330 -0.0343  0.1046
   98MOL    O7833252   2.227   6.437   1.298 -0.1458  0.4501  0.6091
   98MOL    H7933253   2.453   6.473   1.291 -1.4698  0.9534 -0.1270
   98MOL    H8033254   2.491   6.511   1.125 -0.4707  0.5122  2.1883
   98MOL    H8133255   2.269   6.349   1.102  0.2704  0.3121 -0.7491
   98MOL    H8233256   2.085   6.612   1.225 -0.5440  0.7681 -0.2098
   98MOL    H8333257   1.987   6.799   1.082 -0.5323 -1.8736  2.2347
   98MOL    H8433258   2.097   6.842   0.854  1.8140 -1.3517 -1.7210
   98MOL    H8533259   2.293   6.715   0.791  0.9644  0.9277  0.4819
   98MOL    H8633260   2.367   6.515   0.927 -0.2529  0.5335 -1.4710
   98MOL    C8733261   2.102   6.368   1.311  0.0467 -0.5557 -0.4014
   98MOL    C8833262   2.133   6.224   1.361  0.3732  0.2871  0.3266
   98MOL    C8933263   2.214   6.233   1.489  0.2346 -0.0989  0.6385
   98MOL    C9033264   2.353   6.207   1.482  1.4506  0.5117 -0.4422
   98MOL    C9133265   2.428   6.212   1.598 -0.2161  0.0084  0.9104
   98MOL    C9233266   2.369   6.245   1.720  0.2313 -0.3519 -0.3375
   98MOL    C9333267   2.232   6.280   1.729  0.4074 -0.5434  0.6702
   98MOL    C9433268   2.155   6.268   1.609  0.5671 -0.0219 -0.3270
   98MOL    O9533269   2.186   6.140   1.255  0.4146 -0.6592 -0.9140
   98MOL    H9633270   2.047   6.360   1.218  0.1525  0.3477 -0.5453
   98MOL    H9733271   2.030   6.413   1.380  0.3604 -1.3968  0.4877
   98MOL    H9833272   2.039   6.183   1.398  0.1379  0.7861  0.2893
   98MOL    H9933273   2.392   6.174   1.386  1.4242 -0.8879  0.0205
   98MOL   H10033274   2.533   6.190   1.583 -0.5874  0.1336 -1.9737
   98MOL   H10133275   2.431   6.243   1.808 -0.4031 -0.0038  0.1242
   98MOL   H10233276   2.192   6.304   1.826  0.9494  1.3867  0.4337
   98MOL   H10333277   2.053   6.304   1.611  1.3106  2.1434  0.1669
   98MOL   C10433278   2.107   6.027   1.225  0.2783  0.1557  0.1547
   98MOL   C10533279   1.973   6.050   1.149 -0.7680 -0.0795 -0.5682
   98MOL   C10633280   1.935   5.923   1.080  0.5425 -0.1478 -0.5008
   98MOL   C10733281   1.890   5.815   1.153  0.7576 -0.0670  0.0583
   98MOL   C10833282   1.845   5.696   1.089  0.1438  0.8484 -0.5408
   98MOL   C10933283   1.853   5.685   0.947 -0.0524  0.2384 -0.7655
   98MOL   C11033284   1.894   5.798   0.872 -0.4153 -0.5264 -0.0195
   98MOL   C11133285   1.934   5.916   0.942  0.0999 -0.5930  0.6217
   98MOL   O11233286   1.872   6.085   1.251 -0.4116  0.6020  0.1092
   98MOL   H11333287   2.175   5.965   1.167  0.5072  0.6871 -0.1458
   98MOL   H11433288   2.090   5.965   1.313  1.6216 -1.2135 -0.5355
   98MOL   H11533289   1.991   6.133   1.081  0.9476 -1.0570 -1.3446
   98MOL   H11633290   1.888   5.825   1.260  1.4698 -1.7112  0.2300
   98MOL   H11733291   1.809   5.616   1.152 -2.0482  1.8262 -0.5097
   98MOL   H11833292   1.815   5.598   0.896  0.8857 -0.6664  0.0431
   98MOL   H11933293   1.902   5.790   0.764  2.7524  0.8655  0.0767
   98MOL   H12033294   1.974   5.995   0.881  0.0551 -0.3670  0.8836
   98MOL   C12133295   1.744   6.121   1.196  0.4034  0.6255  0.0419
   98MOL   C12233296   1.749   6.281   1.185 -0.3863  0.0861  0.6156
   98MOL   C12333297   1.704   6.319   1.043 -1.3248 -0.6824 -0.5098
   98MOL   C12433298   1.794   6.374   0.952  0.5561 -0.7853  0.8615
   98MOL   C12533299   1.746   6.418   0.821 -0.1877  0.2453  0.5147
   98MOL   C12633300   1.613   6.392   0.786 -0.3507 -0.6631  0.1213
   98MOL   C12733301   1.522   6.346   0.879 -0.0955  0.7680 -0.0876
   98MOL   C12833302   1.567   6.313   1.006  0.4547 -0.0512  0.5285
   98MOL   O12933303   1.666   6.331   1.289 -0.1560  0.5127 -0.5227
   98MOL   H13033304   1.672   6.095   1.273 -0.5239  2.8145 -0.0386
   98MOL   H13133305   1.724   6.071   1.101 -0.8519 -0.5645  0.9283
   98MOL   H13233306   1.846   6.330   1.192 -0.4935  0.1680  1.5759
   98MOL   H13333307   1.893   6.403   0.982  0.3125 -0.0994  0.9985
   98MOL   H13433308   1.806   6.474   0.751 -0.8528  0.3207  0.0022
   98MOL   H13533309   1.580   6.418   0.687  0.9482  2.3819  0.4440
   98MOL   H13633310   1.417   6.343   0.854  0.3358 -0.6438 -1.8099
   98MOL   H13733311   1.493   6.275   1.075  0.0509  2.0894  1.3230
   98MOL   C13833312   1.740   6.348   1.404 -0.2952 -0.5395  0.1790
   98MOL   C13933313   1.655   6.343   1.529  1.1646 -0.0139  0.9766
   98MOL   C14033314   1.739   6.338   1.652  0.4687  0.4552 -0.3601
   98MOL   C14133315   1.811   6.445   1.700 -0.2446  0.0405  0.2113
   98MOL   C14233316   1.911   6.434   1.799 -0.3982  0.1144  0.2569
   98MOL   C14333317   1.915   6.309   1.866  0.0207 -0.1837 -0.1352
   98MOL   C14433318   1.836   6.203   1.825 -0.2442 -0.5469 -0.0405
   98MOL   C14533319   1.745   6.217   1.723  0.7135 -0.5013 -0.1470
   98MOL   O14633320   1.584   6.465   1.520  0.0935  0.0547  0.3354
   98MOL   H14733321   1.785   6.447   1.391  1.0536 -1.4358 -2.3877
   98MOL   H14833322   1.822   6.278   1.420  2.1580  2.1575  0.0082
   98MOL   H14933323   1.583   6.261   1.525  0.9709  0.1394  1.2990
   98MOL   H15033324   1.800   6.540   1.649  1.1087  0.4939  0.7286
   98MOL   H15133325   1.974   6.519   1.821  0.1127  0.5549 -2.7092
   98MOL   H15233326   1.983   6.276   1.943  0.4176 -0.6407 -0.6794
   98MOL   H15333327   1.842   6.112   1.883 -2.1779 -1.5708 -1.3773
   98MOL   H15433328   1.686   6.129   1.698  0.5389 -0.6099  0.6366
   98MOL   C15533329   1.460   6.475   1.599 -0.0122 -0.1339  0.3958
   98MOL   C15633330   1.425   6.625   1.583  0.1443  0.6273 -0.4931
   98MOL   C15733331   1.280   6.646   1.621 -0.1287  0.3857 -0.0984
   98MOL   C15833332   1.181   6.614   1.528 -0.2056  0.7481  0.1327
   98MOL   C15933333   1.042   6.624   1.562 -0.0364 -0.3039  0.2866
   98MOL   C16033334   1.005   6.674   1.689  0.1866 -0.4114 -0.2328
   98MOL   C16133335   1.109   6.706   1.779  0.8408  0.0692  0.1824
   98MOL   C16233336   1.241   6.696   1.746  0.5871  0.0579  0.3366
   98MOL   O16333337   1.511   6.716   1.653 -0.0289 -0.0764 -0.0611
   98MOL   H16433338   1.483   6.448   1.702 -0.2124 -0.1531  0.4375
   98MOL   H16533339   1.389   6.405   1.553 -0.4064 -0.6636  1.7885
   98MOL   H16633340   1.434   6.644   1.476 -0.0877 -0.6003 -0.7363
   98MOL   H16733341   1.220   6.570   1.438  1.3142  4.0130 -0.9018
   98MOL   H16833342   0.972   6.592   1.486 -0.8198  2.4990 -0.2263
   98MOL   H16933343   0.899   6.689   1.703 -0.1628 -2.1057 -0.9073
   98MOL   H17033344   1.086   6.734   1.880  1.2922  2.5014 -0.3647
   98MOL   H17133345   1.314   6.726   1.820  3.1718  0.0076 -2.1049
   98MOL   C17233346   1.489   6.850   1.602  0.1391 -0.4294  0.8796
   98MOL   C17333347   1.611   6.936   1.630  0.0171  0.5789  0.0793
   98MOL   C17433348   1.735   6.882   1.567  0.2000  0.9843  0.2091
   98MOL   C17533349   1.762   6.904   1.429  0.0650 -0.5345 -0.4017
   98MOL   C17633350   1.883   6.860   1.379  0.3429 -0.0380 -0.3728
   98MOL   C17733351   1.971   6.770   1.445  0.1953 -0.1422 -0.4583
   98MOL   C17833352   1.946   6.751   1.578  0.3486  0.2960  0.0413
   98MOL   C17933353   1.828   6.804   1.642  0.1337  0.6308  0.5064
   98MOL   O18033354   1.634   6.964   1.767  0.4881 -0.6001 -0.1561
   98MOL   H18133355   1.461   6.851   1.497 -0.7728 -1.2601  1.1070
   98MOL   H18233356   1.410   6.902   1.657  0.6893  0.8475  0.4976
   98MOL   H18333357   1.605   7.030   1.575  1.9734  0.6665 -0.0131
   98MOL   H18433358   1.699   6.964   1.365  0.8484 -0.1165 -0.7730
   98MOL   H18533359   1.890   6.884   1.274  0.8983  1.1592 -0.0746
   98MOL   H18633360   2.058   6.717   1.408  1.4762  2.9771 -2.0568
   98MOL   H18733361   2.013   6.688   1.634  0.7391 -0.4952 -1.2973
   98MOL   H18833362   1.800   6.780   1.744 -1.5819  0.6016  0.0357
   98MOL   C18933363   1.650   7.105   1.789 -0.0743 -0.2849 -0.0324
   98MOL   C19033364   1.686   7.127   1.937 -0.4591 -0.1826 -0.7435
   98MOL   C19133365   1.569   7.114   2.040 -0.6178 -0.1008 -0.2196
   98MOL   C19233366   1.498   6.989   2.044 -0.5638 -0.4311 -0.1238
   98MOL   C19333367   1.385   6.983   2.137 -0.0143  0.5839 -0.3016
   98MOL   C19433368   1.343   7.098   2.208 -0.1591  0.5989 -0.0068
   98MOL   C19533369   1.412   7.219   2.191 -0.0681 -0.0981  0.0541
   98MOL   C19633370   1.530   7.224   2.115 -0.7704 -0.1222 -0.4515
   98MOL   O19733371   1.760   7.242   1.952  0.0338 -0.3298  0.0208
   98MOL   H19833372   1.728   7.149   1.726 -2.1455 -0.2641 -2.6589
   98MOL   H19933373   1.564   7.160   1.751  0.0838 -1.7393 -2.6605
   98MOL   H20033374   1.754   7.042   1.947  1.9440  1.3455 -3.3287
   98MOL   H20133375   1.539   6.905   1.990  1.1740 -1.4991  2.7302
   98MOL   H20233376   1.322   6.896   2.151 -0.2778  0.4388 -2.3413
   98MOL   H20333377   1.255   7.099   2.271 -0.0331  1.6716  0.1740
   98MOL   H20433378   1.372   7.303   2.246  0.1693 -0.4503  0.7637
   98MOL   H20533379   1.584   7.317   2.102 -0.0208 -0.7372 -1.8408
   98MOL   C20633380   1.847   7.245   2.065 -0.2431 -0.4678  0.8103
   98MOL   C20733381   1.984   7.166   2.043 -0.2746 -0.2061  0.5364
   98MOL   C20833382   2.037   7.168   1.895  0.0877  0.0332  0.5200
   98MOL   C20933383   2.053   7.045   1.825  0.0564 -0.2933 -0.6043
   98MOL   C21033384   2.102   7.056   1.698  1.0232  0.3132  0.3211
   98MOL   C21133385   2.134   7.175   1.635 -0.2629 -0.1339 -0.3529
   98MOL   C21233386   2.113   7.293   1.708  0.9114 -0.1885  0.8881
   98MOL   C21333387   2.064   7.294   1.840 -0.0712  0.0064  0.1488
   98MOL   O21433388   1.955   7.032   2.090  0.8726  0.1363  0.3012
   98MOL   H21533389   1.876   7.350   2.071 -0.3145 -0.3825 -0.1234
   98MOL   H21633390   1.799   7.225   2.160  0.9539 -0.7762  1.3587
   98MOL   H21733391   2.041   7.216   2.121 -0.5740  0.8272  0.1037
   98MOL   H21833392   2.031   6.947   1.864  1.2973  0.1746  1.3361
   98MOL   H21933393   2.116   6.969   1.635 -1.7478  1.0787 -1.4329
   98MOL   H22033394   2.184   7.170   1.539  0.7449 -0.7577  0.1914
   98MOL   H22133395   2.133   7.383   1.651  0.0688 -0.8296 -0.4467
   98MOL   H22233396   2.053   7.394   1.879  0.6319  0.0474  0.2593
   98MOL   C22333397   2.071   6.972   2.130  0.0244  0.0226 -0.2642
   98MOL   C22433398   2.117   7.001   2.278  0.0546 -0.2757  0.2556
   98MOL   C22533399   2.009   6.963   2.373  0.2684  0.3559 -0.2014
   98MOL   C22633400   2.000   6.829   2.424  0.8374 -0.0858 -0.1607
   98MOL   C22733401   1.902   6.791   2.513 -1.1239 -0.0013 -0.1929
   98MOL   C22833402   1.820   6.893   2.568 -0.2179  0.6172  0.0574
   98MOL   C22933403   1.823   7.025   2.519 -0.7649  0.0468 -0.2281
   98MOL   C23033404   1.915   7.056   2.419 -0.3293  0.0123 -0.9146
   98MOL   O23133405   2.240   6.926   2.296  0.5641 -0.5910 -0.1102
   98MOL   H23233406   2.061   6.864   2.121  1.1772 -0.0765 -0.4472
   98MOL   H23333407   2.148   6.997   2.057  1.1656  0.5440  1.0713
   98MOL   H23433408   2.135   7.107   2.295  0.0474  0.1121 -2.0360
   98MOL   H23533409   2.075   6.758   2.394  2.4736  1.2424  0.6730
   98MOL   H23633410   1.899   6.687   2.541 -0.2112  0.5431  2.0732
   98MOL   H23733411   1.755   6.861   2.648  0.2315  0.0244  0.1935
   98MOL   H23833412   1.758   7.105   2.551  0.7912  2.2160 -2.2279
   98MOL   H23933413   1.899   7.149   2.367 -0.6612  0.4088 -0.1131
   98MOL   C24033414   2.320   6.970   2.407  0.3415 -0.6325  0.0321
   98MOL   C24133415   2.401   7.097   2.368 -0.2518  0.0123 -0.9827
   98MOL   C24233416   2.485   7.081   2.246  0.6850  0.3339 -0.3600
   98MOL   C24333417   2.422   7.100   2.122  0.0297 -0.3199 -0.2721
   98MOL   C24433418   2.503   7.088   2.007 -1.1629  0.2420  0.3369
   98MOL   C24533419   2.638   7.038   2.012 -0.3102 -0.3398  0.7355
   98MOL   C24633420   2.695   7.018   2.136 -0.0732 -0.2053  0.1443
   98MOL   C24733421   2.616   7.032   2.254 -0.9514  0.0661 -0.5965
   98MOL   O24833422   2.317   7.215   2.377 -0.1343  0.2204  0.0241
   98MOL   H24933423   2.267   6.980   2.501 -1.1364 -1.1121 -0.7281
   98MOL   H25033424   2.400   6.896   2.408  2.6390  1.7752 -0.8380
   98MOL   H25133425   2.469   7.099   2.453  0.2440 -0.5006 -1.3564
   98MOL   H25233426   2.318   7.126   2.119 -0.1942 -1.0844  0.6047
   98MOL   H25333427   2.446   7.103   1.916  1.2585  2.1248 -0.9325
   98MOL   H25433428   2.691   7.039   1.918 -3.0256  1.6993 -0.8655
   98MOL   H25533429   2.796   6.986   2.151 -0.2061 -0.2108  1.0602
   98MOL   H25633430   2.658   7.011   2.351  0.9073  3.1084 -0.6768
   98MOL   C25733431   2.396   7.334   2.380  0.3217  0.0671  0.1017
   98MOL   C25833432   2.309   7.461   2.410  0.4222  0.5494 -0.6906
   98MOL   C25933433   2.223   7.443   2.534 -0.0416 -0.6378 -0.8626
   98MOL   C26033434   2.100   7.365   2.537  0.0928 -0.0227 -0.0541
   98MOL   C26133435   2.033   7.347   2.659  0.1567 -0.1226 -0.0503
   98MOL   C26233436   2.082   7.410   2.777 -0.5120 -0.5653 -0.5690
   98MOL   C26333437   2.195   7.494   2.771  0.2062  0.3185 -0.0755
   98MOL   C26433438   2.268   7.505   2.654  0.3474 -0.0079  0.6405
   98MOL   O26533439   2.220   7.483   2.293 -0.3429 -0.0902 -0.3810
   98MOL   H26633440   2.444   7.347   2.283 -1.4015  0.4127 -0.7262
   98MOL   H26733441   2.475   7.327   2.454 -0.1154 -2.1201  0.4008
   98MOL   H26833442   2.374   7.548   2.423  2.5274 -1.2900  1.5158
   98MOL   H26933443   2.070   7.320   2.443  1.2871 -2.0550  0.5153
   98MOL   H27033444   1.949   7.280   2.672  0.7948 -0.3292  3.8424
   98MOL   H27133445   2.033   7.387   2.871 -2.8945  0.1589 -1.5798
   98MOL   H27233446   2.219   7.551   2.859  0.5393 -1.2323  0.8466
   98MOL   H27333447   2.358   7.563   2.649  0.9650 -1.0716 -0.8702
   98MOL   C27433448   2.262   7.575   2.194 -0.4256  0.3969 -0.3831
   98MOL   C27533449   2.152   7.568   2.085 -0.2694  0.2488 -0.7072
   98MOL   C27633450   2.203   7.626   1.956 -0.0484 -0.2430 -0.7192
   98MOL   C27733451   2.152   7.754   1.916 -0.1963 -0.3063  0.1149
   98MOL   C27833452   2.181   7.804   1.782  0.3151  0.6780  0.5114
   98MOL   C27933453   2.249   7.728   1.688 -0.2769 -0.3695 -0.3939
   98MOL   C28033454   2.312   7.606   1.735 -0.1161 -0.1809 -0.3866
   98MOL   C28133455   2.289   7.559   1.870 -0.0304 -1.0313 -0.7326
   98MOL   O28233456   2.041   7.644   2.129  0.4459 -0.0584 -0.1218
   98MOL   H28333457   2.272   7.678   2.227  1.5079  0.2648 -0.5070
   98MOL   H28433458   2.360   7.551   2.153 -0.1790 -0.4148  0.6335
   98MOL   H28533459   2.121   7.465   2.068 -1.7427  0.3989  0.8990
   98MOL   H28633460   2.091   7.814   1.982  0.6690  2.3642 -1.4338
   98MOL   H28733461   2.132   7.889   1.738  1.2418  0.2017 -1.5307
   98MOL   H28833462   2.278   7.772   1.594 -0.9938 -0.3304 -0.6005
   98MOL   H28933463   2.383   7.550   1.676  0.9234  0.1234  0.5583
   98MOL   H29033464   2.336   7.466   1.899 -0.0758 -0.6177  0.6972
   98MOL   C29133465   1.965   7.596   2.241 -0.2356 -0.2243 -0.2959
   98MOL   C29233466   1.829   7.667   2.273 -0.2430  0.0183 -0.2273
   98MOL   C29333467   1.753   7.588   2.379  0.2081  0.4256  0.0032
   98MOL   C29433468   1.815   7.581   2.510  0.4343 -0.3460 -0.1254
   98MOL   C29533469   1.754   7.508   2.612 -0.1615  0.7832 -0.5187
   98MOL   C29633470   1.631   7.439   2.585 -0.7668  0.0107 -0.1334
   98MOL   C29733471   1.571   7.450   2.457 -0.3104  0.3796  0.5480
   98MOL   C29833472   1.634   7.518   2.350 -0.8380 -0.4188  0.4354
   98MOL   O29933473   1.849   7.799   2.323 -0.7039 -0.2652  0.5482
   98MOL   H30033474   2.030   7.586   2.328 -1.9698  1.0628  1.1999
   98MOL   H30133475   1.957   7.490   2.218  4.1229 -0.5948 -0.4764
   98MOL   H30233476   1.775   7.673   2.179  0.5086  1.4339 -0.5839
   98MOL   H30333477   1.914   7.618   2.531 -0.1390  0.2769  1.5986
   98MOL   H30433478   1.809   7.493   2.704 -0.8165 -1.7374 -0.5180
   98MOL   H30533479   1.579   7.380   2.659 -0.8444 -1.7156 -1.5329
   98MOL   H30633480   1.486   7.390   2.430  0.3564  0.9400 -3.0795
   98MOL   H30733481   1.600   7.518   2.248 -0.8997  0.6334  0.4420
   98MOL   C30833482   1.850   7.897   2.218 -0.2476  0.2487 -1.0563
   98MOL   C30933483   1.886   8.034   2.270  0.0970 -0.1543 -0.4023
   98MOL   C31033484   2.014   8.010   2.355  0.0492  0.8287 -0.7168
   98MOL   C31133485   2.006   8.002   2.491 -0.2297  0.3927 -0.2087
   98MOL   C31233486   2.114   7.947   2.559  0.7678 -0.0034  0.1056
   98MOL   C31333487   2.239   7.919   2.502 -0.0672  0.3070  0.1640
   98MOL   C31433488   2.256   7.940   2.365  0.6933 -0.4042  0.2106
   98MOL   C31533489   2.140   7.984   2.290  0.1210  1.1605 -0.7264
   98MOL   O31633490   1.907   0.035   2.156  0.2498 -0.2610 -0.5028
   98MOL   H31733491   1.748   7.899   2.179 -1.7371  0.3637  2.6374
   98MOL   H31833492   1.923   7.862   2.144 -1.3600 -1.4523 -1.3874
   98MOL   H31933493   1.802   8.068   2.330  1.3220  1.5524  0.4155
   98MOL   H32033494   1.912   8.023   2.541 -0.7388 -0.7511 -0.6733
   98MOL   H32133495   2.101   7.940   2.666  0.5119  0.9512  0.1431
   98MOL   H32233496   2.310   7.868   2.565 -0.5116  1.0832  1.3129
   98MOL   H32333497   2.347   7.907   2.318 -0.8418 -0.2427 -2.9632
   98MOL   H32433498   2.141   7.998   2.183 -0.0850  3.2153 -0.4772
   98MOL   C32533499   1.878   0.170   2.182  0.1667  0.1893  0.3506
   98MOL   C32633500   1.896   0.248   2.045  1.4161 -0.2966 -0.8427
   98MOL   C32733501   2.024   0.214   1.972  1.0802  0.4401 -0.1682
   98MOL   C32833502   2.138   0.171   2.043  0.1382 -0.4421 -0.0275
   98MOL   C32933503   2.256   0.122   1.980 -0.0666  1.1727 -0.0570
   98MOL   C33033504   2.252   0.129   1.836  0.3631  0.7153 -0.3087
   98MOL   C33133505   2.136   0.168   1.768 -1.1443  0.4018  0.6048
   98MOL   C33233506   2.024   0.214   1.833 -1.0351 -0.0592  0.0623
   98MOL   O33333507   1.772   0.210   1.984  0.5406 -0.2285 -0.6434
   98MOL   H33433508   1.936   0.200   2.269 -0.2825  0.0803  0.6898
   98MOL   H33533509   1.783   0.199   2.227 -0.3922  0.2260 -0.8273
   98MOL   H33633510   1.896   0.355   2.068 -0.2379 -0.5177  0.2503
   98MOL   H33733511   2.140   0.183   2.150  2.4340 -1.0023  0.0143
   98MOL   H33833512   2.351   0.111   2.031 -0.4522  1.6019  0.7820
   98MOL   H33933513   2.336   0.101   1.775 -0.5314  0.9753 -1.6944
   98MOL   H34033514   2.133   0.184   1.661 -0.8949  0.0674  0.5478
   98MOL   H34133515   1.939   0.245   1.774 -2.1866 -1.1997  1.0861
   98MOL   H34233516   1.752   0.124   2.017 -0.4152  0.0749 -0.3864
   99MOL     C133517   4.966   0.582   3.470 -0.0760  0.6365 -0.0381
   99MOL     C233518   5.003   0.433   3.487 -1.1650  0.2335  0.0639
   99MOL     C333519   5.136   0.410   3.563  0.0919  0.0301 -0.2422
   99MOL     C433520   5.137   0.450   3.700  0.0465  0.1989  0.1894
   99MOL     C533521   5.242   0.420   3.785 -0.2827  0.0095  0.3594
   99MOL     C633522   5.357   0.346   3.737  0.3276 -0.0382  0.2551
   99MOL     C733523   5.354   0.312   3.595 -0.6027 -0.5431  0.2529
   99MOL     C833524   5.248   0.344   3.514 -0.0450  0.1877 -1.2254
   99MOL     O933525   5.017   0.383   3.353  0.1198  0.5193  0.2826
   99MOL    H1033526   4.875   0.589   3.410 -0.4045 -0.7311  0.2741
   99MOL    H1133527   4.946   0.643   3.559  0.1987 -0.1314  0.5607
   99MOL    H1233528   4.920   0.381   3.534 -0.7410 -0.3264  0.2090
   99MOL    H1333529   5.045   0.494   3.734 -0.1522  0.2210 -0.3650
   99MOL    H1433530   5.255   0.451   3.888 -1.2524  1.8475 -0.0373
   99MOL    H1533531   5.441   0.323   3.802 -0.5116 -1.2361  0.9336
   99MOL    H1633532   5.429   0.247   3.552 -2.0718 -2.9401  1.1996
   99MOL    H1733533   5.259   0.305   3.414  0.1653  1.2711 -1.6313
   99MOL    H1833534   5.050   0.629   3.421 -0.2816  1.0269 -0.0189
   99MOL    C1933535   4.989   0.247   3.342  0.2782  0.2528  0.0855
   99MOL    C2033536   4.965   0.185   3.207  0.6009  0.4454  0.0346
   99MOL    C2133537   5.082   0.163   3.124  0.0270 -0.4207  0.1025
   99MOL    C2233538   5.100   0.236   3.004  0.7887 -0.5095 -0.2208
   99MOL    C2333539   5.206   0.205   2.918  0.0584  0.0293 -0.4941
   99MOL    C2433540   5.299   0.103   2.946 -0.2967 -0.2189 -0.4562
   99MOL    C2533541   5.295   0.047   3.076  0.0132 -0.7723  0.5171
   99MOL    C2633542   5.185   0.073   3.164  0.1809  0.2446  0.1330
   99MOL    O2733543   4.849   0.222   3.127  0.0969  0.3473  0.3525
   99MOL    H2833544   5.065   0.191   3.397  1.7898  2.3248  0.1738
   99MOL    H2933545   4.904   0.229   3.408 -0.7085 -2.2806 -1.7841
   99MOL    H3033546   4.934   0.083   3.226 -1.3633  1.3109  1.6107
   99MOL    H3133547   5.027   0.312   2.978  0.8746 -0.6644 -0.9245
   99MOL    H3233548   5.210   0.258   2.824  1.2790 -0.7450 -0.8978
   99MOL    H3333549   5.377   0.071   2.879 -0.9898 -0.1978 -1.2738
   99MOL    H3433550   5.371   8.059   3.111 -0.3274 -0.9559  0.9057
   99MOL    H3533551   5.188   0.025   3.260  0.7497  1.2226  0.6117
   99MOL    C3633552   4.807   0.360   3.135 -0.0852 -0.6820 -0.2241
   99MOL    C3733553   4.695   0.369   3.035 -0.0918 -0.7353  0.3922
   99MOL    C3833554   4.739   0.343   2.894  0.2582 -0.2647 -0.2811
   99MOL    C3933555   4.835   0.429   2.824 -0.5152 -0.5233 -0.1618
   99MOL    C4033556   4.880   0.396   2.697 -0.0397  0.3249  0.9331
   99MOL    C4133557   4.830   0.278   2.635  0.4085 -0.3314  0.2281
   99MOL    C4233558   4.746   0.193   2.702 -0.1688 -0.6871  0.2981
   99MOL    C4333559   4.701   0.218   2.835  0.4329 -0.6161  0.2764
   99MOL    O4433560   4.632   0.497   3.033 -0.4464  0.6766 -0.6333
   99MOL    H4533561   4.778   0.381   3.238  0.2182  1.9458 -0.6523
   99MOL    H4633562   4.887   0.433   3.124  2.9527 -3.7387  0.6840
   99MOL    H4733563   4.626   0.289   3.061  0.0937 -0.3102  2.2881
   99MOL    H4833564   4.859   0.520   2.875 -0.5335 -0.4772 -0.2350
   99MOL    H4933565   4.951   0.455   2.641 -1.2876  1.5770  0.6324
   99MOL    H5033566   4.855   0.250   2.534  2.5505  0.4965  0.5042
   99MOL    H5133567   4.719   0.092   2.673  0.9297 -0.9434  0.1332
   99MOL    H5233568   4.635   0.148   2.884  0.7462 -0.1596  1.3613
   99MOL    C5333569   4.568   0.532   3.155  0.3040 -0.3368  0.3353
   99MOL    C5433570   4.498   0.666   3.143  0.7155 -0.1972 -0.4027
   99MOL    C5533571   4.416   0.693   3.274  0.1493 -0.3386 -0.5298
   99MOL    C5633572   4.308   0.609   3.305  0.5067 -0.5540  0.7836
   99MOL    C5733573   4.237   0.632   3.430  0.1758 -0.0547 -0.1886
   99MOL    C5833574   4.274   0.739   3.521  1.1364 -0.6724  0.2235
   99MOL    C5933575   4.391   0.816   3.491  0.3950 -0.0497  0.1197
   99MOL    C6033576   4.457   0.785   3.372  0.1521 -0.5467 -0.8048
   99MOL    O6133577   4.609   0.753   3.123 -0.1589 -0.3028  0.1952
   99MOL    H6233578   4.491   0.457   3.172 -0.7622  0.2149 -1.8049
   99MOL    H6333579   4.639   0.543   3.237 -1.4928  1.1621  1.7353
   99MOL    H6433580   4.427   0.669   3.061  3.4985 -3.2454 -3.0678
   99MOL    H6533581   4.284   0.531   3.235  2.0420 -1.2900  1.0366
   99MOL    H6633582   4.155   0.565   3.449  1.2011 -0.8310  1.5562
   99MOL    H6733583   4.219   0.765   3.610  0.0713  0.6647 -0.7967
   99MOL    H6833584   4.427   0.893   3.558  0.1838  0.0630  0.1059
   99MOL    H6933585   4.548   0.841   3.356  0.2820 -0.0997  1.3726
   99MOL    C7033586   4.595   0.840   3.011 -0.1334  0.5572  0.1141
   99MOL    C7133587   4.625   0.785   2.869 -0.2321  0.5202 -0.2568
   99MOL    C7233588   4.714   0.890   2.797 -0.3537 -0.0297 -0.3841
   99MOL    C7333589   4.665   1.019   2.763 -0.1777 -0.4846 -0.0114
   99MOL    C7433590   4.751   1.113   2.704  0.0228 -0.0663 -0.2073
   99MOL    C7533591   4.888   1.083   2.681  0.5636 -0.5608 -0.2034
   99MOL    C7633592   4.938   0.957   2.724  0.2380 -0.0069 -1.0851
   99MOL    C7733593   4.850   0.860   2.778  0.0847 -0.5732  0.1131
   99MOL    O7833594   4.499   0.760   2.808 -0.1647 -0.2921  0.6163
   99MOL    H7933595   4.496   0.886   3.011  0.1920  1.2925 -1.6867
   99MOL    H8033596   4.660   0.923   3.040 -0.1130  0.2506  0.9705
   99MOL    H8133597   4.680   0.693   2.886  0.0162  0.7941  0.4546
   99MOL    H8233598   4.561   1.045   2.774 -0.4854 -0.0180 -3.6823
   99MOL    H8333599   4.701   1.206   2.681  0.8477  0.5015  0.2570
   99MOL    H8433600   4.949   1.162   2.639  1.1548 -1.4884 -1.1230
   99MOL    H8533601   5.043   0.933   2.712  0.9101  1.7710  0.8432
   99MOL    H8633602   4.890   0.766   2.814 -0.3297  0.0223  2.1979
   99MOL    C8733603   4.512   0.670   2.694  0.4936 -0.1185  0.1612
   99MOL    C8833604   4.369   0.616   2.647  0.4761 -0.5188  1.0478
   99MOL    C8933605   4.294   0.557   2.770  0.5669 -0.3538 -0.6547
   99MOL    C9033606   4.326   0.430   2.814  0.0049 -0.0024  0.9668
   99MOL    C9133607   4.266   0.372   2.927 -0.0843 -0.1131 -0.2240
   99MOL    C9233608   4.167   0.452   2.997 -0.5932 -0.8271  0.5062
   99MOL    C9333609   4.141   0.586   2.957 -0.4465 -0.3720 -0.5310
   99MOL    C9433610   4.204   0.638   2.842  0.5512 -0.1412  0.1788
   99MOL    O9533611   4.381   0.519   2.543  0.1166  0.5698 -0.0510
   99MOL    H9633612   4.588   0.592   2.704  0.4650 -0.1983 -0.2247
   99MOL    H9733613   4.548   0.718   2.603 -2.5269 -0.1095 -1.0753
   99MOL    H9833614   4.321   0.703   2.601  0.6589 -0.4106  1.0600
   99MOL    H9933615   4.399   0.369   2.764  0.1828  0.4561  0.6667
   99MOL   H10033616   4.290   0.267   2.937  0.3385  0.1052  1.2596
   99MOL   H10133617   4.129   0.407   3.088 -3.2224 -0.2525 -0.2773
   99MOL   H10233618   4.071   0.647   3.011  1.6287  1.0918  0.5599
   99MOL   H10333619   4.183   0.738   2.807 -0.9662  0.3644  2.4060
   99MOL   C10433620   4.258   0.484   2.489 -0.5668 -0.0006 -0.0787
   99MOL   C10533621   4.278   0.401   2.362 -0.8676 -0.6765  0.6888
   99MOL   C10633622   4.315   0.254   2.388 -0.0162 -0.2490 -0.2266
   99MOL   C10733623   4.436   0.218   2.449  0.1262  0.0365  0.3694
   99MOL   C10833624   4.467   0.082   2.476  0.1066  0.7492  0.1614
   99MOL   C10933625   4.380   8.061   2.439 -0.3610 -0.1228  0.0390
   99MOL   C11033626   4.258   0.018   2.382  0.3612  0.3855  0.7212
   99MOL   C11133627   4.226   0.152   2.353 -0.5332 -0.7764 -0.3839
   99MOL   O11233628   4.147   0.414   2.296 -0.3324  0.3943 -0.2029
   99MOL   H11333629   4.197   0.428   2.561  2.2209 -0.5360  1.9578
   99MOL   H11433630   4.206   0.576   2.464 -1.3123  0.1356  1.8498
   99MOL   H11533631   4.352   0.459   2.307 -2.7747 -0.5999 -1.8791
   99MOL   H11633632   4.499   0.301   2.480  0.9144 -0.6959  0.7326
   99MOL   H11733633   4.564   0.049   2.509  1.1004  0.9318 -2.5044
   99MOL   H11833634   4.407   7.958   2.457  0.0770 -0.4741 -2.5501
   99MOL   H11933635   4.188   8.019   2.360 -0.5756  1.5444 -0.5192
   99MOL   H12033636   4.127   0.163   2.312 -0.7310 -0.0359  0.2875
   99MOL   C12133637   4.156   0.397   2.155 -0.1632 -0.5799  0.5695
   99MOL   C12233638   4.017   0.374   2.084 -1.2617  0.4449  0.0146
   99MOL   C12333639   4.039   0.372   1.935  0.0293 -0.0765  0.8447
   99MOL   C12433640   3.980   0.474   1.849  0.0647 -0.2247 -0.0701
   99MOL   C12533641   4.008   0.474   1.712 -0.2357 -0.3347 -0.6227
   99MOL   C12633642   4.074   0.364   1.652  0.6701 -0.0650 -0.4146
   99MOL   C12733643   4.122   0.258   1.730 -0.3601 -0.8576  0.3847
   99MOL   C12833644   4.117   0.267   1.871  0.4512  0.1114 -0.1624
   99MOL   O12933645   3.967   0.247   2.127  0.4049 -0.0062  0.1783
   99MOL   H13033646   4.226   0.316   2.133  1.4740  0.4664  1.7787
   99MOL   H13133647   4.205   0.487   2.117 -1.3085 -0.6040 -1.0047
   99MOL   H13233648   3.959   0.463   2.109 -0.3435  0.4911  2.0436
   99MOL   H13333649   3.923   0.555   1.893 -0.4096 -0.1959 -0.7302
   99MOL   H13433650   3.978   0.563   1.659 -0.9353  0.0908  0.4818
   99MOL   H13533651   4.082   0.355   1.545 -1.3668  0.3172 -0.6145
   99MOL   H13633652   4.170   0.172   1.686  1.1124 -0.1147  0.5293
   99MOL   H13733653   4.167   0.191   1.929 -2.0633  1.1198  3.4969
   99MOL   C13833654   3.831   0.234   2.075  0.6935  0.2811  0.0620
   99MOL   C13933655   3.763   0.107   2.144  0.0367  0.2296 -0.3310
   99MOL   C14033656   3.852   8.062   2.178  0.4224  0.6409 -0.4835
   99MOL   C14133657   3.946   8.029   2.078  0.5039 -0.7018 -0.2126
   99MOL   C14233658   3.999   7.896   2.086  0.3485 -0.2052  1.3912
   99MOL   C14333659   3.969   7.806   2.190 -0.6425  0.1398 -0.2776
   99MOL   C14433660   3.874   7.841   2.291  0.5798 -0.3407  0.2973
   99MOL   C14533661   3.817   7.974   2.286 -0.1390 -0.4570 -0.3326
   99MOL   O14633662   3.680   0.146   2.251  0.3640  0.3618 -0.3945
   99MOL   H14733663   3.831   0.225   1.967 -1.9348 -0.9078  0.1165
   99MOL   H14833664   3.765   0.316   2.100 -0.1479 -0.8573  1.7123
   99MOL   H14933665   3.684   0.067   2.080  1.1626 -2.6258 -0.0040
   99MOL   H15033666   3.969   0.023   2.003  1.3707 -0.7172  0.0338
   99MOL   H15133667   4.071   7.867   2.011 -0.5727  2.1748 -0.4696
   99MOL   H15233668   4.008   7.706   2.196 -1.6029 -0.1026  3.5154
   99MOL   H15333669   3.847   7.779   2.375 -1.4957  0.1596  0.0286
   99MOL   H15433670   3.743   8.011   2.356 -2.1524 -0.4207 -2.4314
   99MOL   C15533671   3.743   0.213   2.363 -0.1561 -0.0900 -0.5029
   99MOL   C15633672   3.670   0.335   2.420  0.1203  0.0713 -0.2925
   99MOL   C15733673   3.715   0.369   2.559  0.6332 -0.0467  0.0400
   99MOL   C15833674   3.856   0.371   2.584 -0.2557 -0.0055  0.1992
   99MOL   C15933675   3.907   0.402   2.715 -0.1299  0.1331 -0.5218
   99MOL   C16033676   3.810   0.424   2.816 -0.4239  0.5928  0.3021
   99MOL   C16133677   3.672   0.421   2.788 -0.4110  0.6964 -0.0698
   99MOL   C16233678   3.630   0.396   2.662  0.2153  0.4461  0.9768
   99MOL   O16333679   3.700   0.448   2.331  0.3579  0.2646  0.0841
   99MOL   H16433680   3.847   0.234   2.341 -0.4929  1.7232 -0.4379
   99MOL   H16533681   3.740   0.136   2.440 -3.0873 -1.1297 -1.5906
   99MOL   H16633682   3.564   0.308   2.421  0.1359 -0.0598  3.2405
   99MOL   H16733683   3.924   0.363   2.500  0.9058  0.7312  1.0473
   99MOL   H16833684   4.013   0.401   2.734  0.0709 -0.2028 -1.6730
   99MOL   H16933685   3.839   0.448   2.918  0.0332  1.2576  0.0156
   99MOL   H17033686   3.601   0.438   2.867  0.2395 -1.4468  1.0067
   99MOL   H17133687   3.524   0.378   2.648 -0.1278  0.8595  2.9119
   99MOL   C17233688   3.603   0.554   2.355 -0.5338 -0.4294  0.5225
   99MOL   C17333689   3.613   0.664   2.249  0.3187  0.4473 -0.8362
   99MOL   C17433690   3.577   0.619   2.106 -0.3354  0.2005  0.2710
   99MOL   C17533691   3.672   0.553   2.025  0.2289  0.4109 -0.5321
   99MOL   C17633692   3.644   0.523   1.892  0.0334  0.1389  0.4927
   99MOL   C17733693   3.512   0.551   1.840 -0.4474 -0.0691 -0.1996
   99MOL   C17833694   3.413   0.612   1.926  0.1050  0.0212  0.0941
   99MOL   C17933695   3.448   0.644   2.060 -0.1365 -0.0060 -0.1529
   99MOL   O18033696   3.747   0.712   2.270  0.0379  0.6536 -0.0165
   99MOL   H18133697   3.501   0.516   2.350 -0.4891 -0.5529  0.5498
   99MOL   H18233698   3.624   0.593   2.455 -2.1437  1.8188  0.0198
   99MOL   H18333699   3.544   0.747   2.265  1.1083  1.0765 -0.6875
   99MOL   H18433700   3.766   0.526   2.072 -1.5510  0.5381  3.2888
   99MOL   H18533701   3.713   0.457   1.842 -1.1900 -1.2164  0.5876
   99MOL   H18633702   3.497   0.526   1.736 -1.1665 -0.4326 -0.0140
   99MOL   H18733703   3.309   0.621   1.896 -0.6676  0.0705  2.6688
   99MOL   H18833704   3.376   0.695   2.122  1.2259 -0.6661  2.0509
   99MOL   C18933705   3.792   0.835   2.199  0.7209  1.5958  0.3800
   99MOL   C19033706   3.940   0.849   2.222  0.3713 -0.1771 -0.3232
   99MOL   C19133707   3.975   0.875   2.370 -0.4886 -0.2690  0.1589
   99MOL   C19233708   3.974   0.772   2.460  0.7886 -0.5933 -0.4741
   99MOL   C19333709   4.014   0.795   2.591 -0.3134 -0.3636  0.0690
   99MOL   C19433710   4.048   0.930   2.632 -0.4062  0.6402 -0.4927
   99MOL   C19533711   4.049   1.036   2.540  0.1985 -0.5866  0.3401
   99MOL   C19633712   4.017   1.005   2.409  0.1186 -0.4619 -0.7232
   99MOL   O19733713   4.002   0.943   2.138 -0.1274 -0.4571 -0.0418
   99MOL   H19833714   3.780   0.834   2.090  1.4180 -0.9476  0.2810
   99MOL   H19933715   3.740   0.927   2.226 -0.3098  0.9218  0.7263
   99MOL   H20033716   3.986   0.756   2.191 -0.8318 -0.1209 -2.4308
   99MOL   H20133717   3.964   0.669   2.427 -1.4464  0.1518 -2.2264
   99MOL   H20233718   3.999   0.716   2.664  1.8186 -1.7379 -0.9001
   99MOL   H20333719   4.077   0.943   2.736 -0.6164 -0.1759 -0.3271
   99MOL   H20433720   4.087   1.135   2.560 -0.2718 -0.1138 -1.0329
   99MOL   H20533721   4.030   1.087   2.339  1.7338  1.7915  2.1181
   99MOL   C20633722   4.047   0.894   2.007  0.6761 -0.7779  0.4934
   99MOL   C20733723   4.090   1.013   1.927 -0.1465 -0.1188 -0.1799
   99MOL   C20833724   4.103   0.983   1.775  0.6550 -0.2432  0.0209
   99MOL   C20933725   4.221   0.923   1.724  0.2512 -0.1934  0.3582
   99MOL   C21033726   4.227   0.880   1.586 -0.5941 -0.2128  0.4814
   99MOL   C21133727   4.113   0.906   1.505 -0.7102 -0.5807 -0.3349
   99MOL   C21233728   4.009   0.985   1.556 -0.0586 -0.3632  0.8829
   99MOL   C21333729   4.001   1.017   1.691  0.5272 -0.3978 -0.0334
   99MOL   O21433730   4.218   1.054   1.976  0.2773  0.0271 -0.7140
   99MOL   H21533731   4.130   0.824   2.015  0.7084 -0.7866  0.0979
   99MOL   H21633732   3.962   0.846   1.959  1.4939 -2.5273  0.7589
   99MOL   H21733733   4.024   1.099   1.943 -0.2444 -0.0923 -0.6997
   99MOL   H21833734   4.304   0.912   1.792  0.0219 -0.7992  0.5454
   99MOL   H21933735   4.309   0.825   1.542 -0.0811  0.9391 -0.0279
   99MOL   H22033736   4.112   0.863   1.406 -0.1804 -1.2144 -0.0721
   99MOL   H22133737   3.926   1.010   1.492  0.9124  0.2981 -0.1294
   99MOL   H22233738   3.913   1.070   1.725  1.1660 -0.3568  1.5726
   99MOL   C22333739   4.229   1.193   2.011 -0.0037  0.1205 -0.3420
   99MOL   C22433740   4.355   1.230   2.090 -0.1625 -0.6360  0.7812
   99MOL   C22533741   4.373   1.156   2.220  0.3047 -0.6246  0.2990
   99MOL   C22633742   4.303   1.042   2.260  0.7846  0.2574 -0.2680
   99MOL   C22733743   4.337   0.971   2.380  0.7778 -0.2960  0.3429
   99MOL   C22833744   4.434   1.023   2.461 -0.3611  0.1074 -0.5149
   99MOL   C22933745   4.504   1.140   2.428  0.0616 -0.4595 -0.4939
   99MOL   C23033746   4.472   1.210   2.306  0.4672  0.6208 -0.0160
   99MOL   O23133747   4.471   1.230   2.007  0.1634 -0.4704  0.6274
   99MOL   H23233748   4.215   1.254   1.921 -5.4804  2.9146  2.1874
   99MOL   H23333749   4.145   1.216   2.076  0.3895 -2.3287  1.0921
   99MOL   H23433750   4.350   1.337   2.109 -0.5682  0.0553 -2.8646
   99MOL   H23533751   4.230   0.999   2.193  0.7963  1.0536 -0.7960
   99MOL   H23633752   4.280   0.886   2.415 -1.1896  0.3190 -1.2243
   99MOL   H23733753   4.452   0.984   2.560  0.6352  1.2163 -0.2408
   99MOL   H23833754   4.570   1.188   2.498 -0.1987 -0.9683  0.1021
   99MOL   H23933755   4.531   1.297   2.279 -1.0881  1.6353 -0.1749
   99MOL   C24033756   4.513   1.098   1.968 -0.0033 -0.0708 -0.1331
   99MOL   C24133757   4.668   1.102   1.931 -0.0465  0.2745 -0.4124
   99MOL   C24233758   4.748   1.124   2.054  0.3761 -0.0555  0.6122
   99MOL   C24333759   4.759   1.013   2.148 -0.3350  0.1321  0.1119
   99MOL   C24433760   4.825   1.028   2.271  0.1969 -0.2995 -0.0764
   99MOL   C24533761   4.878   1.153   2.297 -0.3359  0.0573 -0.5987
   99MOL   C24633762   4.868   1.262   2.208 -0.4739 -0.5359  0.2483
   99MOL   C24733763   4.800   1.251   2.089  0.1707 -0.1036  0.3166
   99MOL   O24833764   4.699   0.982   1.860 -0.3577 -0.0655  0.5004
   99MOL   H24933765   4.508   1.035   2.057  0.8672 -2.7789 -1.9554
   99MOL   H25033766   4.454   1.062   1.884  2.0056 -1.5516 -0.9591
   99MOL   H25133767   4.694   1.187   1.867  0.1058 -1.3789 -2.6043
   99MOL   H25233768   4.712   0.919   2.121 -1.0424  1.1201 -2.2325
   99MOL   H25333769   4.825   0.950   2.345  1.5884  0.2926  0.5702
   99MOL   H25433770   4.921   1.166   2.395  1.8501 -1.3326 -1.3328
   99MOL   H25533771   4.919   1.355   2.226 -2.0953  0.2945  0.6506
   99MOL   H25633772   4.795   1.326   2.011 -2.3466 -0.0156  0.5081
   99MOL   C25733773   4.760   1.005   1.738 -0.1159 -0.2731 -0.3581
   99MOL   C25833774   4.772   0.869   1.663  0.3261 -0.2248  0.6858
   99MOL   C25933775   4.862   0.888   1.546 -0.4013 -0.2192 -0.0992
   99MOL   C26033776   5.000   0.894   1.564  0.1597 -0.5447  0.1548
   99MOL   C26133777   5.087   0.925   1.456  0.2468  0.1870  0.1691
   99MOL   C26233778   5.039   0.955   1.329  0.5011  0.3575 -1.1441
   99MOL   C26333779   4.899   0.947   1.316 -0.0390 -0.3094  0.0694
   99MOL   C26433780   4.813   0.914   1.416 -0.0934 -0.4970 -0.0534
   99MOL   O26533781   4.642   0.826   1.617 -0.1680  0.6518 -0.1238
   99MOL   H26633782   4.856   1.044   1.771  0.3160 -1.5820 -0.0586
   99MOL   H26733783   4.706   1.080   1.680  0.9770  0.6924 -0.1550
   99MOL   H26833784   4.811   0.798   1.736  2.5212 -0.6120 -0.7957
   99MOL   H26933785   5.041   0.887   1.664 -0.2302 -0.7555  0.3009
   99MOL   H27033786   5.194   0.938   1.466  0.1440  2.6037 -1.5265
   99MOL   H27133787   5.112   0.976   1.253  1.4059 -0.8529 -0.6403
   99MOL   H27233788   4.858   0.959   1.217 -0.5612 -2.6127 -0.0174
   99MOL   H27333789   4.706   0.919   1.403  0.0993  1.3604 -0.9806
   99MOL   C27433790   4.625   0.691   1.565  0.0250  0.5215  0.7580
   99MOL   C27533791   4.620   0.584   1.671 -0.2018 -0.5698 -0.7469
   99MOL   C27633792   4.528   0.633   1.781  0.5471 -0.0972 -0.6110
   99MOL   C27733793   4.578   0.696   1.898 -0.1697 -0.2466  0.1509
   99MOL   C27833794   4.492   0.719   2.008  0.3500  0.1741 -0.1843
   99MOL   C27933795   4.358   0.699   1.996  0.5486 -0.2646  0.2198
   99MOL   C28033796   4.304   0.651   1.876 -0.0737  0.4397 -0.3454
   99MOL   C28133797   4.386   0.615   1.766  0.0085  0.6495 -0.3935
   99MOL   O28233798   4.752   0.544   1.720  0.0141  0.5343 -0.6542
   99MOL   H28333799   4.527   0.704   1.519  0.8219  0.5690 -0.9331
   99MOL   H28433800   4.695   0.666   1.486  0.7225  3.5569  0.3637
   99MOL   H28533801   4.573   0.495   1.629 -0.1006 -0.6732 -0.6425
   99MOL   H28633802   4.684   0.693   1.919 -0.0782 -0.7781 -0.3837
   99MOL   H28733803   4.542   0.762   2.093  0.8882 -1.7662  0.5118
   99MOL   H28833804   4.300   0.728   2.083  0.6091  0.8563 -0.1101
   99MOL   H28933805   4.196   0.644   1.884  0.2610 -0.8528  4.3855
   99MOL   H29033806   4.341   0.563   1.683 -0.3342  1.3267 -0.6307
   99MOL   C29133807   4.755   0.426   1.797 -0.3541 -0.3221  0.0731
   99MOL   C29233808   4.897   0.405   1.845  1.2005 -0.5264  0.0800
   99MOL   C29333809   4.996   0.396   1.726 -0.2151  0.8224 -0.8152
   99MOL   C29433810   5.034   0.268   1.674  0.7219  0.9307  0.7379
   99MOL   C29533811   5.136   0.267   1.578 -0.3537  0.8535  0.2163
   99MOL   C29633812   5.200   0.382   1.529 -0.0314  0.4707 -0.4502
   99MOL   C29733813   5.168   0.502   1.588  0.5003 -0.3524  0.8384
   99MOL   C29833814   5.059   0.512   1.681 -0.7519 -0.3086  0.5726
   99MOL   O29933815   4.935   0.508   1.940 -0.1719  0.0044 -0.2895
   99MOL   H30033816   4.710   0.348   1.735  0.1813  0.9551 -1.9736
   99MOL   H30133817   4.696   0.436   1.887  1.4131 -0.0160  1.2253
   99MOL   H30233818   4.900   0.319   1.911  3.5635 -1.1819 -0.8379
   99MOL   H30333819   4.991   0.177   1.712 -0.0777  2.2136  3.0121
   99MOL   H30433820   5.183   0.175   1.547 -0.5346  1.1933 -1.1032
   99MOL   H30533821   5.280   0.370   1.458 -0.2722  0.0535 -0.6508
   99MOL   H30633822   5.224   0.590   1.559 -2.7719  2.1752  1.9264
   99MOL   H30733823   5.027   0.608   1.719  0.3289  0.1727  0.3019
   99MOL   C30833824   5.057   0.483   2.015 -0.2117  0.0269 -0.3992
   99MOL   C30933825   5.044   0.408   2.152 -0.2012  0.4125 -0.3519
   99MOL   C31033826   4.947   0.475   2.245 -0.1434 -0.3197  0.1000
   99MOL   C31133827   5.001   0.568   2.341  0.6068  0.0284 -0.7145
   99MOL   C31233828   4.913   0.626   2.430 -0.3068 -0.4206 -0.0721
   99MOL   C31333829   4.777   0.591   2.440 -0.0071  0.3965  0.1980
   99MOL   C31433830   4.723   0.521   2.328 -0.2973 -0.1287 -0.1574
   99MOL   C31533831   4.803   0.466   2.229  0.6032 -0.4257 -0.4842
   99MOL   O31633832   5.002   0.275   2.130 -0.4376  0.0946 -0.6819
   99MOL   H31733833   5.095   0.581   2.043 -4.3333  2.1191 -1.6375
   99MOL   H31833834   5.128   0.438   1.946  1.1588  1.8581 -0.2073
   99MOL   H31933835   5.141   0.410   2.203 -0.4031  2.5185 -0.0083
   99MOL   H32033836   5.106   0.595   2.349  0.1652  1.1967  1.6741
   99MOL   H32133837   4.940   0.697   2.507 -0.5083 -0.8870  0.4371
   99MOL   H32233838   4.723   0.639   2.520 -0.2669 -1.9283  1.4626
   99MOL   H32333839   4.615   0.510   2.325 -0.3750  0.7228 -0.4253
   99MOL   H32433840   4.753   0.410   2.152 -0.3217 -0.4664  0.1359
   99MOL   C32533841   5.103   0.193   2.091 -1.2785  0.8464  0.2226
   99MOL   C32633842   5.065   0.042   2.074  0.8918  0.5912 -0.7069
   99MOL   C32733843   4.989   8.056   2.194  0.7505  0.2115  0.9667
   99MOL   C32833844   4.933   7.930   2.172 -0.4378 -0.2450  0.1728
   99MOL   C32933845   4.872   7.850   2.273 -0.1183  0.1601 -0.1856
   99MOL   C33033846   4.865   7.906   2.401  0.3512  0.1871  0.9338
   99MOL   C33133847   4.907   8.039   2.417 -0.4745 -0.5286 -0.1635
   99MOL   C33233848   4.969   0.035   2.320 -0.3358  0.1785  0.4301
   99MOL   O33333849   4.987   0.032   1.949  0.3123 -0.1245 -0.2124
   99MOL   H33433850   5.171   0.181   2.176 -2.0422 -3.0599  0.3682
   99MOL   H33533851   5.156   0.227   2.003  0.7817 -1.1357  0.6602
   99MOL   H33633852   5.161   8.070   2.071 -0.3949 -1.9081 -0.3527
   99MOL   H33733853   4.946   7.888   2.074  0.8222 -0.7126  0.5299
   99MOL   H33833854   4.849   7.745   2.262  2.4019 -0.5057  0.6006
   99MOL   H33933855   4.821   7.851   2.482 -0.1921  0.6172  0.9347
   99MOL   H34033856   4.895   0.012   2.511 -0.0686 -0.4855 -0.1356
   99MOL   H34133857   5.009   0.134   2.336  0.9340 -0.1448 -0.7420
   99MOL   H34233858   5.007   8.025   1.920  0.3321 -0.0112 -0.5368
  100MOL     C133859   3.542   2.177   2.607  0.1815 -0.0430  0.4458
  100MOL     C233860   3.526   2.324   2.648 -0.5931  0.1343 -0.3147
  100MOL     C333861   3.602   2.367   2.770  0.1758  0.4630  0.4008
  100MOL     C433862   3.741   2.368   2.773 -0.5197 -0.0663  1.0442
  100MOL     C533863   3.810   2.418   2.879 -0.2227 -0.2954  0.8491
  100MOL     C633864   3.740   2.471   2.997  0.5041 -0.2699 -0.3572
  100MOL     C733865   3.596   2.476   2.986  0.3289  0.3911  0.0785
  100MOL     C833866   3.527   2.428   2.870  0.6090  0.3811 -0.1543
  100MOL     O933867   3.384   2.359   2.657 -0.4209 -0.2264  0.0481
  100MOL    H1033868   3.640   2.142   2.573  0.4748 -0.2031  1.4441
  100MOL    H1133869   3.505   2.113   2.687 -1.2877  2.4003  1.7806
  100MOL    H1233870   3.574   2.385   2.572 -0.5683  1.1106  0.4776
  100MOL    H1333871   3.801   2.318   2.698 -0.6745  1.6238 -0.2506
  100MOL    H1433872   3.918   2.423   2.881 -0.0759 -1.1776 -1.9193
  100MOL    H1533873   3.793   2.505   3.085  1.4845 -0.4831 -0.8638
  100MOL    H1633874   3.538   2.530   3.060 -2.8746 -1.6404 -0.8210
  100MOL    H1733875   3.419   2.427   2.872  0.6447 -1.2183  1.2299
  100MOL    H1833876   3.480   2.152   2.521 -0.1883  0.6973  0.4975
  100MOL    C1933877   3.346   2.485   2.614 -0.3090 -0.3623 -0.2892
  100MOL    C2033878   3.308   2.477   2.467  0.3926 -0.0601  0.5438
  100MOL    C2133879   3.196   2.375   2.438 -0.4341 -0.0275  1.1994
  100MOL    C2233880   3.061   2.411   2.426  0.2705 -0.2680 -0.3589
  100MOL    C2333881   2.963   2.313   2.397  0.3862 -0.3089  0.5835
  100MOL    C2433882   2.987   2.175   2.381 -0.4150 -0.7422 -0.2642
  100MOL    C2533883   3.126   2.145   2.383  0.1844  1.1981 -0.1475
  100MOL    C2633884   3.228   2.242   2.408 -0.4457  0.1178 -0.0327
  100MOL    O2733885   3.426   2.454   2.392 -0.1766  0.5493 -0.1059
  100MOL    H2833886   3.254   2.514   2.666 -0.5129  1.8166 -1.8233
  100MOL    H2933887   3.415   2.566   2.637 -1.1071  0.3562 -0.4142
  100MOL    H3033888   3.278   2.580   2.446  0.6830  0.0822  0.8305
  100MOL    H3133889   3.034   2.516   2.424  1.6224  0.1548  1.9639
  100MOL    H3233890   2.858   2.341   2.397  0.1606 -1.0537 -1.5489
  100MOL    H3333891   2.919   2.098   2.350 -1.1161 -0.0811 -0.3833
  100MOL    H3433892   3.165   2.045   2.367 -1.4500  0.6196 -0.5589
  100MOL    H3533893   3.330   2.209   2.400 -0.1419  1.0973 -0.1790
  100MOL    C3633894   3.410   2.452   2.248  0.5476 -0.1085  0.1307
  100MOL    C3733895   3.548   2.491   2.183 -0.6101 -0.6648 -0.3291
  100MOL    C3833896   3.668   2.412   2.227 -0.2179 -0.2790 -0.1866
  100MOL    C3933897   3.707   2.300   2.151  0.5409  0.4721 -0.2082
  100MOL    C4033898   3.801   2.215   2.210 -0.6963  0.4161  0.0274
  100MOL    C4133899   3.868   2.248   2.331 -0.0579 -0.0654 -0.7158
  100MOL    C4233900   3.826   2.362   2.403  0.6833  0.2862 -0.5159
  100MOL    C4333901   3.730   2.445   2.345 -0.0102  0.0457 -0.3289
  100MOL    O4433902   3.570   2.629   2.187 -0.3285 -0.2788 -0.1913
  100MOL    H4533903   3.373   2.349   2.239 -2.9621  0.7458  3.4012
  100MOL    H4633904   3.323   2.506   2.212  0.5548 -0.3789 -0.3015
  100MOL    H4733905   3.531   2.478   2.076  1.9220 -1.1122 -0.7277
  100MOL    H4833906   3.649   2.274   2.063 -0.6765  1.6578  0.2297
  100MOL    H4933907   3.839   2.126   2.162  3.6048  2.2597 -0.2591
  100MOL    H5033908   3.943   2.180   2.367  1.3703  1.7506 -0.2047
  100MOL    H5133909   3.869   2.389   2.498  0.5697 -0.1037 -0.3566
  100MOL    H5233910   3.703   2.535   2.399  2.7738 -0.4680  2.1109
  100MOL    C5333911   3.679   2.674   2.110 -0.7281  0.6410  0.4009
  100MOL    C5433912   3.633   2.805   2.044  0.2400 -0.3753  0.0671
  100MOL    C5533913   3.602   2.910   2.139 -0.2483 -0.2675 -0.2130
  100MOL    C5633914   3.703   2.992   2.194 -0.0796  0.0873  0.2164
  100MOL    C5733915   3.684   3.095   2.286 -0.3887 -0.5308  0.3288
  100MOL    C5833916   3.552   3.122   2.332  0.1455  0.3009  1.0029
  100MOL    C5933917   3.448   3.048   2.275 -0.3442  0.2505  0.4626
  100MOL    C6033918   3.473   2.940   2.186 -0.7930 -0.0676  0.2828
  100MOL    O6133919   3.717   2.843   1.936 -0.2440 -0.0737 -0.2210
  100MOL    H6233920   3.768   2.688   2.171 -0.4930 -2.5198  0.8406
  100MOL    H6333921   3.718   2.603   2.038  1.0062  1.8596  0.1022
  100MOL    H6433922   3.536   2.791   1.995  0.2663 -0.5345  0.0593
  100MOL    H6533923   3.798   2.976   2.145 -0.1248 -2.7006  0.9360
  100MOL    H6633924   3.770   3.154   2.313 -0.7118  0.6558 -1.1268
  100MOL    H6733925   3.524   3.204   2.397  0.6964  1.6194 -0.3815
  100MOL    H6833926   3.351   3.086   2.305  0.0483  0.4340  1.5199
  100MOL    H6933927   3.389   2.879   2.157 -0.5964  0.8267 -2.2428
  100MOL    C7033928   3.693   2.964   1.871 -0.6717 -0.1044 -0.4080
  100MOL    C7133929   3.787   2.971   1.746  0.1975  0.3003 -0.0020
  100MOL    C7233930   3.933   2.966   1.787  0.5120 -0.6022 -1.3018
  100MOL    C7333931   4.018   3.079   1.782  0.3735  0.5862 -0.3963
  100MOL    C7433932   4.149   3.069   1.830  0.0443  0.3978 -0.5957
  100MOL    C7533933   4.210   2.944   1.866 -0.0380 -0.3801  0.0819
  100MOL    C7633934   4.122   2.836   1.876  0.3231  0.1218 -1.0002
  100MOL    C7733935   3.983   2.845   1.841  0.0025  0.0724 -0.3678
  100MOL    O7833936   3.748   3.091   1.674  0.0979  0.8733 -0.2521
  100MOL    H7933937   3.587   2.969   1.846 -1.0957  1.6355  1.5823
  100MOL    H8033938   3.709   3.051   1.935  0.0304 -1.5245  1.4033
  100MOL    H8133939   3.770   2.880   1.689  1.5100  0.0971 -0.0745
  100MOL    H8233940   3.974   3.170   1.743 -0.6753 -0.3408 -1.4267
  100MOL    H8333941   4.211   3.158   1.832 -0.0966  0.4832  0.0867
  100MOL    H8433942   4.312   2.945   1.901  0.5594 -2.3122 -1.5435
  100MOL    H8533943   4.168   2.745   1.911  0.9174  0.6800 -0.3035
  100MOL    H8633944   3.919   2.759   1.857 -2.4698  1.9385  0.2402
  100MOL    C8733945   3.783   3.106   1.532  0.2332 -0.4445 -0.1871
  100MOL    C8833946   3.738   3.248   1.494  0.7344  0.3604 -1.4557
  100MOL    C8933947   3.816   3.357   1.567  0.2454 -0.1736  0.2179
  100MOL    C9033948   3.759   3.429   1.676 -0.2916 -0.4474  0.1261
  100MOL    C9133949   3.833   3.534   1.739  0.2482  0.7917 -0.3346
  100MOL    C9233950   3.966   3.565   1.697  0.1278 -0.7405 -0.2232
  100MOL    C9333951   4.018   3.497   1.587 -0.1790 -0.1252  0.3434
  100MOL    C9433952   3.944   3.395   1.519 -0.3853 -0.5808 -0.0923
  100MOL    O9533953   3.596   3.256   1.518 -0.2778  0.4815  0.2215
  100MOL    H9633954   3.733   3.038   1.464 -1.7487  1.0180 -0.2618
  100MOL    H9733955   3.888   3.086   1.513  0.2613 -1.2359  0.7830
  100MOL    H9833956   3.754   3.262   1.387  1.8355  1.1196 -1.2065
  100MOL    H9933957   3.657   3.406   1.704 -0.5153  0.3789 -0.0202
  100MOL   H10033958   3.789   3.597   1.815 -0.0546 -1.7710  1.6526
  100MOL   H10133959   4.018   3.644   1.749 -2.2017  0.8327 -0.2057
  100MOL   H10233960   4.116   3.524   1.551  0.3057 -1.3694  0.6958
  100MOL   H10333961   3.987   3.358   1.428  2.5765  1.7772  0.2528
  100MOL   C10433962   3.532   3.337   1.419 -1.3156 -0.0109 -0.0942
  100MOL   C10533963   3.391   3.359   1.464 -0.4031  0.2663  0.1220
  100MOL   C10633964   3.331   3.493   1.411  0.2282 -0.2198  0.6316
  100MOL   C10733965   3.281   3.507   1.278  0.1246  0.1224 -0.5439
  100MOL   C10833966   3.248   3.636   1.226 -0.1126 -0.0002 -0.0071
  100MOL   C10933967   3.265   3.750   1.308 -0.3192 -0.1024 -0.0893
  100MOL   C11033968   3.305   3.739   1.441 -0.5707 -0.7129  0.6286
  100MOL   C11133969   3.346   3.610   1.485  0.0055 -0.6552 -0.1569
  100MOL   O11233970   3.308   3.252   1.426  0.0629 -0.0518 -0.1949
  100MOL   H11333971   3.579   3.435   1.407  1.6757 -1.3457  0.4477
  100MOL   H11433972   3.523   3.289   1.321 -1.7507 -0.9602  0.4032
  100MOL   H11533973   3.385   3.368   1.572  0.6786 -0.6441  0.2596
  100MOL   H11633974   3.272   3.417   1.218  0.6885  1.1903 -2.2677
  100MOL   H11733975   3.208   3.644   1.127 -1.4448  2.1314  0.6719
  100MOL   H11833976   3.238   3.849   1.274  1.0192 -0.5120 -2.3888
  100MOL   H11933977   3.322   3.822   1.509  0.6956 -1.0111  0.6891
  100MOL   H12033978   3.397   3.616   1.580 -0.3253 -0.0343 -0.0110
  100MOL   C12133979   3.341   3.133   1.497 -0.0130  0.5286 -0.8737
  100MOL   C12233980   3.223   3.034   1.510 -0.6502  0.6820  0.2051
  100MOL   C12333981   3.284   2.894   1.547  0.2907  0.1476 -0.0361
  100MOL   C12433982   3.336   2.817   1.439 -0.9142  0.3208 -0.3890
  100MOL   C12533983   3.388   2.685   1.468  0.0627 -0.3226 -0.1248
  100MOL   C12633984   3.386   2.637   1.601 -0.0816  0.3308 -0.2066
  100MOL   C12733985   3.348   2.717   1.710 -0.3292 -0.2768 -0.9818
  100MOL   C12833986   3.300   2.847   1.683 -0.0075 -0.4172 -0.0740
  100MOL   O12933987   3.142   3.076   1.623 -0.4022 -0.3067  0.3280
  100MOL   H13033988   3.385   3.152   1.595  0.0922 -0.7942 -0.6516
  100MOL   H13133989   3.424   3.086   1.444  1.0749 -2.3686  3.1211
  100MOL   H13233990   3.163   3.033   1.419  0.1810 -1.3039 -0.3318
  100MOL   H13333991   3.342   2.859   1.340  0.0734  0.0604 -0.4463
  100MOL   H13433992   3.423   2.626   1.384 -2.6226 -2.6431  0.3156
  100MOL   H13533993   3.421   2.536   1.613 -0.2255  0.2378 -0.5734
  100MOL   H13633994   3.346   2.683   1.813 -2.0386 -0.4035 -1.0319
  100MOL   H13733995   3.272   2.910   1.767 -0.6744 -0.1307 -0.5047
  100MOL   C13833996   3.056   3.187   1.589  0.2859  0.2291 -0.9197
  100MOL   C13933997   2.964   3.216   1.712 -0.0691 -0.3364  0.1605
  100MOL   C14033998   2.861   3.114   1.721  0.0731 -0.4996  0.3261
  100MOL   C14133999   2.895   2.991   1.774  0.1291  0.1866  0.1901
  100MOL   C14234000   2.799   2.887   1.787 -0.0281  0.2880 -0.0084
  100MOL   C14334001   2.668   2.902   1.743  0.0474 -0.0550  0.3651
  100MOL   C14434002   2.640   3.018   1.677  0.0527 -0.3781 -0.5012
  100MOL   C14534003   2.726   3.128   1.673  0.0413  0.0274  0.4074
  100MOL   O14634004   3.034   3.241   1.831 -0.0326 -0.3854  0.3188
  100MOL   H14734005   3.009   3.168   1.492  0.4799  2.1058 -1.3941
  100MOL   H14834006   3.115   3.278   1.580  1.9011 -0.8125 -1.1033
  100MOL   H14934007   2.895   3.297   1.688  2.0931  1.2706 -0.7524
  100MOL   H15034008   2.998   2.982   1.805  0.9390  2.8503 -1.6030
  100MOL   H15134009   2.826   2.797   1.840 -1.4194  1.3974  2.7256
  100MOL   H15234010   2.598   2.819   1.746 -0.0273  0.0086  0.3803
  100MOL   H15334011   2.538   3.029   1.644  0.3234  0.2196 -1.1525
  100MOL   H15434012   2.691   3.221   1.630  0.4783  0.2099  0.4418
  100MOL   C15534013   3.070   3.376   1.854 -1.2760  0.2957  0.5088
  100MOL   C15634014   3.162   3.380   1.977  0.2425 -0.1397 -0.3618
  100MOL   C15734015   3.105   3.303   2.098 -0.7800 -0.1985  0.0324
  100MOL   C15834016   3.139   3.168   2.111  0.1393 -0.3264 -0.0540
  100MOL   C15934017   3.097   3.099   2.221 -0.1875  0.2260 -0.2516
  100MOL   C16034018   3.006   3.158   2.312  0.5720  0.3997  0.0630
  100MOL   C16134019   2.965   3.295   2.295  0.3427  0.3836  0.3413
  100MOL   C16234020   3.012   3.366   2.183  0.4693 -0.0902 -0.4994
  100MOL   O16334021   3.296   3.338   1.940 -0.4688 -0.5688 -0.4444
  100MOL   H16434022   2.978   3.428   1.880 -2.2099 -1.2867  0.4185
  100MOL   H16534023   3.117   3.414   1.763  1.2602 -1.8114  0.8686
  100MOL   H16634024   3.172   3.483   2.011  0.1662 -0.6718  1.3272
  100MOL   H16734025   3.202   3.124   2.035  0.5329  0.5490 -0.2399
  100MOL   H16834026   3.140   3.000   2.227  3.5815  1.6509 -1.9353
  100MOL   H16934027   2.971   3.112   2.403 -1.9352 -0.1888 -1.1607
  100MOL   H17034028   2.905   3.341   2.372 -0.7955  3.7168 -2.3926
  100MOL   H17134029   2.996   3.473   2.173  0.3574 -0.0050  0.5512
  100MOL   C17234030   3.407   3.341   2.034  0.5836  0.0528 -0.6586
  100MOL   C17334031   3.508   3.442   1.983 -0.3435 -0.6566  0.2450
  100MOL   C17434032   3.639   3.420   2.064 -0.1322 -0.3894  0.5586
  100MOL   C17534033   3.739   3.335   2.012  0.7552 -0.1469  0.0936
  100MOL   C17634034   3.855   3.313   2.088  0.5616 -0.5434  0.1701
  100MOL   C17734035   3.867   3.374   2.218 -0.4440 -0.0111 -0.3122
  100MOL   C17834036   3.767   3.459   2.272  0.1721 -0.1814 -0.4064
  100MOL   C17934037   3.655   3.484   2.189  0.0513 -0.8009  0.0544
  100MOL   O18034038   3.457   3.572   2.011  0.1613 -0.1874  0.2508
  100MOL   H18134039   3.376   3.364   2.136  1.7381 -3.2206  0.4799
  100MOL   H18234040   3.456   3.244   2.039  0.3733  0.0716  2.9621
  100MOL   H18334041   3.519   3.434   1.875  0.3515  1.4059  0.1251
  100MOL   H18434042   3.724   3.285   1.918 -1.3584  0.6956 -0.0504
  100MOL   H18534043   3.926   3.242   2.050 -0.6614 -1.4253 -0.5083
  100MOL   H18634044   3.954   3.350   2.277 -1.7050 -0.1387  1.5545
  100MOL   H18734045   3.784   3.500   2.371 -0.3453 -1.8069  0.3764
  100MOL   H18834046   3.573   3.541   2.231  0.7682  0.4969 -0.2767
  100MOL   C18934047   3.441   3.651   1.894  0.0564  0.3480  0.3043
  100MOL   C19034048   3.374   3.782   1.935 -0.0837  0.1424  0.5199
  100MOL   C19134049   3.230   3.760   1.978 -0.4509  0.5768 -0.5479
  100MOL   C19234050   3.122   3.760   1.891 -0.6073 -0.0682 -0.4238
  100MOL   C19334051   2.989   3.733   1.941  0.1479 -0.6484  0.0241
  100MOL   C19434052   2.968   3.706   2.074 -0.7624  0.3426  0.2664
  100MOL   C19534053   3.079   3.699   2.160  0.3449 -0.9372 -0.1861
  100MOL   C19634054   3.209   3.732   2.114 -0.2391 -0.5058  0.4194
  100MOL   O19734055   3.387   3.881   1.836  0.4326 -0.1127 -0.4113
  100MOL   H19834056   3.536   3.674   1.845 -0.3866  2.0445  0.2053
  100MOL   H19934057   3.371   3.617   1.818  1.1724 -1.2102 -0.0615
  100MOL   H20034058   3.427   3.820   2.022 -0.3501  1.1168  0.2624
  100MOL   H20134059   3.137   3.767   1.784 -1.5599 -2.2675 -0.7118
  100MOL   H20234060   2.913   3.740   1.865  0.0441 -0.4293  0.1494
  100MOL   H20334061   2.870   3.688   2.115 -0.3767  0.1639  1.1101
  100MOL   H20434062   3.075   3.674   2.266  0.9117  0.4947  0.1833
  100MOL   H20534063   3.287   3.750   2.187 -0.2794  1.0169  0.1092
  100MOL   C20634064   3.396   4.016   1.886 -0.1743  0.1822  0.0216
  100MOL   C20734065   3.379   4.117   1.771  0.0351  0.4770 -0.4896
  100MOL   C20834066   3.233   4.136   1.728 -0.8134  0.0218 -0.5423
  100MOL   C20934067   3.154   4.233   1.795  0.3965 -0.3137 -0.1687
  100MOL   C21034068   3.016   4.246   1.756 -0.6458 -0.0773  0.2846
  100MOL   C21134069   2.957   4.168   1.654 -0.5373 -0.8769  0.6660
  100MOL   C21234070   3.043   4.081   1.591 -0.3295 -0.1397 -0.2185
  100MOL   C21334071   3.176   4.067   1.625 -0.0893  0.8291  0.0856
  100MOL   O21434072   3.465   4.077   1.667 -0.3720  0.2418 -0.4226
  100MOL   H21534073   3.327   4.043   1.966 -0.2795  1.5201 -0.5152
  100MOL   H21634074   3.500   4.016   1.920  0.4848 -0.5569 -1.9413
  100MOL   H21734075   3.424   4.202   1.821  0.1579 -0.3676  0.8545
  100MOL   H21834076   3.183   4.296   1.877  2.4550  0.1600 -1.2078
  100MOL   H21934077   2.960   4.323   1.808  1.4189 -0.0384  2.5304
  100MOL   H22034078   2.862   4.196   1.610  0.3053 -1.4553 -1.6308
  100MOL   H22134079   3.006   4.024   1.507  0.9370 -2.5984  0.8476
  100MOL   H22234080   3.236   3.998   1.566  0.5487  1.6385 -0.2160
  100MOL   C22334081   3.489   4.188   1.579 -0.5751  0.2463 -0.5088
  100MOL   C22434082   3.560   4.130   1.457  0.3528 -0.0477  0.1972
  100MOL   C22534083   3.518   4.197   1.327  0.2249  0.4651  0.1188
  100MOL   C22634084   3.433   4.134   1.227  0.1515 -0.3893  0.2167
  100MOL   C22734085   3.408   4.203   1.104 -0.0990  1.0032 -1.1592
  100MOL   C22834086   3.470   4.326   1.082  0.4062 -0.7165 -0.4173
  100MOL   C22934087   3.552   4.387   1.174  0.0768 -0.8995 -0.5443
  100MOL   C23034088   3.582   4.320   1.296  0.5815 -0.8700 -0.1902
  100MOL   O23134089   3.697   4.146   1.490 -0.6219  0.2621 -0.2773
  100MOL   H23234090   3.387   4.210   1.546 -0.3952  2.1217  0.0795
  100MOL   H23334091   3.543   4.266   1.633 -0.9864 -0.6120  1.1857
  100MOL   H23434092   3.530   4.026   1.449 -1.9439  0.4566  1.8499
  100MOL   H23534093   3.381   4.043   1.254 -0.5714  0.6161  2.3999
  100MOL   H23634094   3.349   4.154   1.028  1.0542  1.3107 -2.2797
  100MOL   H23734095   3.450   4.374   0.987  0.4279 -1.5201 -0.8332
  100MOL   H23834096   3.590   4.487   1.162  1.1031 -1.1088  0.7217
  100MOL   H23934097   3.635   4.363   1.379 -1.3295 -0.6020  0.9221
  100MOL   C24034098   3.783   4.086   1.396  0.0974 -0.3300  0.1894
  100MOL   C24134099   3.825   3.942   1.443 -0.1989  0.2909 -0.0975
  100MOL   C24234100   3.894   3.950   1.582  0.2744 -0.2742  0.0448
  100MOL   C24334101   4.037   3.943   1.591 -0.1749 -0.4812  0.3087
  100MOL   C24434102   4.103   3.948   1.715 -0.0518 -1.0577 -0.1362
  100MOL   C24534103   4.027   3.942   1.830  0.3716  0.6094 -0.2841
  100MOL   C24634104   3.888   3.942   1.830 -0.2884 -0.0797 -0.2603
  100MOL   C24734105   3.824   3.951   1.710 -0.2585  0.0944 -0.1949
  100MOL   O24834106   3.717   3.847   1.448  0.1620 -0.2476  0.5900
  100MOL   H24934107   3.748   4.094   1.293 -1.1354  0.7657  0.6864
  100MOL   H25034108   3.884   4.127   1.390 -0.5657  1.5404  1.5006
  100MOL   H25134109   3.904   3.910   1.375 -0.2231 -0.4264  0.1980
  100MOL   H25234110   4.095   3.945   1.500 -0.1135  1.0605  0.3695
  100MOL   H25334111   4.211   3.951   1.707 -0.0868 -0.3175 -0.3224
  100MOL   H25434112   4.084   3.938   1.922  1.2420  1.5893 -0.7723
  100MOL   H25534113   3.838   3.937   1.926  0.7196  0.1820  0.2882
  100MOL   H25634114   3.717   3.942   1.702 -0.4784  1.0365  1.5514
  100MOL   C25734115   3.747   3.721   1.388 -0.1231  0.9547 -0.0173
  100MOL   C25834116   3.746   3.729   1.236 -0.3803  0.4225 -0.1248
  100MOL   C25934117   3.742   3.590   1.166 -0.1132 -1.6228  0.2696
  100MOL   C26034118   3.618   3.526   1.139 -0.2763  0.3721  0.4582
  100MOL   C26134119   3.613   3.396   1.091  0.7287 -1.2057 -0.3712
  100MOL   C26234120   3.733   3.322   1.071 -0.4220 -0.1691  0.0935
  100MOL   C26334121   3.854   3.390   1.102  0.5596  0.5243 -0.3809
  100MOL   C26434122   3.861   3.522   1.159  0.0345 -0.0900  0.3981
  100MOL   O26534123   3.855   3.801   1.184 -0.4316  0.0355 -0.0627
  100MOL   H26634124   3.665   3.653   1.412  0.1717  0.5362 -0.1823
  100MOL   H26734125   3.838   3.672   1.422 -1.3603 -1.9789 -0.7522
  100MOL   H26834126   3.655   3.777   1.199 -1.3747  1.0410  2.9887
  100MOL   H26934127   3.526   3.572   1.171  0.0975  1.2514  0.2931
  100MOL   H27034128   3.517   3.354   1.065 -0.0619  1.6017 -2.1803
  100MOL   H27134129   3.737   3.221   1.032  2.5262  0.3388 -1.0565
  100MOL   H27234130   3.939   3.324   1.094 -0.1746 -0.6831  1.4776
  100MOL   H27334131   3.951   3.576   1.185 -0.2967  1.3054 -1.2044
  100MOL   C27434132   3.850   3.861   1.054 -0.3972 -0.1151  0.0505
  100MOL   C27534133   4.000   3.903   1.008  0.6232 -0.6549  0.3217
  100MOL   C27634134   4.097   3.790   1.028  0.7786  0.7537 -0.0276
  100MOL   C27734135   4.088   3.678   0.944 -0.8048 -0.5823 -0.3090
  100MOL   C27834136   4.166   3.565   0.968  0.1037 -0.1794 -0.0780
  100MOL   C27934137   4.255   3.562   1.075 -0.0800  0.0696 -0.1850
  100MOL   C28034138   4.256   3.669   1.165  0.4167 -0.4418 -0.1074
  100MOL   C28134139   4.184   3.788   1.145  0.0547  0.4138  0.7044
  100MOL   O28234140   4.028   4.026   1.070 -0.4671  0.0165  0.1246
  100MOL   H28334141   3.812   3.779   0.993 -1.6500  2.1530 -2.2787
  100MOL   H28434142   3.785   3.948   1.051 -1.2523 -0.6572  2.0723
  100MOL   H28534143   3.994   3.911   0.900  1.5079  2.5118  0.4749
  100MOL   H28634144   4.022   3.679   0.858  0.5924 -1.0152 -1.4007
  100MOL   H28734145   4.142   3.475   0.914  0.0918 -2.0162  2.8344
  100MOL   H28834146   4.309   3.471   1.096  0.7151 -0.1584 -3.0151
  100MOL   H28934147   4.324   3.663   1.249  0.3072 -5.0810 -0.2679
  100MOL   H29034148   4.189   3.873   1.211  0.3746  1.7405 -1.0084
  100MOL   C29134149   4.132   4.089   0.992  0.1776 -0.0239 -0.0692
  100MOL   C29234150   4.130   4.244   1.017 -0.4142 -0.2801  0.4344
  100MOL   C29334151   4.141   4.284   1.159  0.1232 -0.0998  0.8700
  100MOL   C29434152   4.023   4.345   1.222 -0.2226  0.0700 -0.0586
  100MOL   C29534153   4.022   4.359   1.363  0.5397 -0.2589 -0.1345
  100MOL   C29634154   4.132   4.328   1.441  0.1851  0.0336 -0.1455
  100MOL   C29734155   4.246   4.277   1.381 -0.0644  0.1292  1.7053
  100MOL   C29834156   4.252   4.245   1.241 -0.3393  0.2569  0.0109
  100MOL   O29934157   4.234   4.310   0.939  0.3564  0.6615  1.2376
  100MOL   H30034158   4.129   4.072   0.884  1.1691  2.0573 -0.4392
  100MOL   H30134159   4.224   4.045   1.032 -0.4157 -0.1530  1.1628
  100MOL   H30234160   4.033   4.270   0.975  0.2088 -1.7449 -1.9939
  100MOL   H30334161   3.941   4.369   1.156  0.4576 -0.0600 -0.9719
  100MOL   H30434162   3.937   4.397   1.417 -0.4269 -0.5034 -1.4571
  100MOL   H30534163   4.115   4.341   1.547  2.3669 -2.6170  0.6111
  100MOL   H30634164   4.333   4.244   1.436  1.0993 -0.0584 -0.1913
  100MOL   H30734165   4.341   4.198   1.203  0.6040  1.5424  0.5892
  100MOL   C30834166   4.198   4.440   0.893  0.3150 -0.4203  0.0667
  100MOL   C30934167   4.318   4.506   0.806  0.5524  0.4728 -0.1941
  100MOL   C31034168   4.444   4.525   0.878  0.0722  0.3083  0.2278
  100MOL   C31134169   4.464   4.487   1.015 -1.3422  0.0855 -0.2665
  100MOL   C31234170   4.575   4.526   1.086  0.3914 -0.3095 -0.4199
  100MOL   C31334171   4.677   4.592   1.023  0.0242  0.2356 -0.5251
  100MOL   C31434172   4.666   4.630   0.888  0.1692 -0.1296  0.6261
  100MOL   C31534173   4.550   4.593   0.814  0.0410 -0.4508  0.1388
  100MOL   O31634174   4.341   4.427   0.684 -0.5837 -0.7785  0.0445
  100MOL   H31734175   4.177   4.501   0.981 -3.1445  0.2654 -1.1464
  100MOL   H31834176   4.102   4.434   0.842  1.3945  2.8575 -2.5445
  100MOL   H31934177   4.292   4.608   0.777 -2.7667 -0.8709 -2.2530
  100MOL   H32034178   4.383   4.448   1.075  0.0316  0.7239  2.0555
  100MOL   H32134179   4.600   4.496   1.186  2.1404 -1.2845 -1.1303
  100MOL   H32234180   4.768   4.616   1.075 -0.7989 -0.4985  1.3070
  100MOL   H32334181   4.747   4.681   0.839 -0.8436 -0.7836 -1.8222
  100MOL   H32434182   4.543   4.615   0.708 -1.9565 -0.0168  0.3538
  100MOL   C32534183   4.270   4.469   0.574  0.2748 -0.3728 -0.4165
  100MOL   C32634184   4.326   4.393   0.452  0.4143  0.8299  0.1765
  100MOL   C32734185   4.469   4.429   0.420  0.0835 -0.0622 -0.7489
  100MOL   C32834186   4.501   4.519   0.314  0.3243 -0.2110  0.2411
  100MOL   C32934187   4.639   4.564   0.296  0.1099  0.5823  0.5116
  100MOL   C33034188   4.744   4.512   0.377  0.6965 -0.3598 -0.2968
  100MOL   C33134189   4.713   4.418   0.478  0.5073  0.0111  0.4362
  100MOL   C33234190   4.580   4.378   0.498  0.2339 -0.1275  0.0232
  100MOL   O33334191   4.309   4.252   0.463 -0.1306  0.1466 -0.7743
  100MOL   H33434192   4.289   4.576   0.562 -1.2943 -0.1057 -0.6111
  100MOL   H33534193   4.165   4.441   0.583  0.2936  0.4103  3.0672
  100MOL   H33634194   4.259   4.412   0.368  2.0007 -1.1214 -1.5676
  100MOL   H33734195   4.433   4.557   0.238  0.6432  1.0945  0.5989
  100MOL   H33834196   4.662   4.634   0.217 -1.5430  2.8351  1.9260
  100MOL   H33934197   4.840   4.559   0.366 -0.6617  2.2949 -1.3605
  100MOL   H34034198   4.797   4.384   0.536  0.1084 -2.4247 -0.3449
  100MOL   H34134199   4.554   4.305   0.573  0.4524 -0.1832  0.0469
  100MOL   H34234200   4.328   4.228   0.553  1.3618 -0.3764 -1.2263
  101MOL     C134201   0.773   1.572   2.157 -0.1126 -0.1245  0.0196
  101MOL     C234202   0.687   1.477   2.071  0.3538  0.4463 -0.4723
  101MOL     C334203   0.549   1.537   2.029  0.5862 -0.1680  0.3525
  101MOL     C434204   0.527   1.571   1.896  0.7094 -0.4207  0.3193
  101MOL     C534205   0.398   1.624   1.861  0.1275  0.5133  0.0174
  101MOL     C634206   0.298   1.640   1.957 -0.1990 -0.3222  0.0594
  101MOL     C734207   0.322   1.602   2.090  0.3589 -0.4006 -1.2704
  101MOL     C834208   0.446   1.550   2.128  0.1518  0.2117  1.2448
  101MOL     O934209   0.660   1.366   2.155  0.0850 -0.0145 -0.0172
  101MOL    H1034210   0.879   1.548   2.162  0.5456  2.6575  0.0876
  101MOL    H1134211   0.778   1.670   2.110  0.4405 -1.0801 -2.0061
  101MOL    H1234212   0.743   1.437   1.987  0.0995  1.4703 -1.1468
  101MOL    H1334213   0.615   1.562   1.834  0.2584 -2.5688 -0.0383
  101MOL    H1434214   0.378   1.651   1.758 -2.0975 -1.1665 -0.0274
  101MOL    H1534215   0.207   1.692   1.933 -1.2348 -2.3554 -0.5081
  101MOL    H1634216   0.244   1.629   2.159  0.0120 -1.8496 -1.0676
  101MOL    H1734217   0.451   1.504   2.226 -0.7592 -1.8107  0.3893
  101MOL    H1834218   0.726   1.597   2.252 -1.9846 -1.1567 -0.6000
  101MOL    C1934219   0.605   1.255   2.083  0.7134 -0.1662 -0.2546
  101MOL    C2034220   0.621   1.121   2.166  0.5017  0.3859 -0.0268
  101MOL    C2134221   0.767   1.073   2.165  0.0874 -0.0113  0.2762
  101MOL    C2234222   0.808   0.975   2.069 -0.4321 -0.6903  0.5743
  101MOL    C2334223   0.947   0.928   2.067  0.2993 -1.4802 -0.1629
  101MOL    C2434224   1.040   0.994   2.152  0.5229  0.9534 -0.4759
  101MOL    C2534225   0.998   1.094   2.246  0.3604  0.3361  0.2743
  101MOL    C2634226   0.863   1.134   2.251 -0.0382  0.6733 -0.7410
  101MOL    O2734227   0.525   1.028   2.107  0.2013 -0.5480  0.5052
  101MOL    H2834228   0.499   1.269   2.065  0.7543  3.0220  1.6827
  101MOL    H2934229   0.654   1.235   1.987 -0.0806  2.2470 -1.1886
  101MOL    H3034230   0.597   1.145   2.269 -0.9615  1.0474 -0.4962
  101MOL    H3134231   0.746   0.927   1.995  0.8159  0.2066 -1.0757
  101MOL    H3234232   0.980   0.856   1.994  2.0075 -0.2141 -0.6477
  101MOL    H3334233   1.144   0.967   2.143  0.9842  2.3243  0.4690
  101MOL    H3434234   1.074   1.130   2.314 -0.1125 -0.6164  1.3048
  101MOL    H3534235   0.834   1.218   2.313  0.9698 -0.8663  1.8860
  101MOL    C3634236   0.504   0.912   2.188  0.6745 -0.1900  0.4209
  101MOL    C3734237   0.408   0.927   2.304  0.4764  0.2937 -0.0731
  101MOL    C3834238   0.277   0.994   2.271  0.2997  0.0718  0.3195
  101MOL    C3934239   0.273   1.135   2.253 -0.3554 -1.1341 -0.0870
  101MOL    C4034240   0.149   1.199   2.242 -0.5928  0.3073 -0.4636
  101MOL    C4134241   0.032   1.124   2.233 -0.0074  0.1447  0.7270
  101MOL    C4234242   0.036   0.988   2.245 -0.0287 -0.6067  0.2384
  101MOL    C4334243   0.157   0.921   2.269  0.1326 -0.9715  0.0104
  101MOL    O4434244   0.479   0.991   2.408  0.0186  0.1365  0.1921
  101MOL    H4534245   0.475   0.830   2.122  1.2813 -0.3709  0.3714
  101MOL    H4634246   0.603   0.881   2.223  0.6192 -1.1867 -0.2566
  101MOL    H4734247   0.390   0.830   2.350  0.0109  0.8542  0.9556
  101MOL    H4834248   0.368   1.188   2.248  0.0279 -1.6903  1.0894
  101MOL    H4934249   0.146   1.307   2.240 -0.3732  0.3203 -0.0785
  101MOL    H5034250   8.020   1.181   2.236 -0.3911 -0.4292 -0.2059
  101MOL    H5134251   8.026   0.930   2.227  0.2265 -0.8451 -0.2896
  101MOL    H5234252   0.159   0.814   2.282  1.8945 -1.0429 -0.7183
  101MOL    C5334253   0.432   0.988   2.539 -0.0754 -0.3088 -0.5549
  101MOL    C5434254   0.553   1.022   2.624  0.8806  0.0091 -0.1410
  101MOL    C5534255   0.522   1.042   2.769  0.0405 -0.2913 -0.0740
  101MOL    C5634256   0.449   1.156   2.814  0.1349  0.3854 -0.9027
  101MOL    C5734257   0.421   1.170   2.954  0.3111  0.3282 -0.3595
  101MOL    C5834258   0.462   1.077   3.045 -0.8682 -0.1804 -0.2226
  101MOL    C5934259   0.531   0.963   3.000 -0.2337 -0.2146 -0.0712
  101MOL    C6034260   0.556   0.942   2.862 -0.2120 -0.4796 -0.3399
  101MOL    O6134261   0.660   0.929   2.608 -0.1782 -0.2145  0.2486
  101MOL    H6234262   0.352   1.062   2.546  0.1783  0.0693 -1.6002
  101MOL    H6334263   0.391   0.898   2.585  0.2324 -0.3391 -0.3384
  101MOL    H6434264   0.598   1.114   2.586  1.2973 -0.5282 -0.9890
  101MOL    H6534265   0.418   1.233   2.745  1.8456  1.6482 -0.3007
  101MOL    H6634266   0.368   1.259   2.985  2.0056  1.6945 -1.3107
  101MOL    H6734267   0.450   1.106   3.148 -1.0571 -0.8504 -0.0522
  101MOL    H6834268   0.568   0.899   3.079 -2.6077 -3.0990 -1.1968
  101MOL    H6934269   0.612   0.855   2.830 -1.2435 -1.4273  0.4023
  101MOL    C7034270   0.787   0.981   2.599 -0.7302  0.2896  0.9055
  101MOL    C7134271   0.899   0.872   2.584 -0.2595 -0.4792 -0.6911
  101MOL    C7234272   0.905   0.777   2.707  0.5268  0.5204  0.8135
  101MOL    C7334273   0.880   0.819   2.837  0.6212 -0.1192  0.0479
  101MOL    C7434274   0.872   0.729   2.948  0.3697  0.0439 -0.2566
  101MOL    C7534275   0.872   0.593   2.920 -0.5365 -0.0257 -0.0129
  101MOL    C7634276   0.906   0.543   2.790  0.2645 -0.2429 -0.2173
  101MOL    C7734277   0.925   0.636   2.691  0.5533  0.6059 -0.4729
  101MOL    O7834278   1.017   0.950   2.571  0.4323 -0.8336 -0.1491
  101MOL    H7934279   0.794   1.045   2.511 -0.9675 -1.6786 -0.5790
  101MOL    H8034280   0.808   1.044   2.685 -0.8194  0.2746  0.9382
  101MOL    H8134281   0.883   0.814   2.493  0.1615 -1.3283 -0.2282
  101MOL    H8234282   0.865   0.923   2.862  0.0601 -0.0706 -0.4876
  101MOL    H8334283   0.852   0.763   3.048 -0.1094  0.2780 -0.4238
  101MOL    H8434284   0.850   0.522   2.999 -1.8100 -2.0224 -2.0969
  101MOL    H8534285   0.910   0.438   2.764  0.2056 -0.5714  1.0468
  101MOL    H8634286   0.949   0.614   2.588 -0.8794  0.5253 -0.7909
  101MOL    C8734287   1.129   0.875   2.531 -0.5141  0.0117  0.2902
  101MOL    C8834288   1.259   0.955   2.536  0.1446  0.0085 -0.4816
  101MOL    C8934289   1.284   1.034   2.662 -0.1374 -0.8350  0.1708
  101MOL    C9034290   1.398   1.015   2.742 -0.0494 -0.0357  0.4052
  101MOL    C9134291   1.406   1.083   2.868 -0.1371  0.9131  0.0292
  101MOL    C9234292   1.312   1.183   2.906  0.0283 -0.1514  0.0661
  101MOL    C9334293   1.201   1.207   2.828 -0.1463  0.3861  0.6872
  101MOL    C9434294   1.190   1.136   2.709  1.1639  0.0987  0.2728
  101MOL    O9534295   1.260   1.043   2.423  0.1883  0.3051 -0.2795
  101MOL    H9634296   1.120   0.826   2.435  0.8185 -1.4355  0.8701
  101MOL    H9734297   1.148   0.796   2.604  3.2678  1.1168  0.6189
  101MOL    H9834298   1.327   0.870   2.531 -0.6149 -0.7030  0.9914
  101MOL    H9934299   1.476   0.949   2.706 -0.8391 -0.3768 -0.7194
  101MOL   H10034300   1.492   1.063   2.929  0.3611 -0.6418 -1.1421
  101MOL   H10134301   1.335   1.228   3.001 -0.9093 -0.9430  0.6796
  101MOL   H10234302   1.129   1.283   2.854  0.4231  1.7718 -1.6037
  101MOL   H10334303   1.105   1.158   2.646  1.5745  1.3962  0.1484
  101MOL   C10434304   1.388   1.093   2.395 -0.2208 -0.4328  0.3856
  101MOL   C10534305   1.386   1.196   2.278 -0.2705 -0.2694 -0.1177
  101MOL   C10634306   1.511   1.291   2.284 -0.6066 -0.1807  0.4294
  101MOL   C10734307   1.622   1.275   2.195  0.9762 -0.8067  0.1537
  101MOL   C10834308   1.731   1.356   2.201  0.6368  0.3763  0.6496
  101MOL   C10934309   1.742   1.462   2.289  0.3025  0.4337  0.1268
  101MOL   C11034310   1.641   1.474   2.387  0.4122  0.3110 -0.1852
  101MOL   C11134311   1.530   1.389   2.386  1.1960  0.3214 -0.3194
  101MOL   O11234312   1.385   1.120   2.163 -0.3815  0.4659  0.4524
  101MOL   H11334313   1.427   1.137   2.487 -1.5408 -0.0914  0.7823
  101MOL   H11434314   1.460   1.015   2.368 -2.0575 -1.6148 -1.2153
  101MOL   H11534315   1.296   1.257   2.282  0.2973  0.6284 -0.9567
  101MOL   H11634316   1.619   1.191   2.127 -0.1460 -0.0819 -0.7256
  101MOL   H11734317   1.809   1.323   2.133  0.7747 -0.1804  1.0697
  101MOL   H11834318   1.830   1.523   2.303  0.7599  0.0137 -0.8532
  101MOL   H11934319   1.649   1.548   2.466  0.1906 -1.0541  1.1307
  101MOL   H12034320   1.454   1.402   2.462  1.7291 -1.5035  0.5596
  101MOL   C12134321   1.326   1.182   2.042 -0.1117  0.1097 -0.2544
  101MOL   C12234322   1.334   1.085   1.918 -0.2701  0.0512  0.2845
  101MOL   C12334323   1.294   1.159   1.789  0.3026  0.2834 -0.4455
  101MOL   C12434324   1.394   1.233   1.713 -0.4800  0.1173 -0.3058
  101MOL   C12534325   1.368   1.305   1.598  0.5566  0.0055  0.5508
  101MOL   C12634326   1.236   1.304   1.555 -0.3312  0.5687  0.6083
  101MOL   C12734327   1.133   1.228   1.621 -0.7559  0.1527  0.7299
  101MOL   C12834328   1.162   1.151   1.732  0.0985 -0.1763  0.9409
  101MOL   O12934329   1.461   1.020   1.908  0.5967  0.7545 -0.1981
  101MOL   H13034330   1.372   1.277   2.015 -2.2454  1.0595 -0.5731
  101MOL   H13134331   1.220   1.204   2.050  0.0589  0.9528 -0.2948
  101MOL   H13234332   1.262   1.004   1.928  0.2254 -0.4068  0.1527
  101MOL   H13334333   1.497   1.224   1.745 -0.6680 -1.8098 -0.2273
  101MOL   H13434334   1.446   1.366   1.555  0.6832  0.6193  1.6322
  101MOL   H13534335   1.207   1.361   1.468  2.1438 -0.4168 -0.9199
  101MOL   H13634336   1.029   1.224   1.592 -0.5324 -0.0789 -0.0629
  101MOL   H13734337   1.085   1.086   1.771 -0.1907 -0.1586  0.4075
  101MOL   C13834338   1.457   0.902   1.829 -0.4513  0.4720 -0.3733
  101MOL   C13934339   1.603   0.859   1.813  0.6997  0.4190  0.5570
  101MOL   C14034340   1.685   0.871   1.938 -0.0437 -0.2143 -0.5079
  101MOL   C14134341   1.683   0.762   2.026 -0.7110  0.8132 -0.0830
  101MOL   C14234342   1.758   0.760   2.142 -0.5437  0.2589 -0.5850
  101MOL   C14334343   1.836   0.876   2.173 -0.9152  0.2233  0.6700
  101MOL   C14434344   1.834   0.986   2.089 -0.2356  0.3656 -0.3502
  101MOL   C14534345   1.758   0.985   1.971  0.7864 -0.0332  0.3051
  101MOL   O14634346   1.601   0.732   1.758 -0.0882 -0.4807  0.0040
  101MOL   H14734347   1.420   0.921   1.728 -0.0100 -0.2876 -0.6847
  101MOL   H14834348   1.389   0.828   1.871 -2.3157  1.0351 -2.3568
  101MOL   H14934349   1.638   0.932   1.741 -1.8525  2.7337  1.5941
  101MOL   H15034350   1.627   0.671   2.009  0.9667  0.0506 -1.6059
  101MOL   H15134351   1.760   0.672   2.205  2.7491  0.7134  0.0590
  101MOL   H15234352   1.887   0.875   2.268 -1.4821  0.6577  0.9842
  101MOL   H15334353   1.886   1.079   2.103  1.4200 -0.2220 -2.3086
  101MOL   H15434354   1.756   1.076   1.913 -0.0078  0.0642  0.4688
  101MOL   C15534355   1.719   0.683   1.689  0.8668  0.3590  0.4774
  101MOL   C15634356   1.735   0.537   1.714 -0.0074  0.1710 -0.6988
  101MOL   C15734357   1.604   0.460   1.703  0.2979  0.2031  0.2006
  101MOL   C15834358   1.544   0.414   1.824 -0.1634  0.0563 -0.1800
  101MOL   C15934359   1.437   0.322   1.816  0.2503  0.3674 -0.7554
  101MOL   C16034360   1.375   0.291   1.694 -0.0597 -0.1455  0.2563
  101MOL   C16134361   1.435   0.343   1.573  0.3976 -0.4206 -0.3078
  101MOL   C16234362   1.544   0.428   1.581 -0.0404  0.7240  0.1512
  101MOL   O16334363   1.825   0.490   1.613 -0.1210 -0.1456  0.3154
  101MOL   H16434364   1.804   0.741   1.724  1.0400  0.3949 -0.0019
  101MOL   H16534365   1.696   0.720   1.589 -0.6904  0.7664  0.9597
  101MOL   H16634366   1.781   0.528   1.812 -0.6876  1.0811 -0.2870
  101MOL   H16734367   1.581   0.436   1.923 -1.6617 -2.5703  1.0292
  101MOL   H16834368   1.393   0.283   1.907  0.0745  0.5965 -0.7395
  101MOL   H16934369   1.285   0.232   1.683  0.4909 -0.6260 -1.9165
  101MOL   H17034370   1.385   0.317   1.481 -1.3509  2.1323 -0.1590
  101MOL   H17134371   1.595   0.471   1.496 -0.5836  4.1378  1.4412
  101MOL   C17234372   1.964   0.523   1.615 -0.3754  0.3633  0.3269
  101MOL   C17334373   2.023   0.557   1.470  0.1635 -0.3393  0.0330
  101MOL   C17434374   2.175   0.573   1.480  0.4608 -0.1703 -0.8664
  101MOL   C17534375   2.257   0.464   1.518 -0.5908  1.0326 -0.4092
  101MOL   C17634376   2.397   0.478   1.529 -0.8828  0.1407 -0.5788
  101MOL   C17734377   2.459   0.600   1.498 -0.5838  0.2147  0.1220
  101MOL   C17834378   2.383   0.710   1.450  0.0541 -0.2857  0.0810
  101MOL   C17934379   2.246   0.694   1.443  0.6011 -0.2417  0.4495
  101MOL   O18034380   1.950   0.672   1.430  0.0186  0.4251  0.0414
  101MOL   H18134381   1.986   0.604   1.685  2.6624 -0.0327 -0.1044
  101MOL   H18234382   2.018   0.435   1.652  0.8853  1.2671  0.6940
  101MOL   H18334383   1.999   0.472   1.407 -0.5816  0.1628 -0.3642
  101MOL   H18434384   2.223   0.362   1.532 -0.1820  0.8739 -0.5683
  101MOL   H18534385   2.454   0.391   1.560 -0.9792  0.7517  1.3929
  101MOL   H18634386   2.564   0.611   1.523 -0.8940  0.7249  1.2436
  101MOL   H18734387   2.426   0.802   1.415  0.5607 -0.7403 -0.5083
  101MOL   H18834388   2.189   0.767   1.386  1.6362  1.2415  1.2672
  101MOL   C18934389   1.943   0.688   1.288 -0.1600 -0.2210 -0.3412
  101MOL   C19034390   1.799   0.745   1.252  0.2397 -0.1938 -0.1045
  101MOL   C19134391   1.768   0.880   1.315 -0.3378 -0.3639 -0.1886
  101MOL   C19234392   1.845   0.993   1.279 -0.2236  0.0553  0.1399
  101MOL   C19334393   1.826   1.123   1.331 -0.4093  0.8660  0.3194
  101MOL   C19434394   1.731   1.133   1.430 -0.7334  0.4017  0.1419
  101MOL   C19534395   1.641   1.026   1.459  0.1985  0.4053  0.1232
  101MOL   C19634396   1.658   0.894   1.404  0.3607  0.5085  0.6806
  101MOL   O19734397   1.695   0.647   1.266 -0.3125 -0.2089  0.0550
  101MOL   H19834398   2.009   0.770   1.259 -1.4742  0.5989 -1.0992
  101MOL   H19934399   1.970   0.601   1.227  1.8704 -0.1153  0.3860
  101MOL   H20034400   1.793   0.773   1.147  0.1480 -1.7766 -0.5401
  101MOL   H20134401   1.912   0.967   1.198 -0.0718  1.6537 -0.2632
  101MOL   H20234402   1.885   1.205   1.293 -3.3484  1.4407 -3.2105
  101MOL   H20334403   1.722   1.230   1.477  1.6843  1.2338 -1.0117
  101MOL   H20434404   1.567   1.049   1.535  0.9005  0.3555  0.8204
  101MOL   H20534405   1.581   0.819   1.411 -0.5201  1.2880 -0.3863
  101MOL   C20634406   1.696   0.542   1.171 -0.3338 -0.6095  0.0245
  101MOL   C20734407   1.571   0.455   1.184  0.2267 -0.7645 -0.2381
  101MOL   C20834408   1.594   0.322   1.124 -0.2999  0.2939 -0.5116
  101MOL   C20934409   1.628   0.307   0.991  0.7493  0.2676 -0.1131
  101MOL   C21034410   1.656   0.181   0.933  0.0165  0.2030  0.3426
  101MOL   C21134411   1.675   0.073   1.023 -0.1733  0.2142  0.6837
  101MOL   C21234412   1.624   0.081   1.149  0.2136  0.1297  0.4149
  101MOL   C21334413   1.583   0.205   1.206  0.6554 -0.1583  0.0427
  101MOL   O21434414   1.452   0.516   1.125  0.1179 -0.4869  0.0528
  101MOL   H21534415   1.710   0.569   1.067  0.6535 -1.9248 -0.1909
  101MOL   H21634416   1.779   0.475   1.195 -2.1550 -2.5305  1.1809
  101MOL   H21734417   1.550   0.441   1.290 -0.2504 -3.2686 -0.6290
  101MOL   H21834418   1.632   0.390   0.923  1.4264  0.2154 -0.1441
  101MOL   H21934419   1.664   0.181   0.826  0.7902  1.0186  0.3883
  101MOL   H22034420   1.714   8.063   0.980 -0.7338  1.3153 -2.2340
  101MOL   H22134421   1.629   8.066   1.200 -1.4820 -1.3368 -1.9929
  101MOL   H22234422   1.547   0.204   1.308 -1.5956  2.0880 -0.6927
  101MOL   C22334423   1.337   0.433   1.129 -0.0757 -0.2214  0.3113
  101MOL   C22434424   1.219   0.532   1.134 -0.4147  0.9270  0.1353
  101MOL   C22534425   1.090   0.465   1.091  1.1791  0.1417  0.2233
  101MOL   C22634426   1.056   0.461   0.953  0.4258  1.0238  0.3720
  101MOL   C22734427   0.938   0.399   0.910 -0.0059 -0.2872 -0.1707
  101MOL   C22834428   0.863   0.322   1.004  0.7959 -0.2209 -0.2784
  101MOL   C22934429   0.895   0.330   1.142  0.0447 -0.3999  0.4590
  101MOL   C23034430   1.009   0.402   1.188 -0.1804 -0.1293 -0.2453
  101MOL   O23134431   1.203   0.578   1.265  0.1408  0.5323 -0.3436
  101MOL   H23234432   1.323   0.368   1.043 -1.1847 -0.9277  1.0161
  101MOL   H23334433   1.342   0.361   1.211  0.4440 -0.1575  0.3371
  101MOL   H23434434   1.224   0.623   1.074  1.0963 -0.0989 -1.3413
  101MOL   H23534435   1.134   0.506   0.892 -1.0430  2.2516 -0.6273
  101MOL   H23634436   0.907   0.400   0.806  1.4485  0.0770 -0.6115
  101MOL   H23734437   0.786   0.253   0.975 -0.1065  1.9908 -3.4514
  101MOL   H23834438   0.840   0.275   1.217 -0.6389 -0.6766 -0.2419
  101MOL   H23934439   1.022   0.409   1.294  0.0456 -0.7623 -0.2286
  101MOL   C24034440   1.309   0.655   1.332 -0.0033  0.2145  0.0108
  101MOL   C24134441   1.246   0.741   1.436 -0.3835 -0.4082 -0.5858
  101MOL   C24234442   1.157   0.851   1.383 -0.4319 -0.5504  0.5857
  101MOL   C24334443   1.018   0.851   1.382 -0.4854  0.2845 -0.2386
  101MOL   C24434444   0.941   0.967   1.345  0.0256 -0.9286  0.1520
  101MOL   C24534445   1.008   1.084   1.302 -0.4671 -0.2172 -0.6544
  101MOL   C24634446   1.151   1.085   1.306  0.5302  0.0747 -0.0136
  101MOL   C24734447   1.221   0.971   1.346 -0.5671 -0.9791 -0.7505
  101MOL   O24834448   1.175   0.657   1.526  0.5540  0.2687  0.0988
  101MOL   H24934449   1.381   0.577   1.357 -0.8823 -0.6954 -0.2137
  101MOL   H25034450   1.352   0.721   1.257  0.0354  1.1378  0.8461
  101MOL   H25134451   1.317   0.802   1.492 -0.2403 -1.0386 -0.0763
  101MOL   H25234452   0.966   0.767   1.427  0.3600  0.1948  0.5812
  101MOL   H25334453   0.834   0.962   1.353 -0.0158  1.3890  1.4649
  101MOL   H25434454   0.947   1.166   1.269 -0.9650 -0.8141 -1.2172
  101MOL   H25534455   1.213   1.171   1.283  0.3377 -0.3349 -2.2263
  101MOL   H25634456   1.328   0.979   1.359 -1.0043  1.0847  2.2346
  101MOL   C25734457   1.164   0.696   1.662  0.4560  0.6102 -0.3080
  101MOL   C25834458   1.145   0.567   1.739 -0.5043  0.2638  0.9494
  101MOL   C25934459   1.023   0.485   1.703  0.0265  0.6704 -0.0775
  101MOL   C26034460   1.030   0.399   1.590 -0.3523 -0.6865  0.5194
  101MOL   C26134461   0.926   0.319   1.551  0.3157  0.3682  0.0036
  101MOL   C26234462   0.807   0.313   1.630 -0.5035 -0.2546  0.2492
  101MOL   C26334463   0.802   0.382   1.750  0.0120  0.2183  0.4529
  101MOL   C26434464   0.910   0.469   1.790  0.1499 -0.0400  1.0517
  101MOL   O26534465   1.130   0.623   1.874  0.0045  0.1383  0.0463
  101MOL   H26634466   1.082   0.766   1.672 -1.9651 -2.1754  0.2295
  101MOL   H26734467   1.258   0.742   1.691 -0.2631  0.4998  2.4150
  101MOL   H26834468   1.229   0.499   1.726 -0.4515  0.5266 -0.1426
  101MOL   H26934469   1.114   0.407   1.522 -1.2819 -2.9865 -0.9352
  101MOL   H27034470   0.935   0.261   1.460  1.1559 -0.9485  0.9154
  101MOL   H27134471   0.730   0.241   1.605 -0.0222  0.0508 -2.3072
  101MOL   H27234472   0.722   0.373   1.823 -0.2078  0.3853  0.2360
  101MOL   H27334473   0.897   0.525   1.881 -0.0395 -0.4824  1.2988
  101MOL   C27434474   1.232   0.584   1.967  0.6300 -0.1364 -0.5308
  101MOL   C27534475   1.195   0.632   2.113  0.1053 -0.4907  0.2045
  101MOL   C27634476   1.303   0.605   2.217 -0.3020 -0.0829  0.3030
  101MOL   C27734477   1.329   0.478   2.267 -0.0084 -0.3842 -0.6812
  101MOL   C27834478   1.438   0.457   2.348  0.5910  0.1281 -0.8847
  101MOL   C27934479   1.524   0.562   2.387 -0.3601  0.1922 -0.0107
  101MOL   C28034480   1.488   0.689   2.344 -0.2252  0.8407 -0.0719
  101MOL   C28134481   1.380   0.714   2.256  0.1685  0.1097  0.6034
  101MOL   O28234482   1.075   0.557   2.142 -0.2869  0.1893  0.0345
  101MOL   H28334483   1.251   0.477   1.963  2.0686  0.1023 -0.3154
  101MOL   H28434484   1.323   0.629   1.930  0.5720 -0.6856 -1.3427
  101MOL   H28534485   1.167   0.736   2.132  0.3025  0.1213 -2.6353
  101MOL   H28634486   1.268   0.396   2.230 -1.4009  0.3540 -0.0417
  101MOL   H28734487   1.461   0.354   2.373  0.4950  0.4519  0.5778
  101MOL   H28834488   1.612   0.535   2.444  1.9461  2.3770 -2.3851
  101MOL   H28934489   1.553   0.771   2.371 -1.3411  2.3033 -1.6908
  101MOL   H29034490   1.356   0.812   2.218  2.5311  0.9481  1.1852
  101MOL   C29134491   1.003   0.586   2.261  0.6609  0.1704  0.3937
  101MOL   C29234492   0.878   0.498   2.255 -0.2457 -0.1446 -0.1149
  101MOL   C29334493   0.926   0.351   2.277 -0.7397 -0.9921  0.1932
  101MOL   C29434494   0.951   0.300   2.408  0.4517 -0.3789  0.3042
  101MOL   C29534495   1.006   0.174   2.411 -0.2573 -0.3950 -0.5674
  101MOL   C29634496   1.038   0.102   2.295 -0.0437  0.0032 -0.2907
  101MOL   C29734497   1.007   0.149   2.170 -0.4211 -0.0904 -0.5879
  101MOL   C29834498   0.955   0.281   2.160  0.1777 -0.3706 -0.0752
  101MOL   O29934499   0.811   0.545   2.369  0.7503 -0.0925 -0.2471
  101MOL   H30034500   0.982   0.692   2.274  0.3208 -0.1102  2.2074
  101MOL   H30134501   1.064   0.558   2.347  0.0671 -3.4620 -0.2558
  101MOL   H30234502   0.823   0.501   2.162 -0.2299 -0.6394 -0.1404
  101MOL   H30334503   0.925   0.346   2.501 -0.6685  0.3208 -0.3405
  101MOL   H30434504   1.024   0.124   2.506  0.1497  1.1325  0.1751
  101MOL   H30534505   1.093   0.009   2.309 -0.6521  0.0950  3.0997
  101MOL   H30634506   1.039   0.093   2.084  0.5507  1.3045 -1.1594
  101MOL   H30734507   0.951   0.334   2.066 -1.3906  0.5532  0.5012
  101MOL   C30834508   0.674   0.549   2.351 -0.3652  0.5779  0.4108
  101MOL   C30934509   0.612   0.546   2.486  0.1880 -0.1522 -0.1170
  101MOL   C31034510   0.462   0.569   2.489  0.1025 -0.2758  0.9761
  101MOL   C31134511   0.379   0.510   2.390  0.4583  0.0830 -0.3271
  101MOL   C31234512   0.239   0.531   2.387  0.2848  0.2811 -0.7690
  101MOL   C31334513   0.176   0.604   2.484  0.2550  0.1963 -0.5673
  101MOL   C31434514   0.257   0.662   2.587  0.6735 -0.1671  0.4531
  101MOL   C31534515   0.396   0.650   2.585 -0.0454 -0.2635  0.4366
  101MOL   O31634516   0.637   0.420   2.547  0.1635  0.2410  0.2380
  101MOL   H31734517   0.649   0.454   2.303 -0.2474  0.5564  0.3910
  101MOL   H31834518   0.656   0.637   2.289 -1.2142  0.7920  0.9471
  101MOL   H31934519   0.647   0.632   2.542  1.7751 -1.2298  0.5935
  101MOL   H32034520   0.410   0.443   2.312  1.5128 -0.5904  0.6532
  101MOL   H32134521   0.185   0.473   2.313  0.0595 -1.9635  1.0788
  101MOL   H32234522   0.073   0.632   2.475  0.6007  1.2485 -1.3721
  101MOL   H32334523   0.217   0.716   2.672  0.4576  0.5727 -0.1116
  101MOL   H32434524   0.456   0.689   2.666 -0.5495 -1.0327  1.1783
  101MOL   C32534525   0.600   0.413   2.686 -0.1992  0.0021 -0.2861
  101MOL   C32634526   0.641   0.278   2.733 -0.1120  0.7047  0.0308
  101MOL   C32734527   0.567   0.158   2.674  0.4535  0.0985  0.0923
  101MOL   C32834528   0.640   0.038   2.648 -0.3977 -0.0731 -0.7672
  101MOL   C32934529   0.580   8.009   2.583 -0.1645 -0.7479  0.0517
  101MOL   C33034530   0.443   8.014   2.552  0.2448 -0.3496 -0.2890
  101MOL   C33134531   0.368   0.044   2.589  0.5850  0.0555 -0.9798
  101MOL   C33234532   0.427   0.162   2.653 -0.0166  0.6329 -0.5515
  101MOL   O33334533   0.782   0.268   2.702 -0.4157  0.4471  0.5540
  101MOL   H33434534   0.492   0.422   2.690 -0.3129 -0.5195 -1.7743
  101MOL   H33534535   0.653   0.495   2.735 -1.4852 -0.1362  1.3819
  101MOL   H33634536   0.623   0.280   2.840  0.9731 -1.0173  0.2546
  101MOL   H33734537   0.747   0.041   2.666 -0.4426  2.2241 -0.7243
  101MOL   H33834538   0.640   7.923   2.556  0.4727 -0.1640 -0.3978
  101MOL   H33934539   0.408   7.930   2.492  1.8569 -0.5800 -0.9434
  101MOL   H34034540   0.262   0.050   2.570 -0.0439  0.5895  2.2819
  101MOL   H34134541   0.364   0.247   2.678  0.1018  0.1902  1.3008
  101MOL   H34234542   0.789   0.270   2.607  1.6032  3.0361  0.7060
  102MOL     C134543   0.906   1.730   4.336 -0.1052 -0.4705  0.1231
  102MOL     C234544   0.861   1.774   4.477 -0.7254 -0.2803 -0.0891
  102MOL     C334545   0.985   1.818   4.559 -0.2469  0.1018 -0.3538
  102MOL     C434546   1.056   1.932   4.517  0.4048 -0.4724 -0.2271
  102MOL     C534547   1.169   1.977   4.588 -0.2008 -0.7070 -0.8231
  102MOL     C634548   1.213   1.907   4.709 -0.6286 -0.6794  0.6121
  102MOL     C734549   1.141   1.791   4.750 -0.0336  0.3631  0.5992
  102MOL     C834550   1.025   1.749   4.681 -0.2339 -0.1704  0.2991
  102MOL     O934551   0.798   1.667   4.540  0.4421 -0.0308 -0.4934
  102MOL    H1034552   0.820   1.691   4.281 -2.6114  1.6377  2.4137
  102MOL    H1134553   0.941   1.820   4.286 -0.9669  0.8832  1.9013
  102MOL    H1234554   0.790   1.856   4.465 -1.0620 -0.6047 -0.3055
  102MOL    H1334555   1.020   1.989   4.432 -2.1238  1.9809  2.3497
  102MOL    H1434556   1.210   2.072   4.560  1.1085 -1.5220 -1.6996
  102MOL    H1534557   1.289   1.947   4.774  1.2858 -0.3242 -1.7725
  102MOL    H1634558   1.166   1.745   4.844  0.3085 -0.2198  0.2252
  102MOL    H1734559   0.976   1.662   4.722 -1.0409 -0.0899 -0.4728
  102MOL    H1834560   0.989   1.660   4.342 -1.0974 -1.4994  2.5036
  102MOL    C1934561   0.677   1.703   4.613 -0.2081 -0.1476  0.2204
  102MOL    C2034562   0.549   1.666   4.534 -0.5158  0.7503 -0.0137
  102MOL    C2134563   0.535   1.732   4.401 -0.0263 -0.8642  0.2944
  102MOL    C2234564   0.559   1.662   4.277  0.3739  0.0137 -1.0783
  102MOL    C2334565   0.556   1.726   4.147  0.4202 -0.3670 -0.3394
  102MOL    C2434566   0.519   1.860   4.147 -0.0864 -0.1910 -0.6970
  102MOL    C2534567   0.496   1.932   4.264  0.2324  0.2506  0.0681
  102MOL    C2634568   0.519   1.870   4.385 -0.0340  0.5602 -0.3125
  102MOL    O2734569   0.438   1.692   4.618  0.2866  0.3436 -0.2217
  102MOL    H2834570   0.677   1.644   4.705 -1.4842 -1.6100 -0.6978
  102MOL    H2934571   0.692   1.803   4.653  1.1758 -0.6200  0.9079
  102MOL    H3034572   0.556   1.557   4.538  2.5770  0.9343  0.9395
  102MOL    H3134573   0.592   1.559   4.273 -4.4643 -1.7031  0.3685
  102MOL    H3234574   0.573   1.671   4.056 -0.3286  0.6490 -1.1103
  102MOL    H3334575   0.508   1.911   4.052  2.1865  0.1222 -0.8226
  102MOL    H3434576   0.493   2.039   4.256  2.0162  0.2896 -0.3245
  102MOL    H3534577   0.515   1.932   4.474  1.8710 -0.9214  0.8454
  102MOL    C3634578   0.330   1.603   4.592  0.7827  0.0827  0.3803
  102MOL    C3734579   0.198   1.638   4.668 -0.7203  0.4310  0.0810
  102MOL    C3834580   0.086   1.540   4.651 -0.5196 -0.3965  0.2185
  102MOL    C3934581   0.076   1.431   4.732 -0.0981 -0.6099  0.5442
  102MOL    C4034582   8.055   1.327   4.708 -0.0489  0.6072 -0.5902
  102MOL    C4134583   7.986   1.331   4.586  0.2443  0.3688 -0.0476
  102MOL    C4234584   8.014   1.433   4.493 -0.2494 -0.1323 -0.2998
  102MOL    C4334585   0.019   1.539   4.533  0.2806 -0.1071 -0.2130
  102MOL    O4434586   0.155   1.770   4.632 -0.3336 -0.3355 -0.0662
  102MOL    H4534587   0.305   1.610   4.486  1.0034 -0.1020  0.3156
  102MOL    H4634588   0.359   1.498   4.601 -0.2355 -0.2233  0.0966
  102MOL    H4734589   0.210   1.631   4.776  2.0338  1.7452 -0.0846
  102MOL    H4834590   0.141   1.416   4.817  2.2106  2.3322 -0.6167
  102MOL    H4934591   8.041   1.239   4.768  1.9164 -0.1720 -1.2262
  102MOL    H5034592   7.911   1.256   4.564 -0.6671  0.9091  1.1597
  102MOL    H5134593   7.962   1.449   4.400  0.3657 -0.3828 -0.6902
  102MOL    H5234594   0.035   1.625   4.471  0.2845  0.6906  0.8761
  102MOL    C5334595   0.190   1.871   4.729  0.5409 -0.2099 -0.3200
  102MOL    C5434596   0.128   2.006   4.695  0.1224  0.1196  0.2119
  102MOL    C5534597   0.156   2.042   4.547  0.3552  0.1920 -0.1203
  102MOL    C5634598   0.050   2.030   4.455 -0.5384  0.2173  0.1888
  102MOL    C5734599   0.058   2.084   4.331  0.2207 -0.6752 -0.5198
  102MOL    C5834600   0.175   2.150   4.290  0.4927 -0.4166 -0.7179
  102MOL    C5934601   0.286   2.144   4.379  0.2631  0.3902 -0.0046
  102MOL    C6034602   0.280   2.086   4.508 -0.5365 -0.4348  0.7540
  102MOL    O6134603   8.071   1.987   4.726  0.2504  0.1853 -0.2302
  102MOL    H6234604   0.155   1.841   4.828  2.3991  1.2568  0.8050
  102MOL    H6334605   0.299   1.868   4.724  0.5869 -0.9129  0.9510
  102MOL    H6434606   0.177   2.078   4.760  0.2623  1.0627 -0.9051
  102MOL    H6534607   8.032   1.998   4.488 -0.1101  1.9295  3.3615
  102MOL    H6634608   8.047   2.071   4.275  1.6319  0.5633 -3.1489
  102MOL    H6734609   0.182   2.194   4.191  0.8538  1.0495 -0.0613
  102MOL    H6834610   0.380   2.189   4.352  0.0373  1.3542  0.7743
  102MOL    H6934611   0.370   2.095   4.567  0.1177 -1.1154 -0.1423
  102MOL    C7034612   8.006   2.111   4.737  0.2435 -0.0587 -0.3603
  102MOL    C7134613   7.854   2.072   4.748  0.7942 -0.2234  0.3769
  102MOL    C7234614   7.822   1.961   4.846  0.7828  0.7945  0.5622
  102MOL    C7334615   7.829   1.825   4.803 -0.0360 -0.4492 -0.1177
  102MOL    C7434616   7.801   1.722   4.893  0.5594 -0.6033 -0.8937
  102MOL    C7534617   7.758   1.745   5.026  0.0783  0.5227  0.2020
  102MOL    C7634618   7.754   1.878   5.068  0.4375  0.3177  0.6259
  102MOL    C7734619   7.782   1.984   4.978  0.1347 -0.2063  0.2095
  102MOL    O7834620   7.808   2.049   4.618  0.0193  0.5565  0.1159
  102MOL    H7934621   8.042   2.163   4.826  0.5420  0.7365 -0.9487
  102MOL    H8034622   8.024   2.183   4.658  1.3006 -1.4238 -1.3870
  102MOL    H8134623   7.795   2.154   4.789  3.2342  2.1986 -0.8068
  102MOL    H8234624   7.854   1.801   4.701  0.5906  2.1257 -0.6191
  102MOL    H8334625   7.805   1.624   4.849  0.7092 -1.0848  0.1859
  102MOL    H8434626   7.731   1.663   5.090 -0.8234  1.3237  0.8526
  102MOL    H8534627   7.732   1.908   5.169  0.2455 -0.5129  0.8309
  102MOL    H8634628   7.769   2.087   5.006 -1.6021 -0.9575  2.2820
  102MOL    C8734629   7.676   2.071   4.584  0.7936 -1.0982  0.0617
  102MOL    C8834630   7.645   2.214   4.520  0.5153 -0.6091  0.2521
  102MOL    C8934631   7.724   2.236   4.387  0.0468 -0.0422 -1.4585
  102MOL    C9034632   7.848   2.300   4.381 -0.0022  0.6548  0.4063
  102MOL    C9134633   7.939   2.297   4.268 -0.5878  0.3783 -0.6777
  102MOL    C9234634   7.885   2.234   4.147  0.4519  0.3990 -0.3251
  102MOL    C9334635   7.758   2.169   4.156  0.2567  0.1270  0.3573
  102MOL    C9434636   7.680   2.172   4.272  0.2958 -0.4777 -0.1534
  102MOL    O9534637   7.683   2.313   4.624 -0.5099 -0.3773  0.1761
  102MOL    H9634638   7.621   2.055   4.676  0.3402 -0.8198 -0.1557
  102MOL    H9734639   7.645   1.991   4.516  0.6680 -2.0423  1.2165
  102MOL    H9834640   7.536   2.209   4.512  0.4899 -0.7646  0.7012
  102MOL    H9934641   7.895   2.346   4.467  0.6229  1.1059 -0.1664
  102MOL   H10034642   8.042   2.330   4.273  0.7103 -3.5295  0.3752
  102MOL   H10134643   7.942   2.245   4.056  0.5006 -1.9398 -0.6026
  102MOL   H10234644   7.705   2.130   4.071 -0.6506 -2.2072  1.9429
  102MOL   H10334645   7.577   2.139   4.272  0.5621 -1.3316 -0.2587
  102MOL   C10434646   7.621   2.440   4.609  0.3081 -0.2749  0.1448
  102MOL   C10534647   7.705   2.536   4.697  0.0984 -0.5690 -0.4975
  102MOL   C10634648   7.726   2.473   4.833  0.4860  0.0679 -0.0901
  102MOL   C10734649   7.625   2.473   4.927  0.3407  0.4727  0.7029
  102MOL   C10834650   7.641   2.415   5.051  0.5030 -0.4561  0.4259
  102MOL   C10934651   7.767   2.360   5.096  0.3698 -0.3701 -0.0888
  102MOL   C11034652   7.870   2.356   5.000  0.4530 -0.2412  0.2568
  102MOL   C11134653   7.851   2.415   4.870  0.4075  0.0468 -0.0320
  102MOL   O11234654   7.833   2.565   4.639  0.0315  0.1342 -0.5830
  102MOL   H11334655   7.610   2.472   4.505 -2.1573 -4.4118 -0.9863
  102MOL   H11434656   7.519   2.426   4.644  0.5960 -0.8629  0.7692
  102MOL   H11534657   7.656   2.631   4.713 -1.7113 -0.9981 -3.1912
  102MOL   H11634658   7.531   2.518   4.901 -0.7060 -0.8509  2.1169
  102MOL   H11734659   7.560   2.412   5.122  0.0691  0.0085 -0.0395
  102MOL   H11834660   7.785   2.324   5.196  0.2020  0.4112  0.2285
  102MOL   H11934661   7.962   2.311   5.035  0.4912  0.9057  1.7009
  102MOL   H12034662   7.925   2.416   4.792  0.8917 -1.4759  0.4026
  102MOL   C12134663   7.845   2.682   4.569 -0.0362  0.1189 -0.3654
  102MOL   C12234664   7.987   2.704   4.526 -0.3893  0.1548 -0.7059
  102MOL   C12334665   7.999   2.783   4.399  0.1954  0.1361  0.6338
  102MOL   C12434666   8.003   2.714   4.275  0.0478  0.0988 -0.0470
  102MOL   C12534667   7.977   2.782   4.151  0.3650  0.0799  0.1205
  102MOL   C12634668   7.976   2.924   4.154 -0.0405  0.3790 -0.5950
  102MOL   C12734669   7.990   2.994   4.277 -0.5938  0.1053  0.0430
  102MOL   C12834670   7.997   2.922   4.398  1.3991  0.6067  0.5640
  102MOL   O12934671   8.050   2.774   4.629 -0.3170 -0.2218  0.4164
  102MOL   H13034672   7.818   2.767   4.633 -0.4271 -1.3653  1.5027
  102MOL   H13134673   7.779   2.681   4.483 -0.7512 -2.4575  0.1845
  102MOL   H13234674   8.046   2.615   4.505 -0.0197  0.0799  0.6557
  102MOL   H13334675   8.003   2.607   4.282 -1.4130  0.0464 -0.8533
  102MOL   H13434676   7.983   2.725   4.059  2.2533  0.4768 -0.0239
  102MOL   H13534677   7.981   2.983   4.064  2.1051 -1.4119 -1.7019
  102MOL   H13634678   7.993   3.102   4.281 -0.5375  0.0630  1.3508
  102MOL   H13734679   8.000   2.970   4.494  1.5986 -0.1914  0.9576
  102MOL   C13834680   0.053   2.705   4.712  0.0086 -0.7584  0.5212
  102MOL   C13934681   0.073   2.789   4.836  0.4690 -0.1971  0.3570
  102MOL   C14034682   0.128   2.698   4.943 -0.2769  0.6012  0.1034
  102MOL   C14134683   0.038   2.618   5.023  0.1629 -0.3860 -0.1633
  102MOL   C14234684   0.091   2.545   5.128 -0.0104 -0.0426 -0.1350
  102MOL   C14334685   0.236   2.531   5.133  0.0711 -0.3921  0.4138
  102MOL   C14434686   0.323   2.601   5.048 -0.0847 -0.5407 -0.2554
  102MOL   C14534687   0.270   2.701   4.962  0.0078  0.7394 -0.1659
  102MOL   O14634688   0.150   2.905   4.817 -0.2041  0.2750  0.4476
  102MOL   H14734689   0.151   2.684   4.669 -0.2896  0.3176 -0.7253
  102MOL   H14834690   0.003   2.613   4.742 -3.0613  0.4127 -0.7679
  102MOL   H14934691   8.056   2.825   4.871 -1.1518 -0.7353 -3.2916
  102MOL   H15034692   8.011   2.624   5.011  0.1560 -1.2167 -0.5346
  102MOL   H15134693   0.045   2.481   5.203 -2.0024  0.7482 -0.6487
  102MOL   H15234694   0.296   2.479   5.206  0.6908 -0.8108 -0.3853
  102MOL   H15334695   0.429   2.578   5.045  0.3988  1.7133 -1.5948
  102MOL   H15434696   0.328   2.772   4.904 -0.2556 -0.6651 -2.1932
  102MOL   C15534697   0.163   2.998   4.924  0.6480 -0.0646 -0.1897
  102MOL   C15634698   0.095   3.137   4.897 -0.1606 -0.0063  0.1281
  102MOL   C15734699   0.140   3.208   4.764  0.5837 -0.0676  0.0925
  102MOL   C15834700   0.106   3.156   4.638  0.4641  0.5677 -0.4960
  102MOL   C15934701   0.144   3.224   4.520 -0.4663  0.0766  0.7472
  102MOL   C16034702   0.212   3.346   4.527  0.8093  0.0730 -0.0412
  102MOL   C16134703   0.255   3.394   4.651 -0.4717  0.3480 -0.0642
  102MOL   C16234704   0.215   3.328   4.770  0.3361 -0.3088  0.4424
  102MOL   O16334705   8.035   3.108   4.898  0.8711  0.4358  0.4359
  102MOL   H16434706   0.270   3.009   4.946  0.7581 -0.5475 -0.4570
  102MOL   H16534707   0.119   2.950   5.011  0.3528 -0.2442 -0.4382
  102MOL   H16634708   0.134   3.193   4.982  0.5658 -1.2864  0.6538
  102MOL   H16734709   0.062   3.057   4.641  1.3767  0.1390 -0.9257
  102MOL   H16834710   0.110   3.177   4.429  0.2236  0.8224  0.0927
  102MOL   H16934711   0.247   3.408   4.446  3.0424  0.1578  0.9633
  102MOL   H17034712   0.302   3.491   4.656  1.8985 -0.7151 -0.8738
  102MOL   H17134713   0.251   3.369   4.863 -1.7593 -1.8224  1.9560
  102MOL   C17234714   7.951   3.220   4.918 -0.4145  0.2668  0.3814
  102MOL   C17334715   7.807   3.182   4.864 -0.9184 -0.5267  0.6974
  102MOL   C17434716   7.759   3.054   4.939 -0.2869  0.4943  0.1558
  102MOL   C17534717   7.665   3.065   5.049 -0.4864  0.2720 -0.6775
  102MOL   C17634718   7.616   2.950   5.109  0.1714  1.0896 -0.5277
  102MOL   C17734719   7.664   2.823   5.066 -0.1544 -0.9258  0.1003
  102MOL   C17834720   7.762   2.810   4.969  0.2110 -0.2161 -0.2198
  102MOL   C17934721   7.803   2.929   4.898 -0.0059  0.4760  0.5598
  102MOL   O18034722   7.808   3.171   4.714  0.6560  0.3499 -0.5299
  102MOL   H18134723   7.948   3.249   5.023 -1.6630  0.0137  0.4333
  102MOL   H18234724   7.991   3.302   4.858 -2.2631  0.2581 -0.9159
  102MOL   H18334725   7.744   3.267   4.888 -0.7444 -0.8979  2.4727
  102MOL   H18434726   7.623   3.163   5.066 -0.6702 -0.2436  2.1646
  102MOL   H18534727   7.543   2.956   5.188  1.3195 -0.0926  0.6706
  102MOL   H18634728   7.623   2.737   5.117  0.9744 -2.4094 -1.3846
  102MOL   H18734729   7.809   2.715   4.947 -0.0259  0.1163 -2.2039
  102MOL   H18834730   7.868   2.930   4.812  2.1790 -1.3284  2.1579
  102MOL   C18934731   7.679   3.152   4.660  0.3071 -0.0850 -0.1057
  102MOL   C19034732   7.696   3.110   4.506  0.3227 -0.3511 -0.5255
  102MOL   C19134733   7.736   3.221   4.410  0.4839  0.2715 -0.2989
  102MOL   C19234734   7.663   3.238   4.287 -0.6654 -0.3899  0.5122
  102MOL   C19334735   7.720   3.325   4.188 -0.1026  0.0434  0.1927
  102MOL   C19434736   7.829   3.405   4.217 -0.3823  0.2255  0.8117
  102MOL   C19534737   7.897   3.393   4.341  0.4115 -0.2497 -0.7974
  102MOL   C19634738   7.852   3.300   4.436  0.1183 -0.5683  0.4678
  102MOL   O19734739   7.574   3.040   4.473  0.1946  0.5974 -0.3858
  102MOL   H19834740   7.627   3.072   4.713 -2.3700  0.1863 -2.2117
  102MOL   H19934741   7.620   3.244   4.654 -1.4742 -1.1815  0.3410
  102MOL   H20034742   7.778   3.038   4.506 -0.8146 -1.6731 -0.2984
  102MOL   H20134743   7.577   3.173   4.274 -2.1795  1.2657  1.9279
  102MOL   H20234744   7.668   3.338   4.094  1.9896  0.1240 -0.9920
  102MOL   H20334745   7.878   3.471   4.147 -0.5226 -0.3502  0.1636
  102MOL   H20434746   7.986   3.448   4.367  0.5100 -0.0428 -1.5459
  102MOL   H20534747   7.912   3.275   4.522  0.8445 -2.6586 -0.6051
  102MOL   C20634748   7.592   2.917   4.408 -0.2102 -0.0682 -0.0812
  102MOL   C20734749   7.454   2.852   4.397 -0.4563  0.6261 -0.1106
  102MOL   C20834750   7.352   2.935   4.328  0.5317  0.1874  0.4183
  102MOL   C20934751   7.268   3.022   4.408  0.3761 -0.0663  0.0989
  102MOL   C21034752   7.168   3.103   4.348  0.4785 -0.3641  0.8033
  102MOL   C21134753   7.156   3.101   4.205 -0.8192  0.5357 -0.2273
  102MOL   C21234754   7.239   3.014   4.129  0.6455 -0.0992  0.5810
  102MOL   C21334755   7.333   2.930   4.192 -0.6584 -0.2657 -0.4051
  102MOL   O21434756   7.410   2.794   4.531 -0.6812 -0.3378 -0.2678
  102MOL   H21534757   7.631   2.938   4.308 -0.0902  0.3459  0.0508
  102MOL   H21634758   7.665   2.845   4.446 -0.7531 -0.1054  0.9054
  102MOL   H21734759   7.457   2.760   4.339 -1.8714 -0.9087  2.1611
  102MOL   H21834760   7.285   3.020   4.514  1.8362 -0.9363 -0.1225
  102MOL   H21934761   7.100   3.165   4.404 -1.2420  0.8758 -2.5471
  102MOL   H22034762   7.087   3.168   4.157  0.5216  0.6521 -2.0529
  102MOL   H22134763   7.226   3.012   4.022 -2.5620  1.6952  0.8732
  102MOL   H22234764   7.399   2.869   4.131  0.6697 -1.2214  1.9343
  102MOL   C22334765   7.307   2.698   4.520  0.7833  0.1584 -0.6337
  102MOL   C22434766   7.282   2.626   4.657 -0.0729  0.1607  0.1110
  102MOL   C22534767   7.219   2.722   4.769  0.0011  0.2322  0.5052
  102MOL   C22634768   7.086   2.758   4.767 -0.1056 -0.5015  0.5727
  102MOL   C22734769   7.029   2.852   4.858  0.5474  0.5453  0.1785
  102MOL   C22834770   7.107   2.913   4.959 -1.0340 -0.3009 -0.1699
  102MOL   C22934771   7.244   2.871   4.961 -0.3805 -0.8173  0.4689
  102MOL   C23034772   7.297   2.783   4.862 -0.5622 -0.9278  0.6724
  102MOL   O23134773   7.211   2.504   4.619  0.6801 -0.5240 -0.2284
  102MOL   H23234774   7.218   2.757   4.497  2.3006  3.0111  0.5760
  102MOL   H23334775   7.317   2.621   4.443 -1.4851 -2.2501  1.4052
  102MOL   H23434776   7.374   2.591   4.705  0.8426  1.4594 -0.6632
  102MOL   H23534777   7.029   2.703   4.694  2.5454 -0.3595 -1.6816
  102MOL   H23634778   6.925   2.878   4.845  0.1213 -1.7446 -1.2233
  102MOL   H23734779   7.063   2.987   5.025  0.2879 -0.5224  0.9831
  102MOL   H23834780   7.310   2.926   5.026 -1.7544  0.9928  0.3653
  102MOL   H23934781   7.404   2.765   4.859 -0.3335  0.1832  1.6260
  102MOL   C24034782   7.167   2.417   4.720 -0.0587 -0.3376  0.0859
  102MOL   C24134783   7.094   2.297   4.639  0.1703 -0.3083  0.0360
  102MOL   C24234784   7.182   2.196   4.577  0.4547  0.1324 -0.4818
  102MOL   C24334785   7.202   2.081   4.657  0.4897 -0.6849  0.1120
  102MOL   C24434786   7.274   1.978   4.593 -0.2259  0.8851  0.1061
  102MOL   C24534787   7.330   1.985   4.466  0.1162  0.7888 -0.2901
  102MOL   C24634788   7.303   2.100   4.389  0.1950  0.1941  0.1332
  102MOL   C24734789   7.234   2.205   4.446 -0.2322 -0.4049 -0.1490
  102MOL   O24834790   6.981   2.239   4.706 -0.2203 -0.1435 -0.0822
  102MOL   H24934791   7.255   2.377   4.769  0.5695  2.1393  1.0679
  102MOL   H25034792   7.104   2.464   4.796 -0.6174  0.9267 -1.1213
  102MOL   H25134793   7.042   2.347   4.557  0.0250 -1.3937 -0.5422
  102MOL   H25234794   7.171   2.070   4.760 -0.1694  0.3686  0.0341
  102MOL   H25334795   7.307   1.889   4.645  1.4959  1.5392  0.1556
  102MOL   H25434796   7.392   1.909   4.421  1.0276  1.9182 -0.9725
  102MOL   H25534797   7.351   2.110   4.293  1.6967 -1.4730  0.6829
  102MOL   H25634798   7.235   2.295   4.387  0.5025 -1.0269 -1.0993
  102MOL   C25734799   6.864   2.318   4.711 -0.7868  0.3958 -0.5904
  102MOL   C25834800   6.786   2.306   4.839  0.1621 -0.1564  0.2529
  102MOL   C25934801   6.859   2.355   4.968  0.1627  0.7062  0.3961
  102MOL   C26034802   6.886   2.265   5.070  0.9248  0.9500 -0.0402
  102MOL   C26134803   6.949   2.299   5.188  0.2343 -0.1101 -0.2995
  102MOL   C26234804   6.985   2.427   5.216  0.4877 -0.0403 -0.0162
  102MOL   C26334805   6.959   2.518   5.111  0.0456  0.0185 -0.5740
  102MOL   C26434806   6.907   2.482   4.984  0.3479 -0.4448 -0.6523
  102MOL   O26534807   6.725   2.174   4.860 -0.3936 -0.2516 -0.4381
  102MOL   H26634808   6.807   2.304   4.619  0.1809 -2.2817 -0.8154
  102MOL   H26734809   6.893   2.423   4.705 -1.1638  0.4723 -1.1450
  102MOL   H26834810   6.704   2.378   4.836 -1.0058 -1.2993  3.0527
  102MOL   H26934811   6.874   2.158   5.059  0.5481  1.0603 -0.7364
  102MOL   H27034812   6.974   2.221   5.258  0.8782  1.4551  1.2524
  102MOL   H27134813   7.042   2.446   5.306  1.6693  1.2736 -1.0229
  102MOL   H27234814   7.005   2.613   5.134  0.4992 -0.5785  1.0542
  102MOL   H27334815   6.901   2.552   4.902 -1.6615  0.4836  0.2532
  102MOL   C27434816   6.600   2.163   4.800 -0.0901 -0.1311 -0.2162
  102MOL   C27534817   6.540   2.021   4.813 -0.7499 -0.1624  0.3222
  102MOL   C27634818   6.463   1.988   4.683  0.1811 -0.1524  0.3882
  102MOL   C27734819   6.522   1.977   4.557 -0.1889  0.4223 -0.4217
  102MOL   C27834820   6.451   1.936   4.437 -0.4993  0.3030 -0.6085
  102MOL   C27934821   6.310   1.926   4.442 -0.2086  0.7287  0.2732
  102MOL   C28034822   6.251   1.934   4.573 -0.1380 -0.4206 -0.5055
  102MOL   C28134823   6.326   1.954   4.690  0.5166  0.2849 -0.7235
  102MOL   O28234824   6.450   2.011   4.918  0.7029  0.1144  0.0243
  102MOL   H28334825   6.527   2.238   4.830 -1.1740 -1.1970 -0.1246
  102MOL   H28434826   6.622   2.188   4.696  0.9225  1.5036  0.3776
  102MOL   H28534827   6.617   1.945   4.823 -0.1232  0.1631 -1.7604
  102MOL   H28634828   6.629   1.992   4.559 -0.3796  1.7302  0.1569
  102MOL   H28734829   6.501   1.912   4.344  0.2665  1.4505 -0.4939
  102MOL   H28834830   6.253   1.906   4.352 -2.5327  2.0110  1.4129
  102MOL   H28934831   6.145   1.916   4.584 -0.0443  0.5812  2.3421
  102MOL   H29034832   6.271   1.963   4.783 -0.5605 -2.0746 -1.0974
  102MOL   C29134833   6.496   2.020   5.046  0.4395  0.0532 -0.5644
  102MOL   C29234834   6.530   1.880   5.117  0.6588 -0.1161  0.4173
  102MOL   C29334835   6.407   1.796   5.129 -0.7062  0.2235  0.3298
  102MOL   C29434836   6.304   1.838   5.211 -0.3201 -0.4222  0.0541
  102MOL   C29534837   6.191   1.759   5.242  0.4226  0.1106 -0.1128
  102MOL   C29634838   6.184   1.632   5.189 -0.2574  0.4536 -0.1203
  102MOL   C29734839   6.287   1.588   5.102 -1.0671  0.1053  0.0015
  102MOL   C29834840   6.396   1.668   5.067  0.4531  0.0343 -0.0364
  102MOL   O29934841   6.637   1.816   5.052  0.5304  0.4070  0.4396
  102MOL   H30034842   6.428   2.073   5.114  3.4004  1.8907  1.0581
  102MOL   H30134843   6.579   2.090   5.052 -0.7257  1.4279 -0.2300
  102MOL   H30234844   6.563   1.880   5.221 -1.7331 -2.0791  1.2247
  102MOL   H30334845   6.313   1.932   5.262  0.3574 -1.5441  2.0415
  102MOL   H30434846   6.117   1.789   5.314  1.3066  2.1894 -0.0363
  102MOL   H30534847   6.100   1.569   5.213 -0.3807 -0.4403 -2.6928
  102MOL   H30634848   6.287   1.487   5.063  0.1224 -0.4840  1.4853
  102MOL   H30734849   6.474   1.635   5.000 -0.4769  3.0707 -2.7199
  102MOL   C30834850   6.758   1.893   5.061 -0.2352 -0.6243 -0.0762
  102MOL   C30934851   6.878   1.796   5.028  0.0356  0.6563 -0.0252
  102MOL   C31034852   6.897   1.770   4.878  0.1730 -0.0597 -0.4714
  102MOL   C31134853   6.932   1.877   4.792 -0.3764 -0.0157  0.2957
  102MOL   C31234854   6.942   1.867   4.652 -0.7610  0.1741  0.1122
  102MOL   C31334855   6.915   1.741   4.589  0.0685 -0.0812 -0.6656
  102MOL   C31434856   6.887   1.636   4.673 -0.2558  0.2626 -0.1098
  102MOL   C31534857   6.889   1.645   4.816 -0.1739 -0.1606  0.2765
  102MOL   O31634858   6.994   1.837   5.087 -0.0726  0.4523  0.1620
  102MOL   H31734859   6.766   1.931   5.163  1.5802 -0.8972 -0.0976
  102MOL   H31834860   6.767   1.980   4.997  0.7535 -0.7267 -0.0840
  102MOL   H31934861   6.861   1.700   5.076  0.0573  1.7456  2.2588
  102MOL   H32034862   6.954   1.970   4.842  0.0822  0.2131 -0.3329
  102MOL   H32134863   6.970   1.949   4.588 -0.8098 -0.6208 -0.9346
  102MOL   H32234864   6.919   1.733   4.481  0.6967 -1.5966 -0.5522
  102MOL   H32334865   6.867   1.544   4.620  0.4694 -0.9329  1.6189
  102MOL   H32434866   6.876   1.553   4.871  0.2806 -1.7893 -2.2609
  102MOL   C32534867   7.103   1.742   5.073 -0.3057  0.4467 -0.6820
  102MOL   C32634868   7.228   1.798   5.142  0.5780  0.2747 -0.6307
  102MOL   C32734869   7.281   1.926   5.081 -0.1395  0.4414 -0.6992
  102MOL   C32834870   7.202   2.043   5.094 -0.4959 -0.5837  0.6658
  102MOL   C32934871   7.242   2.158   5.027 -0.4687 -0.6475 -0.0394
  102MOL   C33034872   7.357   2.159   4.952 -0.9586 -0.2823 -0.5667
  102MOL   C33134873   7.436   2.046   4.945  0.0540  0.2474 -0.0068
  102MOL   C33234874   7.398   1.925   5.003  0.0952  0.4419  0.0032
  102MOL   O33334875   7.200   1.817   5.279  0.0528 -0.1144 -0.0220
  102MOL   H33434876   7.129   1.729   4.968 -0.9715 -0.1006 -0.7835
  102MOL   H33534877   7.066   1.646   5.110  0.4340  0.6851  0.7179
  102MOL   H33634878   7.304   1.721   5.133 -0.3563 -0.7794  0.2848
  102MOL   H33734879   7.128   2.054   5.172 -1.0366 -1.5626  0.2964
  102MOL   H33834880   7.200   2.257   5.018 -2.7144 -1.7326 -1.9284
  102MOL   H33934881   7.384   2.256   4.913  1.6498 -0.4762  0.6377
  102MOL   H34034882   7.535   2.046   4.902  0.4171  1.8490  0.8004
  102MOL   H34134883   7.462   1.838   4.991  0.2566  0.5791 -0.1310
  102MOL   H34234884   7.115   1.858   5.279 -0.6571 -1.4530  2.5393
  103MOL     C134885   3.286   6.254   4.481  0.4567 -0.1173  0.3743
  103MOL     C234886   3.355   6.381   4.437  0.1282 -0.6508 -0.5399
  103MOL     C334887   3.498   6.367   4.373  0.6026 -0.3516 -0.1054
  103MOL     C434888   3.608   6.374   4.455 -0.2914  0.2896  0.6579
  103MOL     C534889   3.743   6.356   4.409  0.2617  0.5419  0.1711
  103MOL     C634890   3.764   6.349   4.270 -0.9503  0.0911  0.5163
  103MOL     C734891   3.654   6.350   4.182  0.7916  0.0662  0.1671
  103MOL     C834892   3.523   6.347   4.233 -0.1268 -0.0665 -0.4621
  103MOL     O934893   3.354   6.460   4.556 -0.0780 -0.4927 -0.3387
  103MOL    H1034894   3.185   6.263   4.523  0.5404 -1.8961  1.0274
  103MOL    H1134895   3.294   6.172   4.410 -1.8250  1.2319 -1.4952
  103MOL    H1234896   3.287   6.431   4.368 -0.8473  1.3683  1.8453
  103MOL    H1334897   3.598   6.380   4.562  1.6058  2.8017  0.7401
  103MOL    H1434898   3.824   6.354   4.479 -0.6463 -2.4204  1.2168
  103MOL    H1534899   3.863   6.353   4.226 -0.5977  1.2159  1.3698
  103MOL    H1634900   3.659   6.339   4.074 -0.3598  2.2855 -0.1310
  103MOL    H1734901   3.445   6.338   4.159  0.1610 -0.7464 -0.6917
  103MOL    H1834902   3.347   6.216   4.563  0.8719  1.0673  0.6283
  103MOL    C1934903   3.387   6.598   4.527 -1.4055  0.5669 -0.0233
  103MOL    C2034904   3.410   6.668   4.667  0.1848  0.2056  0.8565
  103MOL    C2134905   3.530   6.602   4.740  1.2971 -0.5710  0.0800
  103MOL    C2234906   3.651   6.672   4.729 -0.5544  0.0889  0.4855
  103MOL    C2334907   3.763   6.625   4.795  0.0232 -0.2536 -0.0676
  103MOL    C2434908   3.759   6.501   4.863  0.3907  0.0362 -0.4295
  103MOL    C2534909   3.636   6.438   4.888  0.1573 -0.1079  0.7520
  103MOL    C2634910   3.518   6.488   4.825 -0.2915 -0.9642  0.2568
  103MOL    O2734911   3.293   6.679   4.748 -0.2913  0.2869  0.2300
  103MOL    H2834912   3.472   6.613   4.461  0.2602 -0.7878  1.7463
  103MOL    H2934913   3.304   6.642   4.471 -0.1651  0.9049 -1.6095
  103MOL    H3034914   3.447   6.770   4.653  1.1809 -0.1450  0.8531
  103MOL    H3134915   3.663   6.763   4.672 -1.9938 -0.0930 -0.1322
  103MOL    H3234916   3.858   6.676   4.800  0.0194 -0.0613 -1.6949
  103MOL    H3334917   3.849   6.462   4.909  1.3551  0.9644 -1.4615
  103MOL    H3434918   3.621   6.359   4.960  2.0632 -1.1329  0.0464
  103MOL    H3534919   3.423   6.442   4.847 -0.5190  0.2277  1.8791
  103MOL    C3634920   3.193   6.753   4.689 -0.2063 -0.6499  0.1595
  103MOL    C3734921   3.113   6.830   4.798  0.0399 -0.1279 -0.0192
  103MOL    C3834922   2.984   6.891   4.744  0.2547 -0.1633  0.2618
  103MOL    C3934923   2.973   6.984   4.641  0.0590  0.5872 -0.1641
  103MOL    C4034924   2.848   7.025   4.588  0.1559 -0.6645 -0.2434
  103MOL    C4134925   2.730   6.977   4.648 -0.4164 -0.7062  0.7115
  103MOL    C4234926   2.740   6.889   4.758  0.5552 -0.9049 -0.5596
  103MOL    C4334927   2.868   6.855   4.808  0.1952 -0.3615 -0.1723
  103MOL    O4434928   3.197   6.937   4.847  0.4046 -0.3197  0.4498
  103MOL    H4534929   3.234   6.840   4.638 -1.1038 -0.2705  0.0882
  103MOL    H4634930   3.133   6.686   4.628  0.0254 -0.5704 -0.1552
  103MOL    H4734931   3.084   6.759   4.876 -0.4888 -0.5730 -0.6131
  103MOL    H4834932   3.064   7.017   4.592 -0.3529 -0.6399 -1.7758
  103MOL    H4934933   2.849   7.106   4.516  0.3297 -0.1123  0.3773
  103MOL    H5034934   2.632   7.006   4.613  1.2525  1.1873 -2.5918
  103MOL    H5134935   2.646   6.850   4.793 -0.1748 -1.2047 -2.8005
  103MOL    H5234936   2.868   6.785   4.890 -0.4116 -0.5898 -0.3633
  103MOL    C5334937   3.297   6.901   4.937 -0.0965 -0.1752 -0.4088
  103MOL    C5434938   3.240   6.885   5.081 -0.2382 -0.1419  0.1590
  103MOL    C5534939   3.150   7.003   5.123  0.6573  0.4860  0.3113
  103MOL    C5634940   3.204   7.130   5.153  0.3446  0.2652 -0.1949
  103MOL    C5734941   3.117   7.237   5.180  0.0863 -0.0281  0.5366
  103MOL    C5834942   2.977   7.223   5.165 -0.8806 -0.3530 -0.3044
  103MOL    C5934943   2.924   7.098   5.126 -0.4477 -0.7010  0.2490
  103MOL    C6034944   3.009   6.988   5.113 -0.0221 -0.6060 -0.3848
  103MOL    O6134945   3.177   6.762   5.121 -0.3674  0.8328 -0.1111
  103MOL    H6234946   3.357   6.814   4.912 -0.9795 -0.8879 -0.1088
  103MOL    H6334947   3.353   6.994   4.936 -0.4183  0.0152 -1.3394
  103MOL    H6434948   3.329   6.903   5.142 -0.7176 -0.4641  0.9567
  103MOL    H6534949   3.309   7.137   5.176  0.0656  0.6662  1.0087
  103MOL    H6634950   3.173   7.321   5.219  0.6360  0.0173 -0.3229
  103MOL    H6734951   2.911   7.306   5.183 -1.0542 -0.4284 -0.5947
  103MOL    H6834952   2.816   7.092   5.118 -0.3603 -0.8811 -0.8772
  103MOL    H6934953   2.967   6.890   5.094 -0.1377 -0.5045 -0.6459
  103MOL    C7034954   3.254   6.693   5.229  0.0826 -0.1785 -0.1227
  103MOL    C7134955   3.389   6.627   5.184  0.2597  0.9634 -0.1632
  103MOL    C7234956   3.414   6.495   5.259  0.0055 -0.1588 -0.1742
  103MOL    C7334957   3.437   6.374   5.188 -0.6110  0.0466  0.2028
  103MOL    C7434958   3.467   6.257   5.263 -0.5527 -0.0167 -0.7734
  103MOL    C7534959   3.464   6.267   5.399 -0.8105 -0.1193 -0.1554
  103MOL    C7634960   3.432   6.376   5.474  0.0387 -0.2071 -0.3032
  103MOL    C7734961   3.400   6.493   5.402  0.4041  0.3440  0.1708
  103MOL    O7834962   3.492   6.716   5.207 -0.7738  0.1536 -0.0072
  103MOL    H7934963   3.259   6.749   5.322 -0.0595  0.7024 -0.6383
  103MOL    H8034964   3.191   6.606   5.243  0.2541 -0.0267  1.6527
  103MOL    H8134965   3.376   6.606   5.078 -0.4997  0.6565 -0.0136
  103MOL    H8234966   3.450   6.381   5.081  0.3232  0.2426  0.3226
  103MOL    H8334967   3.509   6.166   5.221 -0.6546 -0.8484  0.9085
  103MOL    H8434968   3.511   6.183   5.449 -0.2792 -0.3925 -1.1117
  103MOL    H8534969   3.452   6.376   5.580 -0.0183 -0.3865 -0.2913
  103MOL    H8634970   3.372   6.582   5.456 -1.9442 -0.0109 -0.3965
  103MOL    C8734971   3.597   6.686   5.109  0.4991 -0.2893 -0.3853
  103MOL    C8834972   3.708   6.792   5.139 -0.1604 -0.4942  0.0356
  103MOL    C8934973   3.767   6.753   5.281 -0.6270  0.1540  0.2047
  103MOL    C9034974   3.831   6.630   5.302 -0.0297  0.5805  0.3932
  103MOL    C9134975   3.889   6.605   5.427 -0.0307 -0.1023 -0.0710
  103MOL    C9234976   3.893   6.708   5.527 -0.6824  0.3841  0.2121
  103MOL    C9334977   3.827   6.830   5.505  1.2477 -0.0376  0.2370
  103MOL    C9434978   3.766   6.849   5.381 -0.2274 -0.0443  0.3434
  103MOL    O9534979   3.657   6.926   5.146  0.3269  0.2688  0.3645
  103MOL    H9634980   3.565   6.707   5.007  2.0630  1.7886 -0.4763
  103MOL    H9734981   3.635   6.584   5.117 -0.6980 -0.7414 -0.4512
  103MOL    H9834982   3.779   6.778   5.057 -2.5270 -0.2250 -2.1153
  103MOL    H9934983   3.828   6.554   5.225  0.6447  0.3047  0.6389
  103MOL   H10034984   3.934   6.510   5.448 -2.4351 -1.4018 -0.6826
  103MOL   H10134985   3.947   6.695   5.620  0.6460 -0.3224 -0.6389
  103MOL   H10234986   3.840   6.902   5.584  0.1966  0.8032 -0.3473
  103MOL   H10334987   3.726   6.947   5.359  2.7059  0.6537 -2.2299
  103MOL   C10434988   3.649   6.979   5.016 -0.2297 -0.1202  0.6567
  103MOL   C10534989   3.599   7.124   5.027 -0.8421  0.3181  0.4987
  103MOL   C10634990   3.701   7.214   5.088 -0.2706  0.5659  0.7834
  103MOL   C10734991   3.728   7.202   5.227  0.5298  0.5088  0.3580
  103MOL   C10834992   3.830   7.271   5.287 -0.0288 -0.3847  0.0868
  103MOL   C10934993   3.908   7.365   5.207  0.1001  0.1080 -0.3130
  103MOL   C11034994   3.904   7.354   5.069 -0.5011  0.2363  0.3815
  103MOL   C11134995   3.796   7.285   5.004 -0.3747 -0.9651 -0.1627
  103MOL   O11234996   3.566   7.162   4.892  0.0772  0.5389  0.6840
  103MOL   H11334997   3.742   6.969   4.961  0.5629  2.5226  1.4291
  103MOL   H11434998   3.571   6.929   4.959 -0.1492 -1.0097  1.3196
  103MOL   H11534999   3.511   7.117   5.091 -2.0543  0.7466 -1.0680
  103MOL   H11635000   3.661   7.141   5.286 -0.0833  0.7010 -0.1407
  103MOL   H11735001   3.858   7.252   5.390 -0.6014 -1.1996  0.0997
  103MOL   H11835002   3.983   7.415   5.267 -2.0912 -0.2289  2.8345
  103MOL   H11935003   3.981   7.407   5.014  0.4471 -1.0149  0.4848
  103MOL   H12035004   3.785   7.286   4.897 -0.9864  0.0965 -0.1041
  103MOL   C12135005   3.462   7.266   4.888 -0.3970  0.5705  0.2897
  103MOL   C12235006   3.418   7.291   4.741  0.3493  0.4007  0.2917
  103MOL   C12335007   3.277   7.345   4.730 -0.4830  0.2895  0.1515
  103MOL   C12435008   3.174   7.259   4.765 -0.5288 -0.0859 -0.3838
  103MOL   C12535009   3.042   7.301   4.763 -0.0214 -0.3443 -0.0427
  103MOL   C12635010   3.013   7.434   4.726  0.6752 -0.4124  0.6065
  103MOL   C12735011   3.115   7.525   4.701  0.1016  0.6761  0.2111
  103MOL   C12835012   3.253   7.478   4.698  0.4240  0.7788  0.7726
  103MOL   O12935013   3.503   7.383   4.684 -0.1022 -0.9014  0.2421
  103MOL   H13035014   3.506   7.358   4.927  0.4704 -0.1195  0.9720
  103MOL   H13135015   3.382   7.233   4.954  0.6469 -0.0411  1.2630
  103MOL   H13235016   3.429   7.195   4.689  0.3758  0.3987  0.3006
  103MOL   H13335017   3.208   7.162   4.799 -0.1185  0.2886  0.3010
  103MOL   H13435018   2.960   7.241   4.800 -0.7680  0.4921 -0.3176
  103MOL   H13535019   2.911   7.468   4.718  1.0567  0.9637  1.3036
  103MOL   H13635020   3.078   7.619   4.661 -1.6565  0.1690  0.6154
  103MOL   H13735021   3.331   7.546   4.668  0.7219  0.2604  0.3784
  103MOL   C13835022   3.541   7.361   4.552 -0.3634 -0.1604  0.6592
  103MOL   C13935023   3.597   7.496   4.501  0.7790  0.2550 -0.3170
  103MOL   C14035024   3.730   7.514   4.576 -0.2917 -0.1282  0.7386
  103MOL   C14135025   3.730   7.600   4.691 -0.2465 -0.6459 -0.0546
  103MOL   C14235026   3.848   7.621   4.761  0.2431 -0.1306  0.1098
  103MOL   C14335027   3.967   7.556   4.721  0.5312 -0.0045  0.3632
  103MOL   C14435028   3.969   7.483   4.594  0.3211 -0.0186 -0.2878
  103MOL   C14535029   3.847   7.451   4.530 -0.0719  0.8122  0.2150
  103MOL   O14635030   3.619   7.485   4.364  0.0435  0.5710 -0.3800
  103MOL   H14735031   3.452   7.320   4.505  1.0193 -1.6357 -0.7540
  103MOL   H14835032   3.615   7.281   4.544  0.1864  0.3944  0.0502
  103MOL   H14935033   3.534   7.581   4.527  2.9125  1.5304  0.8933
  103MOL   H15035034   3.635   7.642   4.721 -0.8897 -0.9187 -1.6304
  103MOL   H15135035   3.859   7.690   4.844 -0.3192 -0.0569  0.1188
  103MOL   H15235036   4.051   7.556   4.789 -1.1990 -0.3534  2.5596
  103MOL   H15335037   4.060   7.454   4.543 -1.2691  1.7756 -4.4153
  103MOL   H15435038   3.844   7.399   4.436 -0.2792  0.1233  0.6026
  103MOL   C15535039   3.527   7.566   4.285  0.2225 -0.4387  0.8010
  103MOL   C15635040   3.577   7.712   4.286 -0.9906 -0.2120  0.0678
  103MOL   C15735041   3.547   7.782   4.155  1.1027  1.0354  0.2707
  103MOL   C15835042   3.655   7.838   4.082  0.1395 -0.4160 -0.0086
  103MOL   C15935043   3.625   7.915   3.968  0.8816  0.2891 -0.5036
  103MOL   C16035044   3.490   7.922   3.924  0.0605 -0.0812  0.5863
  103MOL   C16135045   3.385   7.860   3.991  0.6579 -0.3849 -0.0321
  103MOL   C16235046   3.415   7.794   4.111 -0.0457  0.1030 -0.0184
  103MOL   O16335047   3.525   7.779   4.403 -0.9542 -0.2177  0.1880
  103MOL   H16435048   3.422   7.553   4.312 -0.0738 -2.5136 -1.1695
  103MOL   H16535049   3.537   7.528   4.183 -0.5066  1.6123 -0.0609
  103MOL   H16635050   3.685   7.716   4.305 -1.4517  1.2938  2.6480
  103MOL   H16735051   3.758   7.828   4.113  0.0909 -2.1274 -0.3565
  103MOL   H16835052   3.702   7.959   3.907 -1.3717  1.0872 -2.8623
  103MOL   H16935053   3.462   7.979   3.837 -0.9699 -1.0821  0.2532
  103MOL   H17035054   3.287   7.868   3.946  0.7954  1.5267 -0.0239
  103MOL   H17135055   3.336   7.742   4.163  0.1431 -0.9051 -0.7291
  103MOL   C17235056   3.583   7.907   4.438 -0.0837  0.2904 -0.1208
  103MOL   C17335057   3.734   7.893   4.478  0.3669 -0.4877 -0.6706
  103MOL   C17435058   3.778   8.010   4.564  0.3673  0.0738 -0.0817
  103MOL   C17535059   3.781   0.060   4.513 -0.3120  0.2464  0.5384
  103MOL   C17635060   3.821   0.166   4.599 -0.0164 -0.2590 -0.2776
  103MOL   C17735061   3.843   0.136   4.732  0.5365  0.7395 -0.6918
  103MOL   C17835062   3.840   0.007   4.786  0.0744 -0.2785 -0.7061
  103MOL   C17935063   3.805   7.983   4.702 -0.4450  0.7113  0.2190
  103MOL   O18035064   3.823   7.880   4.373 -0.4045 -0.0560  0.5726
  103MOL   H18135065   3.559   7.983   4.364 -0.2091  1.4260  1.0593
  103MOL   H18235066   3.543   7.938   4.535  0.0256  2.1341 -0.6431
  103MOL   H18335067   3.738   7.811   4.550  2.1018  0.8196  0.7957
  103MOL   H18435068   3.751   0.080   4.411  0.9202  1.1453  0.3419
  103MOL   H18535069   3.831   0.269   4.572  2.0145 -0.2843  0.2746
  103MOL   H18635070   3.880   0.222   4.788 -0.7016  0.6992  0.2230
  103MOL   H18735071   3.866   8.062   4.888  1.4712  1.5452 -0.5900
  103MOL   H18835072   3.802   7.881   4.738  2.3838  1.5021  2.8661
  103MOL   C18935073   3.941   7.802   4.404  0.7110  0.2117  0.1334
  103MOL   C19035074   4.043   7.803   4.285 -0.9783  0.6651 -0.1588
  103MOL   C19135075   4.142   7.694   4.309 -0.0700  0.0958 -0.2454
  103MOL   C19235076   4.107   7.558   4.290  0.1260 -0.1804 -0.3792
  103MOL   C19335077   4.208   7.460   4.293  0.4362  0.1456 -0.2840
  103MOL   C19435078   4.339   7.494   4.341  0.5686  1.1799 -1.1530
  103MOL   C19535079   4.368   7.627   4.377 -0.8304  0.4712 -0.5326
  103MOL   C19635080   4.273   7.724   4.352  0.3592 -0.0405 -0.3490
  103MOL   O19735081   4.111   7.930   4.273  0.0293  0.0604  0.4768
  103MOL   H19835082   3.968   7.846   4.500 -1.9108  0.5949  0.7307
  103MOL   H19935083   3.911   7.701   4.433  2.0130  0.2596  1.7601
  103MOL   H20035084   3.988   7.767   4.198  0.5085  0.8459 -1.1852
  103MOL   H20135085   4.008   7.528   4.258  0.1271 -2.1529  1.3655
  103MOL   H20235086   4.177   7.356   4.283  1.4730 -0.3037  1.0290
  103MOL   H20335087   4.413   7.416   4.353 -0.4663  0.3297 -0.2262
  103MOL   H20435088   4.467   7.654   4.413 -1.1879 -0.1578  0.9623
  103MOL   H20535089   4.303   7.826   4.369  0.0432  0.2949 -1.7695
  103MOL   C20635090   4.052   8.015   4.169 -0.2389 -0.1858 -1.3093
  103MOL   C20735091   4.097   7.972   4.031 -0.5658 -0.5933  0.0461
  103MOL   C20835092   4.249   7.962   4.022  0.0704 -0.2099  0.6933
  103MOL   C20935093   4.319   7.840   4.037 -0.0511 -0.2893  0.1012
  103MOL   C21035094   4.459   7.834   4.024  0.0585 -0.3877 -0.7029
  103MOL   C21135095   4.530   7.948   3.981 -0.2965  0.0917  0.1338
  103MOL   C21235096   4.465   8.070   3.977  0.2478 -0.2801 -0.2080
  103MOL   C21335097   4.324   0.001   3.989  0.3839  0.5713 -0.5652
  103MOL   O21435098   4.032   8.051   3.922 -0.0676  0.1561 -0.7871
  103MOL   H21535099   3.944   8.018   4.180 -0.1849  1.1892 -1.0545
  103MOL   H21635100   4.085   0.036   4.193  0.2624 -0.5736 -0.3229
  103MOL   H21735101   4.063   7.869   4.019 -0.0258 -0.8570  0.7460
  103MOL   H21835102   4.260   7.755   4.068  0.9291  0.1516  3.2720
  103MOL   H21935103   4.507   7.740   4.049 -1.3100 -0.7687  0.5539
  103MOL   H22035104   4.633   7.935   3.953 -0.7596 -0.8767 -1.1688
  103MOL   H22135105   4.527   0.069   3.939 -0.6488  1.3612  1.6076
  103MOL   H22235106   4.275   0.097   3.983 -0.9592  0.0467  1.5133
  103MOL   C22335107   4.053   8.004   3.786 -0.2807  0.1318 -0.3897
  103MOL   C22435108   3.986   7.866   3.766 -0.4844  0.3391 -0.5824
  103MOL   C22535109   3.929   7.863   3.624 -0.5655 -0.4604 -0.0157
  103MOL   C22635110   3.793   7.879   3.593 -0.5909  0.0881  0.4209
  103MOL   C22735111   3.748   7.906   3.464  0.2139 -0.8054  0.1942
  103MOL   C22835112   3.844   7.904   3.362  0.2798 -0.1198  0.3774
  103MOL   C22935113   3.978   7.881   3.390  0.3734  0.5198 -0.9770
  103MOL   C23035114   4.022   7.858   3.521 -0.4851  0.5312 -0.8214
  103MOL   O23135115   4.086   7.768   3.790  0.2640  0.0800  0.2082
  103MOL   H23235116   3.998   0.002   3.733 -1.1555 -0.2748 -0.0851
  103MOL   H23335117   4.159   8.013   3.762  0.1838  0.2619  1.6085
  103MOL   H23435118   3.902   7.846   3.833  0.1563  3.1950  1.1391
  103MOL   H23535119   3.719   7.881   3.672  0.4565 -0.1065  1.4157
  103MOL   H23635120   3.645   7.930   3.442  0.7657  1.9899  0.4407
  103MOL   H23735121   3.820   7.913   3.257 -1.0074  2.5240  0.8682
  103MOL   H23835122   4.055   7.866   3.315  0.0256  0.5326 -1.3372
  103MOL   H23935123   4.126   7.842   3.546 -1.0940 -0.6326  1.1293
  103MOL   C24035124   4.037   7.638   3.790 -0.4976 -0.6836 -0.0949
  103MOL   C24135125   4.142   7.527   3.779 -0.3685 -0.0484  0.3976
  103MOL   C24235126   4.083   7.394   3.820 -0.4714  0.7129 -0.5592
  103MOL   C24335127   4.083   7.355   3.959  0.3530  0.0025  0.1196
  103MOL   C24435128   4.029   7.228   3.996  0.6447  0.4075 -0.7883
  103MOL   C24535129   3.992   7.137   3.893 -0.2158  0.5830 -0.2804
  103MOL   C24635130   3.989   7.179   3.758  0.2729 -0.1715  0.2038
  103MOL   C24735131   4.036   7.305   3.720 -0.1606  0.2035  0.5504
  103MOL   O24835132   4.205   7.525   3.645  0.0421  0.3381 -0.1784
  103MOL   H24935133   3.978   7.620   3.879  0.5653  1.3634  1.0580
  103MOL   H25035134   3.978   7.631   3.698 -1.7328  1.5201  0.4876
  103MOL   H25135135   4.217   7.548   3.856  0.3394 -0.3736 -0.1970
  103MOL   H25235136   4.133   7.409   4.038  1.1474 -0.8054  0.1772
  103MOL   H25335137   4.026   7.194   4.099 -0.8722  1.0702 -0.5941
  103MOL   H25435138   3.951   7.042   3.925  3.0461  0.0700  2.6124
  103MOL   H25535139   3.946   7.119   3.679  0.1577 -1.6216  1.3456
  103MOL   H25635140   4.038   7.334   3.616 -2.0180 -2.5708 -0.3047
  103MOL   C25735141   4.325   7.455   3.622  0.6457 -0.2083  0.5539
  103MOL   C25835142   4.375   7.460   3.472  0.3778  0.7130  0.4436
  103MOL   C25935143   4.264   7.438   3.368  0.2029  0.1385 -0.1842
  103MOL   C26035144   4.267   7.327   3.279 -0.0121 -0.5341 -0.0275
  103MOL   C26135145   4.176   7.315   3.177 -0.5368 -0.0936 -0.2524
  103MOL   C26235146   4.070   7.411   3.155 -0.3928  0.3306  0.3796
  103MOL   C26335147   4.057   7.519   3.245 -0.6268  0.7418 -0.3550
  103MOL   C26435148   4.149   7.530   3.350  0.0439  0.4508 -0.4465
  103MOL   O26535149   4.479   7.367   3.449  0.4370  0.3369 -0.5385
  103MOL   H26635150   4.308   7.349   3.636 -1.7281 -0.1665 -1.5133
  103MOL   H26735151   4.395   7.493   3.696 -0.1167  0.3364  0.9990
  103MOL   H26835152   4.408   7.563   3.457  1.7653  0.5683  2.2996
  103MOL   H26935153   4.345   7.253   3.291  0.7353  0.2783  0.1403
  103MOL   H27035154   4.170   7.230   3.112  0.4325  1.8974 -3.0514
  103MOL   H27135155   3.990   7.402   3.083 -1.2036  0.2115  1.2830
  103MOL   H27235156   3.987   7.601   3.237  0.7740  2.1149  1.0245
  103MOL   H27335157   4.152   7.623   3.406 -2.3571 -0.4527  1.2636
  103MOL   C27435158   4.594   7.387   3.535  0.8388 -0.5323 -0.2399
  103MOL   C27535159   4.725   7.323   3.472 -0.0606  0.3028 -0.3218
  103MOL   C27635160   4.837   7.342   3.565  0.5620  0.5294  0.2557
  103MOL   C27735161   4.855   7.256   3.673 -0.1193 -0.4077  0.0242
  103MOL   C27835162   4.954   7.277   3.776  0.3095 -0.2051 -0.6916
  103MOL   C27935163   5.032   7.396   3.765 -0.3766 -0.1843 -0.4510
  103MOL   C28035164   5.018   7.483   3.647  0.3617 -0.5768  0.1296
  103MOL   C28135165   4.925   7.450   3.549  0.2005 -0.6522  0.6827
  103MOL   O28235166   4.741   7.397   3.349  0.4818  0.1079  0.5727
  103MOL   H28335167   4.619   7.492   3.549 -1.6693  0.2012 -1.0863
  103MOL   H28435168   4.585   7.337   3.631 -2.1687  2.0510  0.9122
  103MOL   H28535169   4.720   7.217   3.448 -0.3080  0.4015 -0.7082
  103MOL   H28635170   4.794   7.168   3.669  0.2163 -0.6387 -0.0301
  103MOL   H28735171   4.966   7.209   3.859  0.2097 -0.1620 -0.6419
  103MOL   H28835172   5.097   7.416   3.849  0.6060  0.9032 -1.4501
  103MOL   H28935173   5.073   7.576   3.640  2.1710 -1.7909 -2.7836
  103MOL   H29035174   4.903   7.524   3.473 -2.8925  0.9636  3.0264
  103MOL   C29135175   4.817   7.339   3.242 -0.3390 -0.2195  1.0388
  103MOL   C29235176   4.718   7.267   3.143 -0.3740 -0.9570  0.3585
  103MOL   C29335177   4.763   7.252   3.007 -0.6336 -0.6297  0.4137
  103MOL   C29435178   4.833   7.137   2.964  0.3404 -0.2071  0.4499
  103MOL   C29535179   4.870   7.114   2.830  0.5177  0.2137  0.9558
  103MOL   C29635180   4.831   7.213   2.739 -0.3587  0.2374 -0.0592
  103MOL   C29735181   4.758   7.330   2.777 -0.1288  0.7149  0.8556
  103MOL   C29835182   4.732   7.350   2.915  0.0750 -0.1731 -0.0998
  103MOL   O29935183   4.701   7.142   3.210 -0.4701  0.0929 -0.4360
  103MOL   H30035184   4.890   7.267   3.278  1.1150 -0.1892 -1.6998
  103MOL   H30135185   4.868   7.424   3.195 -0.2115  0.0546  1.6674
  103MOL   H30235186   4.628   7.328   3.142  0.1415 -0.1580  1.3880
  103MOL   H30335187   4.871   7.066   3.037  1.0753  0.4633  0.7261
  103MOL   H30435188   4.923   7.023   2.806  0.4283  0.8289 -1.6963
  103MOL   H30535189   4.864   7.209   2.636 -0.4728  1.2460 -0.1394
  103MOL   H30635190   4.736   7.405   2.703  0.0187 -0.8777 -0.8434
  103MOL   H30735191   4.683   7.441   2.946 -2.9868 -1.9828  0.5794
  103MOL   C30835192   4.576   7.087   3.165 -0.0008 -0.3631  0.4132
  103MOL   C30935193   4.554   6.954   3.242  0.2979  0.2967  0.0509
  103MOL   C31035194   4.573   6.958   3.396  0.7953 -0.0915 -0.3639
  103MOL   C31135195   4.690   6.894   3.440  0.6392 -0.4861  0.6071
  103MOL   C31235196   4.710   6.885   3.577  0.0172 -0.5359 -0.2661
  103MOL   C31335197   4.610   6.938   3.670 -0.6728 -0.2066 -0.4099
  103MOL   C31435198   4.502   7.017   3.618  0.7346  0.4904  0.1235
  103MOL   C31535199   4.479   7.022   3.481 -0.0150 -0.8654  0.1119
  103MOL   O31635200   4.420   6.917   3.213  0.5076 -0.0377  0.4740
  103MOL   H31735201   4.586   7.061   3.060 -1.4792  1.0074 -0.0965
  103MOL   H31835202   4.495   7.160   3.179  0.0626 -0.0125 -1.0043
  103MOL   H31935203   4.622   6.885   3.193 -1.4181 -0.0358 -1.9262
  103MOL   H32035204   4.763   6.851   3.373 -0.1488  0.0781 -0.6149
  103MOL   H32135205   4.797   6.831   3.612  2.1221  2.1903 -1.0148
  103MOL   H32235206   4.620   6.933   3.778 -1.0254  2.1847 -0.2324
  103MOL   H32335207   4.432   7.068   3.682 -1.7557  1.6490 -3.4349
  103MOL   H32435208   4.391   7.073   3.445  1.4898  0.9773 -0.9968
  103MOL   C32535209   4.393   6.779   3.233 -0.1431  0.0314 -1.0697
  103MOL   C32635210   4.253   6.727   3.190 -0.4168  0.4162 -0.1046
  103MOL   C32735211   4.137   6.809   3.251  0.1150  0.3819 -1.0281
  103MOL   C32835212   4.086   6.921   3.182 -0.2369  0.5341 -0.1072
  103MOL   C32935213   3.982   6.995   3.238  0.0646  0.3424 -0.5029
  103MOL   C33035214   3.925   6.950   3.355 -0.5729 -0.5053 -0.4454
  103MOL   C33135215   3.972   6.837   3.427 -0.5672  0.5330 -0.3214
  103MOL   C33235216   4.081   6.767   3.373 -0.5556 -0.2168 -0.7110
  103MOL   O33335217   4.238   6.718   3.049 -0.0400  0.1955 -0.1264
  103MOL   H33435218   4.416   6.752   3.336 -1.5320 -0.4405 -0.8669
  103MOL   H33535219   4.460   6.731   3.163  0.8589 -0.6799  0.3462
  103MOL   H33635220   4.235   6.625   3.226 -2.8059 -0.1186 -2.6645
  103MOL   H33735221   4.121   6.948   3.083 -0.1654  1.9740  0.2882
  103MOL   H33835222   3.942   7.075   3.177 -3.7848 -0.7201  0.5362
  103MOL   H33935223   3.841   7.009   3.386  0.9855  1.6795 -0.2656
  103MOL   H34035224   3.928   6.797   3.517 -0.1900 -0.6527 -0.6505
  103MOL   H34135225   4.112   6.674   3.419  0.0468  0.3202 -0.0167
  103MOL   H34235226   4.297   6.654   3.013  0.2502  0.7433 -0.6349
  104MOL     C135227   4.942   3.104   4.341  0.0346  0.5397 -0.1451
  104MOL     C235228   4.880   3.208   4.239 -0.3136 -0.4637 -0.4527
  104MOL     C335229   4.906   3.352   4.269 -1.1141 -0.3109  0.3213
  104MOL     C435230   5.039   3.393   4.268 -1.1853 -0.1653 -0.2068
  104MOL     C535231   5.070   3.525   4.308  1.0722 -0.0027  0.2553
  104MOL     C635232   4.969   3.616   4.345  0.3437  0.2888  0.0184
  104MOL     C735233   4.832   3.573   4.355  0.4327 -0.2874  0.3817
  104MOL     C835234   4.803   3.442   4.308  0.5515  0.0866  0.6784
  104MOL     O935235   4.743   3.185   4.212 -0.3544  0.1144  0.3057
  104MOL    H1035236   5.051   3.108   4.343  0.0688 -0.4588  0.4750
  104MOL    H1135237   4.907   3.129   4.441 -1.8821  1.3310 -1.0016
  104MOL    H1235238   4.936   3.181   4.150 -1.3322  0.7559 -1.4803
  104MOL    H1335239   5.113   3.319   4.239  0.1626  1.0346  0.1388
  104MOL    H1435240   5.173   3.557   4.297  0.7825  0.7347 -0.3189
  104MOL    H1535241   4.996   3.715   4.380 -1.1655  0.6387  0.2231
  104MOL    H1635242   4.741   3.624   4.381  0.2901 -0.9739  1.2561
  104MOL    H1735243   4.701   3.404   4.309  1.1044 -1.4517  0.6990
  104MOL    H1835244   4.902   3.003   4.329 -0.3990  0.5753  0.9278
  104MOL    C1935245   4.702   3.200   4.079  0.3574 -0.6955 -0.3198
  104MOL    C2035246   4.550   3.184   4.056 -0.1789  0.0744  0.1405
  104MOL    C2135247   4.465   3.258   4.161 -0.3473 -0.4745  0.1439
  104MOL    C2235248   4.454   3.202   4.289 -0.0434 -0.5373 -0.1894
  104MOL    C2335249   4.380   3.260   4.393 -0.2049 -0.0309  0.2170
  104MOL    C2435250   4.310   3.381   4.363 -0.0897  0.3482  0.1851
  104MOL    C2535251   4.308   3.429   4.233  0.4295 -0.1293 -0.1330
  104MOL    C2635252   4.387   3.375   4.134 -0.2915 -0.5348 -0.0583
  104MOL    O2735253   4.521   3.051   4.054 -0.0051  0.4937  0.5037
  104MOL    H2835254   4.727   3.304   4.058  1.4817 -0.7845  0.5489
  104MOL    H2935255   4.756   3.142   4.004 -1.1687 -1.8304 -0.5594
  104MOL    H3035256   4.522   3.230   3.961 -0.2908  2.3691  1.2278
  104MOL    H3135257   4.515   3.117   4.316 -0.3258 -1.1234 -1.3640
  104MOL    H3235258   4.387   3.215   4.491  0.7395 -2.4379 -0.9085
  104MOL    H3335259   4.238   3.425   4.430 -1.0670 -0.2410 -0.4652
  104MOL    H3435260   4.248   3.514   4.206 -1.4851 -1.6611 -0.8194
  104MOL    H3535261   4.384   3.408   4.032 -1.1102 -0.7741 -0.1155
  104MOL    C3635262   4.391   3.011   4.009 -0.2437  0.2487  0.0635
  104MOL    C3735263   4.376   3.012   3.853 -0.5551 -0.0123 -0.4206
  104MOL    C3835264   4.496   2.955   3.778 -0.8828 -0.3476  0.5848
  104MOL    C3935265   4.513   2.814   3.781 -0.5852 -0.0492  0.0343
  104MOL    C4035266   4.617   2.756   3.708  0.2612 -0.4674 -0.5927
  104MOL    C4135267   4.708   2.836   3.636  0.2143 -0.2630 -0.3090
  104MOL    C4235268   4.703   2.978   3.641  0.9482  0.1264 -0.3311
  104MOL    C4335269   4.593   3.032   3.718  0.9639 -0.6006  0.0030
  104MOL    O4435270   4.334   3.138   3.811 -0.0274  0.2074  0.4660
  104MOL    H4535271   4.376   2.911   4.050 -2.2553  0.9687  1.1416
  104MOL    H4635272   4.304   3.065   4.045 -0.8153  0.8059 -2.1178
  104MOL    H4735273   4.296   2.944   3.824  0.8828 -1.0969 -1.9623
  104MOL    H4835274   4.443   2.746   3.828 -0.2577  0.5813  1.4675
  104MOL    H4935275   4.648   2.653   3.704  0.7990 -0.3095 -0.4480
  104MOL    H5035276   4.780   2.791   3.569 -0.2549 -3.6679  1.3480
  104MOL    H5135277   4.783   3.034   3.595  0.5096 -2.1889 -4.1226
  104MOL    H5235278   4.582   3.140   3.722  1.8271 -0.4552 -1.1979
  104MOL    C5335279   4.269   3.151   3.679  0.8544 -0.4516 -0.1585
  104MOL    C5435280   4.267   3.299   3.653  0.2489 -0.2481  0.0283
  104MOL    C5535281   4.407   3.347   3.615  1.2275  0.3063  0.0783
  104MOL    C5635282   4.447   3.349   3.479 -0.3835  0.1405  0.0218
  104MOL    C5735283   4.574   3.390   3.437  0.3822 -0.2982 -0.7237
  104MOL    C5835284   4.666   3.434   3.533  0.5657  0.2111 -0.4836
  104MOL    C5935285   4.624   3.438   3.673 -0.2735 -0.1652 -0.0163
  104MOL    C6035286   4.497   3.397   3.714  0.3894 -0.4640 -0.4072
  104MOL    O6135287   4.174   3.336   3.561 -0.2091 -0.5599  0.3438
  104MOL    H6235288   4.316   3.099   3.596  0.7674  0.4051 -0.7589
  104MOL    H6335289   4.171   3.108   3.696  1.1201 -0.6771  0.7947
  104MOL    H6435290   4.240   3.353   3.743 -3.0531 -0.2002 -0.9495
  104MOL    H6535291   4.367   3.322   3.412  0.6738 -0.9037 -0.8407
  104MOL    H6635292   4.610   3.380   3.336 -0.3267 -1.5996 -0.8626
  104MOL    H6735293   4.768   3.456   3.509  0.4038 -0.1822 -1.5167
  104MOL    H6835294   4.695   3.459   3.751 -0.5793  3.3459 -0.6107
  104MOL    H6935295   4.485   3.380   3.820 -0.7275  0.8712 -0.2948
  104MOL    C7035296   4.116   3.467   3.575  1.0632  0.0165  0.4855
  104MOL    C7135297   4.034   3.515   3.452 -0.4783  0.0484  0.3671
  104MOL    C7235298   4.064   3.663   3.427 -0.3993  0.1121  0.4440
  104MOL    C7335299   3.983   3.766   3.480  0.8862 -0.6746  0.6233
  104MOL    C7435300   4.005   3.901   3.450  0.6415  0.0216 -0.1552
  104MOL    C7535301   4.113   3.939   3.372 -0.0748  0.0122  0.2028
  104MOL    C7635302   4.193   3.836   3.322 -0.4669 -0.4310 -0.1252
  104MOL    C7735303   4.177   3.700   3.352 -0.3819  0.3817  0.4764
  104MOL    O7835304   3.896   3.502   3.476  0.2814 -0.4539  0.1173
  104MOL    H7935305   4.074   3.488   3.673 -0.1120 -1.7201  0.3833
  104MOL    H8035306   4.209   3.523   3.569  0.8042  0.3650 -0.4569
  104MOL    H8135307   4.066   3.479   3.354 -2.2292  1.4628 -0.7412
  104MOL    H8235308   3.910   3.731   3.551  0.4172 -0.6313  0.1746
  104MOL    H8335309   3.935   3.971   3.494 -0.4672 -3.0480  3.2583
  104MOL    H8435310   4.131   4.042   3.346 -1.0653 -0.2405 -1.5655
  104MOL    H8535311   4.274   3.864   3.255 -0.6106  0.2055 -0.0406
  104MOL    H8635312   4.233   3.619   3.309  0.5801 -0.1335  2.6078
  104MOL    C8735313   3.833   3.389   3.417  1.0307 -0.0715  0.2814
  104MOL    C8835314   3.687   3.417   3.374  0.1717  0.3995  0.3316
  104MOL    C8935315   3.608   3.293   3.348 -0.0292 -0.6031  0.3221
  104MOL    C9035316   3.597   3.223   3.221  0.2358 -0.5997  0.0502
  104MOL    C9135317   3.521   3.105   3.203  0.5689 -0.9992 -0.5635
  104MOL    C9235318   3.461   3.047   3.318 -0.0885  0.3452 -0.0840
  104MOL    C9335319   3.471   3.119   3.439  0.1589 -1.0403 -0.5408
  104MOL    C9435320   3.539   3.239   3.459 -0.0477  0.7324  0.2906
  104MOL    O9535321   3.672   3.490   3.251 -0.2561 -0.1985  0.2951
  104MOL    H9635322   3.826   3.319   3.501  0.2159 -0.3925 -0.0518
  104MOL    H9735323   3.877   3.325   3.340  1.2320  1.9471 -1.2967
  104MOL    H9835324   3.637   3.474   3.452  1.2074  1.0094  0.5623
  104MOL    H9935325   3.645   3.273   3.138 -0.7783 -0.8129 -0.6735
  104MOL   H10035326   3.499   3.062   3.107  0.3292  0.6159 -1.2492
  104MOL   H10135327   3.414   2.949   3.317 -0.2397  0.3872  1.2190
  104MOL   H10235328   3.423   3.065   3.520  0.3888 -0.9999 -0.3773
  104MOL   H10335329   3.553   3.281   3.557  0.0015  1.8582 -0.1977
  104MOL   C10435330   3.687   3.628   3.254  0.1383  0.0743  0.7938
  104MOL   C10535331   3.729   3.675   3.111 -0.4072  0.7254  0.0031
  104MOL   C10635332   3.778   3.819   3.118 -0.0734  0.0065  0.0691
  104MOL   C10735333   3.902   3.865   3.071  0.2584 -0.6565 -0.0160
  104MOL   C10835334   3.933   4.001   3.071 -0.2473  0.1772  0.9611
  104MOL   C10935335   3.835   4.102   3.095  0.3425  0.3337 -0.2206
  104MOL   C11035336   3.708   4.054   3.137 -0.5766  1.0070 -0.0479
  104MOL   C11135337   3.682   3.915   3.143  0.3462  0.3929  0.6540
  104MOL   O11235338   3.835   3.582   3.077 -0.6318 -0.0722 -0.4398
  104MOL   H11335339   3.588   3.664   3.285  0.6027 -0.6310  3.2456
  104MOL   H11435340   3.759   3.649   3.333 -2.7219  0.4818  3.4408
  104MOL   H11535341   3.648   3.679   3.039 -1.5539 -1.4303  1.1262
  104MOL   H11635342   3.984   3.795   3.059  0.6207 -0.2271 -0.0748
  104MOL   H11735343   4.035   4.022   3.042  0.1532 -2.2042  0.4781
  104MOL   H11835344   3.858   4.207   3.089 -0.4030  0.7524  3.2184
  104MOL   H11935345   3.620   4.113   3.156 -0.2930  1.4977 -0.2489
  104MOL   H12035346   3.580   3.896   3.170  0.6198 -0.4452  1.1148
  104MOL   C12135347   3.802   3.507   2.962  0.3165 -0.0957 -0.4966
  104MOL   C12235348   3.861   3.574   2.836 -0.4838  0.7451 -0.4910
  104MOL   C12335349   3.888   3.468   2.729  0.2136 -0.2238 -0.4352
  104MOL   C12435350   3.780   3.386   2.696  0.0353 -0.7574  0.4660
  104MOL   C12535351   3.808   3.274   2.611  0.4905 -0.2329  0.3561
  104MOL   C12635352   3.940   3.251   2.563 -0.3735  0.1445  0.2758
  104MOL   C12735353   4.047   3.339   2.599  0.8939 -0.0995 -0.0524
  104MOL   C12835354   4.016   3.449   2.677  1.1054  0.5338  0.1892
  104MOL   O12935355   3.761   3.665   2.792  0.0377 -0.1424  0.1104
  104MOL   H13035356   3.695   3.487   2.960  0.3753 -0.2762 -3.0209
  104MOL   H13135357   3.839   3.405   2.971 -2.5528 -1.1367  0.0627
  104MOL   H13235358   3.956   3.624   2.860  0.3558  0.4253 -2.9585
  104MOL   H13335359   3.678   3.403   2.729  1.1915  1.2385  3.1629
  104MOL   H13435360   3.722   3.218   2.578 -0.1476  1.6548 -1.2784
  104MOL   H13535361   3.957   3.171   2.493 -1.9447 -0.2054  0.2837
  104MOL   H13635362   4.145   3.324   2.555  0.3162  0.9775 -1.7381
  104MOL   H13735363   4.095   3.518   2.704  0.3922  1.1301  0.7707
  104MOL   C13835364   3.811   3.781   2.729  0.1295 -0.5516 -0.4177
  104MOL   C13935365   3.698   3.876   2.714 -0.8442 -0.0994  0.4442
  104MOL   C14035366   3.729   4.024   2.709  0.2620 -0.3074  0.0902
  104MOL   C14135367   3.655   4.126   2.765 -0.0789 -0.8370 -0.4329
  104MOL   C14235368   3.695   4.264   2.754 -0.1968  0.5800 -0.3212
  104MOL   C14335369   3.813   4.289   2.683  0.5879 -0.5726 -0.0669
  104MOL   C14435370   3.887   4.189   2.622  0.4215 -0.0828 -0.2447
  104MOL   C14535371   3.847   4.054   2.635  0.4875 -0.1327 -0.5487
  104MOL   O14635372   3.609   3.838   2.604 -0.1858 -0.0574 -0.3217
  104MOL   H14735373   3.854   3.762   2.631 -0.3738  1.0388 -0.9670
  104MOL   H14835374   3.883   3.824   2.799  0.3790 -0.7157 -0.5759
  104MOL   H14935375   3.634   3.872   2.802 -0.9763  0.7434  0.3921
  104MOL   H15035376   3.571   4.104   2.829  0.1890  0.7435  0.4722
  104MOL   H15135377   3.633   4.339   2.800 -0.5084  0.9462 -1.3275
  104MOL   H15235378   3.847   4.390   2.670 -0.0121 -0.4225 -0.5086
  104MOL   H15335379   3.970   4.218   2.560 -0.0368  1.8189  0.0037
  104MOL   H15435380   3.907   3.971   2.604  1.8263  0.4985  0.3197
  104MOL   C15535381   3.496   3.926   2.571  0.4186  0.7462 -0.1212
  104MOL   C15635382   3.440   3.902   2.423 -0.2979  0.0833  0.9172
  104MOL   C15735383   3.314   3.985   2.404 -0.5426 -0.2059  0.0924
  104MOL   C15835384   3.310   4.105   2.332  0.3190  0.2175  0.3711
  104MOL   C15935385   3.195   4.184   2.323  1.3180  0.0027  0.2571
  104MOL   C16035386   3.082   4.140   2.392  0.2955 -0.1312 -1.0086
  104MOL   C16135387   3.074   4.014   2.457 -0.6010 -0.2672 -0.3524
  104MOL   C16235388   3.194   3.936   2.464  0.2762  0.2974 -0.3628
  104MOL   O16335389   3.529   3.954   2.319 -0.0101  0.0070  0.5086
  104MOL   H16435390   3.510   4.033   2.581 -1.0172  1.1270 -1.8708
  104MOL   H16535391   3.423   3.900   2.647 -0.4686  0.8512 -0.9266
  104MOL   H16635392   3.420   3.796   2.405  1.4689  0.0273 -0.8936
  104MOL   H16735393   3.400   4.141   2.283 -0.6364  1.1310 -0.7515
  104MOL   H16835394   3.203   4.277   2.268 -0.5346 -1.1104 -1.9325
  104MOL   H16935395   3.003   4.213   2.398  1.7135  1.3435  0.2211
  104MOL   H17035396   2.985   3.974   2.503  0.7119 -0.7476  1.8488
  104MOL   H17135397   3.181   3.848   2.525 -0.2204  0.8933  0.4067
  104MOL   C17235398   3.657   3.892   2.312  0.1434 -0.4325 -0.0526
  104MOL   C17335399   3.735   3.940   2.190  0.0704 -0.2795 -0.2258
  104MOL   C17435400   3.859   3.855   2.169  0.5691  0.5447 -0.3679
  104MOL   C17535401   3.856   3.741   2.085 -0.3463  0.2508  0.6160
  104MOL   C17635402   3.970   3.668   2.057  0.3184 -0.3134  0.1835
  104MOL   C17735403   4.093   3.710   2.114 -0.1523  0.8346 -0.2700
  104MOL   C17835404   4.101   3.821   2.201 -0.1766 -0.7554  0.7495
  104MOL   C17935405   3.984   3.898   2.221  0.9351 -0.6330 -1.1382
  104MOL   O18035406   3.778   4.081   2.193 -0.3152  0.0836  0.3014
  104MOL   H18135407   3.721   3.911   2.399  0.0267  1.9167 -0.4348
  104MOL   H18235408   3.637   3.786   2.301 -0.8184  0.0485 -3.5109
  104MOL   H18335409   3.680   3.924   2.097  0.9638  1.3039 -1.0449
  104MOL   H18435410   3.767   3.711   2.031 -0.5409 -0.7525  1.4710
  104MOL   H18535411   3.960   3.580   1.996  0.0575  0.9341 -1.6029
  104MOL   H18635412   4.187   3.657   2.100  0.3364  0.8460  2.5987
  104MOL   H18735413   4.197   3.848   2.241  0.3484  1.3029 -1.7535
  104MOL   H18835414   3.980   3.989   2.279 -0.2102 -1.8810  0.8130
  104MOL   C18935415   3.669   4.170   2.187  0.7015 -0.1390 -0.2667
  104MOL   C19035416   3.713   4.308   2.131  0.5519 -0.4993  0.1375
  104MOL   C19135417   3.656   4.424   2.216 -0.5585 -0.1529 -0.3464
  104MOL   C19235418   3.721   4.445   2.339 -0.0589  0.1527  0.6957
  104MOL   C19335419   3.691   4.559   2.417 -0.3265 -0.7211 -0.1661
  104MOL   C19435420   3.587   4.640   2.374 -0.0881 -0.5692  0.3254
  104MOL   C19535421   3.518   4.615   2.252  0.4323  0.0780  0.1449
  104MOL   C19635422   3.544   4.501   2.178 -0.3585  0.3285 -0.2238
  104MOL   O19735423   3.681   4.309   1.993  0.0359 -0.1896  0.1786
  104MOL   H19835424   3.589   4.117   2.135  1.5696 -0.6630 -1.0605
  104MOL   H19935425   3.628   4.172   2.288 -0.1176  2.5384 -0.5865
  104MOL   H20035426   3.820   4.321   2.141  0.8046 -1.0691 -1.6642
  104MOL   H20135427   3.798   4.381   2.380 -0.5865 -1.2851 -0.5032
  104MOL   H20235428   3.739   4.573   2.512  0.5368 -1.5587 -0.4686
  104MOL   H20335429   3.572   4.730   2.433 -1.5429 -1.9450  2.1062
  104MOL   H20435430   3.441   4.679   2.211  1.3412  1.0402 -0.1039
  104MOL   H20535431   3.492   4.481   2.086 -0.4398 -2.1206  0.3238
  104MOL   C20635432   3.768   4.242   1.902  1.6227  0.8773 -0.4973
  104MOL   C20735433   3.848   4.343   1.824  0.7849  0.2990 -0.1823
  104MOL   C20835434   3.967   4.407   1.900  0.2315 -0.7537  0.7049
  104MOL   C20935435   3.941   4.516   1.991 -0.1720  0.3585  0.0804
  104MOL   C21035436   4.047   4.570   2.066 -0.6398  1.1068 -0.2858
  104MOL   C21135437   4.178   4.517   2.049  0.1445  0.3896 -0.7138
  104MOL   C21235438   4.204   4.417   1.954  0.4682 -0.6638  0.1129
  104MOL   C21335439   4.101   4.355   1.880  0.5304 -0.1550  0.2145
  104MOL   O21435440   3.747   4.431   1.775  0.3514 -0.4196  0.0599
  104MOL   H21535441   3.839   4.178   1.955  1.4222  1.5517  0.5952
  104MOL   H21635442   3.698   4.187   1.839  0.2650  0.3113  1.4466
  104MOL   H21735443   3.897   4.281   1.749 -0.1781 -1.6731  0.7577
  104MOL   H21835444   3.841   4.557   2.000 -0.5644 -0.8143  1.1583
  104MOL   H21935445   4.028   4.647   2.139  3.6993  1.0730  1.0151
  104MOL   H22035446   4.258   4.557   2.110 -0.4334 -0.2808  0.4997
  104MOL   H22135447   4.305   4.387   1.934 -0.1629 -0.6088 -3.4012
  104MOL   H22235448   4.118   4.277   1.808  1.5354 -0.9689  1.3200
  104MOL   C22335449   3.789   4.511   1.668 -0.1345 -0.5454  0.8563
  104MOL   C22435450   3.806   4.658   1.701  0.6083 -0.1904  0.1475
  104MOL   C22535451   3.900   4.722   1.606  0.3706 -0.2125  0.2644
  104MOL   C22635452   4.038   4.724   1.627  0.5808 -0.8324  0.2890
  104MOL   C22735453   4.123   4.795   1.540  0.5095  0.4222  0.2818
  104MOL   C22835454   4.080   4.840   1.411 -0.0869  0.0348 -0.3966
  104MOL   C22935455   3.936   4.831   1.385 -0.5363  0.5204 -0.0900
  104MOL   C23035456   3.850   4.779   1.480 -0.0051 -0.0440  0.2670
  104MOL   O23135457   3.681   4.710   1.688 -0.0796 -0.2459 -0.0004
  104MOL   H23235458   3.889   4.483   1.634  0.1407  0.2010  1.0509
  104MOL   H23335459   3.737   4.491   1.574 -1.6173 -0.0725  1.5605
  104MOL   H23435460   3.852   4.686   1.796 -0.1413  1.8159 -0.0499
  104MOL   H23535461   4.079   4.689   1.720  1.6434 -2.2866 -0.7045
  104MOL   H23635462   4.228   4.809   1.559  0.9624 -0.6792 -1.3027
  104MOL   H23735463   4.146   4.883   1.337  0.1734  0.2882 -0.0148
  104MOL   H23835464   3.900   4.873   1.293  0.6461 -1.5063 -1.5231
  104MOL   H23935465   3.744   4.773   1.462  0.0735  1.0737 -0.6474
  104MOL   C24035466   3.594   4.697   1.806  0.6091  0.4028  0.3095
  104MOL   C24135467   3.448   4.741   1.778 -0.0337  0.0133 -0.2571
  104MOL   C24235468   3.406   4.693   1.633 -0.0532 -0.1081  0.1313
  104MOL   C24335469   3.381   4.555   1.600  0.4469 -0.1306 -0.0286
  104MOL   C24435470   3.309   4.520   1.477  0.1577  0.1184 -0.1717
  104MOL   C24535471   3.291   4.620   1.384  0.5728  0.5072  0.4005
  104MOL   C24635472   3.313   4.758   1.419 -0.2264 -0.3265  0.0767
  104MOL   C24735473   3.378   4.789   1.537 -0.0515 -0.4001  0.2681
  104MOL   O24835474   3.386   4.677   1.883  0.6153 -0.2508 -0.3394
  104MOL   H24935475   3.594   4.598   1.850  0.4446  0.8290  1.2886
  104MOL   H25035476   3.639   4.756   1.886  0.2518 -0.3869  1.0926
  104MOL   H25135477   3.445   4.850   1.783 -0.4623 -0.0319  0.7134
  104MOL   H25235478   3.404   4.476   1.669 -0.8634 -2.0244 -1.6916
  104MOL   H25335479   3.276   4.418   1.462 -1.8963  0.2862  2.7182
  104MOL   H25435480   3.246   4.591   1.290 -0.3912 -1.7955  1.5264
  104MOL   H25535481   3.290   4.836   1.349 -1.2650  0.5697  1.4003
  104MOL   H25635482   3.386   4.893   1.565  0.5255  0.9642 -4.4734
  104MOL   C25735483   3.238   4.681   1.885  0.1228  0.5554 -0.1357
  104MOL   C25835484   3.172   4.820   1.909  0.5095  0.1027  0.0640
  104MOL   C25935485   3.026   4.813   1.955  0.2735  0.0581  0.8100
  104MOL   C26035486   2.921   4.844   1.864 -0.1084  0.8934 -0.3012
  104MOL   C26135487   2.788   4.818   1.902  0.2802 -0.6031  0.6157
  104MOL   C26235488   2.753   4.789   2.033 -0.1555  0.2994 -0.0013
  104MOL   C26335489   2.857   4.780   2.134  0.5814 -0.0923 -0.3024
  104MOL   C26435490   2.990   4.782   2.091  0.5101  0.4428 -0.0265
  104MOL   O26535491   3.194   4.914   1.801 -0.5036  0.3593 -0.0954
  104MOL   H26635492   3.205   4.627   1.974 -1.4776  0.1821 -0.9219
  104MOL   H26735493   3.189   4.627   1.803 -2.3821  1.7035  0.5449
  104MOL   H26835494   3.233   4.856   1.992  2.1722 -1.9061 -0.2392
  104MOL   H26935495   2.944   4.862   1.759  0.4621  0.2909 -0.2858
  104MOL   H27035496   2.713   4.835   1.827  0.4134 -0.5245  0.4992
  104MOL   H27135497   2.650   4.767   2.057  0.1757 -1.6933 -0.3693
  104MOL   H27235498   2.829   4.754   2.235 -0.7980  0.2056 -0.5893
  104MOL   H27335499   3.072   4.755   2.156  0.1123 -3.0321 -0.8538
  104MOL   C27435500   3.250   5.039   1.841  0.2322 -0.5638  0.0284
  104MOL   C27535501   3.179   5.149   1.760  0.4070 -0.2415 -1.1201
  104MOL   C27635502   3.224   5.146   1.618 -0.2894 -0.7164 -0.3103
  104MOL   C27735503   3.142   5.097   1.511  0.4676 -0.5930  0.0819
  104MOL   C27835504   3.184   5.098   1.373 -0.2301  0.0512 -0.0170
  104MOL   C27935505   3.315   5.137   1.350  0.7793 -0.4578 -0.1594
  104MOL   C28035506   3.396   5.188   1.450 -0.2367  0.3395  0.1606
  104MOL   C28135507   3.351   5.195   1.583 -0.0942 -0.3364  0.2397
  104MOL   O28235508   3.221   5.272   1.828  0.1881 -0.1395  0.0637
  104MOL   H28335509   3.220   5.059   1.944 -0.1669 -0.4286 -0.1113
  104MOL   H28435510   3.358   5.028   1.840  0.0674 -2.1985 -0.2205
  104MOL   H28535511   3.073   5.142   1.739  0.2847  0.6447 -0.8190
  104MOL   H28635512   3.043   5.058   1.531  1.3465 -0.9244  4.3684
  104MOL   H28735513   3.131   5.054   1.291  1.8115 -2.7359  0.0991
  104MOL   H28835514   3.354   5.129   1.249 -0.7168 -2.6868 -0.5974
  104MOL   H28935515   3.496   5.224   1.430 -1.1424  2.0425 -1.4852
  104MOL   H29035516   3.420   5.239   1.654  1.4576 -0.3511 -1.2263
  104MOL   C29135517   3.120   5.370   1.851 -0.1893  0.2983 -0.0468
  104MOL   C29235518   3.183   5.497   1.917  0.8052 -0.8709 -0.1815
  104MOL   C29335519   3.084   5.608   1.925  0.1955 -0.2414  0.4376
  104MOL   C29435520   2.988   5.620   2.033 -0.1288 -0.3221  0.3038
  104MOL   C29535521   2.889   5.720   2.043  0.5056 -0.2078  0.1353
  104MOL   C29635522   2.889   5.820   1.946 -0.6664 -0.2742 -0.2816
  104MOL   C29735523   2.973   5.809   1.835 -0.1340 -0.7176  1.1160
  104MOL   C29835524   3.077   5.708   1.823  0.1351 -1.1573 -0.8428
  104MOL   O29935525   3.241   5.471   2.041  0.1994  0.4854  0.8030
  104MOL   H30035526   3.038   5.327   1.907  0.0062  0.1522  0.1300
  104MOL   H30135527   3.082   5.385   1.750  0.2237  0.7800 -0.1356
  104MOL   H30235528   3.259   5.537   1.849 -1.2765  0.0404 -2.0320
  104MOL   H30335529   2.999   5.536   2.100  0.4628  0.0684  0.7040
  104MOL   H30435530   2.823   5.720   2.129 -2.3520  1.8814 -1.9531
  104MOL   H30535531   2.812   5.895   1.954  0.9820  1.5990 -1.4728
  104MOL   H30635532   2.955   5.881   1.757 -2.7285 -0.6365  1.7258
  104MOL   H30735533   3.141   5.699   1.737  2.1987 -1.5942  0.6919
  104MOL   C30835534   3.322   5.584   2.084 -0.4835  0.2522 -0.6238
  104MOL   C30935535   3.377   5.559   2.227 -0.1801 -0.4090  0.1673
  104MOL   C31035536   3.464   5.668   2.281  0.7665 -0.0870  0.1840
  104MOL   C31135537   3.598   5.628   2.288 -0.5340 -0.2069  0.9387
  104MOL   C31235538   3.683   5.719   2.346 -0.0253  0.6965  0.0515
  104MOL   C31335539   3.640   5.851   2.367  0.7477 -0.1383  0.2264
  104MOL   C31435540   3.510   5.896   2.340  0.0216  0.0988  0.3602
  104MOL   C31535541   3.418   5.801   2.297  0.7480  0.9840  0.3020
  104MOL   O31635542   3.267   5.528   2.307  0.8686  0.3992 -0.2121
  104MOL   H31735543   3.263   5.676   2.088 -1.7624 -0.5645 -0.3443
  104MOL   H31835544   3.404   5.603   2.015  1.3367  1.8551  1.8662
  104MOL   H31935545   3.436   5.468   2.214  0.3435  0.1761 -1.7042
  104MOL   H32035546   3.635   5.529   2.268 -0.2069 -0.1140  1.0776
  104MOL   H32135547   3.781   5.678   2.365  0.4498  2.0213  0.5378
  104MOL   H32235548   3.705   5.929   2.404  0.9095 -0.2217  0.1184
  104MOL   H32335549   3.488   6.001   2.356 -1.8344 -0.0279 -1.1209
  104MOL   H32435550   3.321   5.835   2.264  1.9007  1.9573 -2.2906
  104MOL   C32535551   3.305   5.492   2.440  0.7184 -0.7323  0.2841
  104MOL   C32635552   3.175   5.435   2.504  0.1021  0.3467  0.5331
  104MOL   C32735553   3.186   5.376   2.644 -0.1702  0.3930 -0.1504
  104MOL   C32835554   3.254   5.257   2.657 -0.1364  0.1283  0.4146
  104MOL   C32935555   3.265   5.196   2.780  0.4435  0.2149  0.5508
  104MOL   C33035556   3.220   5.263   2.891  0.0749  0.2065 -0.3580
  104MOL   C33135557   3.152   5.391   2.887  0.2298 -0.0620 -0.2167
  104MOL   C33235558   3.139   5.443   2.759 -0.7756  0.4089  0.9755
  104MOL   O33335559   3.085   5.544   2.505  1.3127  0.0996 -0.3249
  104MOL   H33435560   3.358   5.574   2.489 -0.8295  0.6386 -0.2929
  104MOL   H33535561   3.384   5.417   2.436 -0.0405 -1.4652 -2.3329
  104MOL   H33635562   3.124   5.356   2.449 -0.0072 -0.6994  2.0890
  104MOL   H33735563   3.297   5.206   2.571 -3.6337 -0.2668 -1.1798
  104MOL   H33835564   3.327   5.108   2.794  1.9582  0.9354 -1.4323
  104MOL   H33935565   3.236   5.224   2.990 -0.3283 -3.6116 -1.7209
  104MOL   H34035566   3.115   5.450   2.969 -0.0849 -1.5161  0.7236
  104MOL   H34135567   3.082   5.533   2.741 -0.0260  0.1225 -3.4742
  104MOL   H34235568   3.114   5.600   2.434 -0.9903  1.5362 -0.1864
  105MOL     C135569   0.649   2.809   4.118 -0.1180  0.1276 -0.0963
  105MOL     C235570   0.712   2.703   4.026 -1.3386 -0.2861  0.3474
  105MOL     C335571   0.865   2.716   4.038  0.4807  0.6809  0.2395
  105MOL     C435572   0.926   2.826   3.979 -0.5763  0.1453 -0.3929
  105MOL     C535573   1.065   2.842   3.989  0.0619 -0.4494  0.1135
  105MOL     C635574   1.140   2.760   4.078 -0.7601  0.6766  0.5915
  105MOL     C735575   1.086   2.643   4.128  0.8579 -0.0410 -0.1829
  105MOL     C835576   0.945   2.631   4.112  0.3544 -0.0633 -0.3634
  105MOL     O935577   0.668   2.707   3.888  0.3012  0.6141  0.3957
  105MOL    H1035578   0.678   2.797   4.222 -0.4292 -1.4264 -0.1782
  105MOL    H1135579   0.678   2.907   4.082  2.0665  0.1084  1.5084
  105MOL    H1235580   0.698   2.604   4.069  2.0402 -0.8202  0.3431
  105MOL    H1335581   0.871   2.888   3.910 -0.4611 -0.9582 -1.5073
  105MOL    H1435582   1.115   2.917   3.929 -2.3955  0.5575 -0.7104
  105MOL    H1535583   1.246   2.779   4.094  0.0164 -0.9843 -2.1567
  105MOL    H1635584   1.138   2.571   4.190 -0.9730 -0.4551  0.9530
  105MOL    H1735585   0.900   2.552   4.170 -2.0224  1.3160 -0.2736
  105MOL    H1835586   0.540   2.804   4.124 -0.2913  0.5778 -2.4173
  105MOL    C1935587   0.529   2.673   3.877  0.5011 -0.0654 -0.3080
  105MOL    C2035588   0.493   2.596   3.752  0.4744  0.5809 -0.0376
  105MOL    C2135589   0.351   2.634   3.705  0.0073 -0.0014  0.1417
  105MOL    C2235590   0.230   2.587   3.769  0.4141 -0.4418  0.3859
  105MOL    C2335591   0.106   2.636   3.722  0.2277 -0.8494  0.5407
  105MOL    C2435592   0.092   2.724   3.615 -0.1493 -0.1377 -0.6508
  105MOL    C2535593   0.208   2.774   3.554 -0.1356  0.4980 -0.4327
  105MOL    C2635594   0.338   2.732   3.602  0.2235  0.3221  0.2888
  105MOL    O2735595   0.491   2.455   3.789 -0.0105  0.5150  0.0347
  105MOL    H2835596   0.481   2.628   3.963 -1.1607  0.4872 -0.9210
  105MOL    H2935597   0.480   2.769   3.861 -1.6875 -1.3364 -1.4402
  105MOL    H3035598   0.567   2.626   3.677  3.7347 -0.9995  2.4378
  105MOL    H3135599   0.234   2.515   3.850  0.6524 -2.4622 -1.3816
  105MOL    H3235600   0.014   2.605   3.771 -0.0202 -1.7862 -0.5073
  105MOL    H3335601   0.003   2.770   3.575  0.4053 -0.9680 -2.9044
  105MOL    H3435602   0.214   2.848   3.476  0.1933  0.5812 -0.3278
  105MOL    H3535603   0.427   2.758   3.548  0.1017  0.7833  0.3116
  105MOL    C3635604   0.609   2.385   3.765  0.2491 -0.8671 -0.5722
  105MOL    C3735605   0.607   2.241   3.829 -0.3391  0.0240  0.2613
  105MOL    C3835606   0.470   2.170   3.823 -0.4481  0.0790  0.1671
  105MOL    C3935607   0.408   2.152   3.694  0.3696  0.1688 -0.4214
  105MOL    C4035608   0.288   2.079   3.680  0.1096  0.2417 -0.3090
  105MOL    C4135609   0.224   2.029   3.798  0.1914 -0.5662 -0.5446
  105MOL    C4235610   0.289   2.044   3.923  0.7740  0.4518  0.5899
  105MOL    C4335611   0.407   2.119   3.937 -0.0979 -1.1654  0.1498
  105MOL    O4435612   0.649   2.236   3.957 -0.9371  0.2169 -0.1876
  105MOL    H4535613   0.637   2.379   3.659 -0.6411 -0.0647 -0.8631
  105MOL    H4635614   0.694   2.441   3.804 -1.1428  1.3687 -0.6427
  105MOL    H4735615   0.680   2.190   3.766 -0.5310 -1.8055  1.4813
  105MOL    H4835616   0.448   2.201   3.606  0.3807  1.8951  0.5198
  105MOL    H4935617   0.241   2.064   3.584  0.2533 -1.5842 -0.1168
  105MOL    H5035618   0.134   1.969   3.795  0.4450 -1.1773  2.4845
  105MOL    H5135619   0.242   1.997   4.008  1.7986  0.6750  1.2828
  105MOL    H5235620   0.454   2.137   4.033  0.5704 -1.6008 -0.0911
  105MOL    C5335621   0.791   2.206   3.978 -0.0221 -0.8128  0.2403
  105MOL    C5435622   0.817   2.208   4.130 -0.3533  0.1787 -0.0003
  105MOL    C5535623   0.969   2.178   4.160  0.5193  0.4437  0.1814
  105MOL    C5635624   1.052   2.272   4.222  0.1410 -0.8913  0.3158
  105MOL    C5735625   1.180   2.237   4.269 -0.9674  0.5601  0.5961
  105MOL    C5835626   1.228   2.108   4.237 -0.2177 -0.4713 -0.3816
  105MOL    C5935627   1.144   2.016   4.172  0.1305  0.4178  0.4668
  105MOL    C6035628   1.012   2.048   4.135  0.6305 -0.4914 -0.3395
  105MOL    O6135629   0.770   2.329   4.177  0.1319  0.0679 -0.1122
  105MOL    H6235630   0.833   2.114   3.938  2.7507 -0.6506  2.5905
  105MOL    H6335631   0.861   2.281   3.942  0.2915 -1.3219 -0.2011
  105MOL    H6435632   0.762   2.125   4.174  1.5787 -0.3733  1.4107
  105MOL    H6535633   1.016   2.373   4.237  0.3657 -1.0780  2.2148
  105MOL    H6635634   1.245   2.304   4.324  0.8048 -0.6849  0.0823
  105MOL    H6735635   1.331   2.086   4.261  0.2568  0.6851 -1.3277
  105MOL    H6835636   1.175   1.915   4.150 -0.7632  0.1441  0.4559
  105MOL    H6935637   0.947   1.984   4.077 -0.1244 -0.6267  0.6342
  105MOL    C7035638   0.729   2.321   4.315 -0.5357  0.1610  0.3633
  105MOL    C7135639   0.647   2.445   4.367 -0.9358  0.9956 -0.0198
  105MOL    C7235640   0.508   2.459   4.312 -0.0630  0.6380  0.0634
  105MOL    C7335641   0.462   2.423   4.185 -0.0399  0.4050 -0.5544
  105MOL    C7435642   0.334   2.449   4.141  0.3283  0.0647 -0.1923
  105MOL    C7535643   0.252   2.521   4.230 -0.1214  0.2827 -0.1724
  105MOL    C7635644   0.293   2.560   4.358 -0.2679  0.3023 -0.3372
  105MOL    C7735645   0.425   2.535   4.398  0.5067  0.0313 -0.0937
  105MOL    O7835646   0.725   2.558   4.352  0.0187  0.1169 -0.5498
  105MOL    H7935647   0.674   2.229   4.333  0.4362 -0.5567 -0.2806
  105MOL    H8035648   0.820   2.325   4.376 -0.7975  0.8532  0.7138
  105MOL    H8135649   0.630   2.423   4.472 -0.0943  0.4639  0.0130
  105MOL    H8235650   0.531   2.381   4.113 -0.8175  0.9099 -1.6168
  105MOL    H8335651   0.297   2.426   4.042  0.2603  2.3396 -0.7183
  105MOL    H8435652   0.151   2.546   4.200  0.2111  1.0197 -0.6874
  105MOL    H8535653   0.217   2.611   4.417 -1.9046 -0.0935 -2.0518
  105MOL    H8635654   0.452   2.569   4.497 -0.9680 -0.9402  0.6636
  105MOL    C8735655   0.817   2.578   4.461 -1.0920 -0.3359 -0.3433
  105MOL    C8835656   0.766   2.644   4.588 -0.1073 -0.8888 -0.6190
  105MOL    C8935657   0.680   2.770   4.569  0.3626 -0.5115 -0.2792
  105MOL    C9035658   0.547   2.779   4.626 -0.1582 -0.3404 -0.3978
  105MOL    C9135659   0.468   2.894   4.591  0.4121 -0.6614 -0.5620
  105MOL    C9235660   0.517   3.003   4.523  0.9669 -0.0807  0.2007
  105MOL    C9335661   0.648   2.997   4.465  0.2914  0.1592 -0.4768
  105MOL    C9435662   0.723   2.874   4.485 -0.2985 -0.5390  0.6631
  105MOL    O9535663   0.879   2.666   4.670  0.6234  0.1631 -0.0440
  105MOL    H9635664   0.892   2.648   4.425  0.7490 -0.2057  3.4934
  105MOL    H9735665   0.885   2.497   4.487 -2.0737 -1.2844 -0.7097
  105MOL    H9835666   0.702   2.572   4.639 -0.6055  1.8533  2.7706
  105MOL    H9935667   0.505   2.699   4.684 -0.4040  0.2184  0.1972
  105MOL   H10035668   0.363   2.903   4.614  0.0640 -0.9945 -1.9750
  105MOL   H10135669   0.450   3.085   4.505 -0.2328 -0.8226  1.2335
  105MOL   H10235670   0.681   3.076   4.400  0.1485  0.6454  0.0321
  105MOL   H10335671   0.820   2.871   4.438 -0.5963 -0.4386  0.0373
  105MOL   C10435672   0.841   2.693   4.798 -0.1729  0.2514  0.0917
  105MOL   C10535673   0.810   2.574   4.897  0.1818  0.4780 -0.1487
  105MOL   C10635674   0.816   2.612   5.051  0.1391 -0.4920  0.7071
  105MOL   C10735675   0.933   2.584   5.123 -0.5642 -0.2011  0.4848
  105MOL   C10835676   0.941   2.625   5.257  0.6253 -0.2356  0.4982
  105MOL   C10935677   0.833   2.698   5.317 -0.1266 -0.5189  0.7563
  105MOL   C11035678   0.715   2.725   5.248 -0.3039  0.2070 -0.5566
  105MOL   C11135679   0.710   2.678   5.111  0.3264 -0.7640 -0.4873
  105MOL   O11235680   0.682   2.515   4.867 -0.1709  0.4804  0.0009
  105MOL   H11335681   0.926   2.750   4.836 -1.4597  2.4696 -0.2324
  105MOL   H11435682   0.765   2.772   4.801 -2.1191 -1.4856 -1.8534
  105MOL   H11535683   0.881   2.495   4.873  0.1589  0.7544 -1.1454
  105MOL   H11635684   1.005   2.518   5.078  0.4319  1.2313 -0.0483
  105MOL   H11735685   1.027   2.598   5.316  1.0470 -2.0563 -0.8864
  105MOL   H11835686   0.835   2.741   5.416  0.3781  3.0030 -0.6945
  105MOL   H11935687   0.637   2.788   5.290 -2.1587 -1.9891 -0.5989
  105MOL   H12035688   0.617   2.700   5.060  0.1730 -1.0086 -0.3132
  105MOL   C12135689   0.659   2.393   4.944 -0.1759  0.5264 -0.4715
  105MOL   C12235690   0.595   2.278   4.855 -0.7966  0.6921 -0.0299
  105MOL   C12335691   0.452   2.301   4.834 -0.3154  0.1006  0.4262
  105MOL   C12435692   0.404   2.365   4.716 -0.2483  0.0666 -0.5656
  105MOL   C12535693   0.264   2.397   4.707  0.5049  0.0856  0.0610
  105MOL   C12635694   0.176   2.362   4.812 -0.4342 -0.0604  0.1809
  105MOL   C12735695   0.223   2.286   4.919 -0.6706  0.4417 -0.2753
  105MOL   C12835696   0.356   2.265   4.932 -0.6674 -0.1538  0.3520
  105MOL   O12935697   0.671   2.269   4.728 -0.7742  0.1174 -0.0996
  105MOL   H13035698   0.597   2.409   5.032 -1.8810 -1.6215 -1.2477
  105MOL   H13135699   0.755   2.356   4.980 -0.4950  0.1057 -0.0403
  105MOL   H13235700   0.606   2.186   4.913 -2.9153 -0.5619 -1.5763
  105MOL   H13335701   0.472   2.391   4.637  2.4571 -0.5447  1.4611
  105MOL   H13435702   0.226   2.460   4.628 -1.3033 -0.3275  0.5659
  105MOL   H13535703   0.070   2.384   4.811 -0.7970 -1.8413 -0.6961
  105MOL   H13635704   0.153   2.265   4.998  1.8793  0.2324  2.0062
  105MOL   H13735705   0.385   2.207   5.019 -0.5297  2.0896  1.8371
  105MOL   C13835706   0.703   2.132   4.695 -0.2931 -0.1473 -0.9804
  105MOL   C13935707   0.824   2.075   4.776 -0.3120 -0.4219 -0.1126
  105MOL   C14035708   0.930   2.175   4.815 -0.3575  0.2245 -0.0356
  105MOL   C14135709   0.995   2.264   4.724  0.0132  0.4903  0.6131
  105MOL   C14235710   1.110   2.333   4.753  0.7077 -0.1401 -0.1172
  105MOL   C14335711   1.159   2.336   4.888  0.2642  0.4052 -0.6714
  105MOL   C14435712   1.098   2.252   4.984 -0.4428 -0.1180 -0.0627
  105MOL   C14535713   0.984   2.177   4.945 -0.8388 -0.4092 -0.1598
  105MOL   O14635714   0.769   2.005   4.887  0.1077  0.5178 -0.5558
  105MOL   H14735715   0.730   2.140   4.589 -0.8065  1.7056 -0.9897
  105MOL   H14835716   0.615   2.068   4.697 -0.2040 -0.2519 -0.3560
  105MOL   H14935717   0.865   1.996   4.712 -0.1819  0.4660 -1.1284
  105MOL   H15035718   0.955   2.281   4.624  1.1442  0.4542  0.1512
  105MOL   H15135719   1.170   2.395   4.688  0.4533  1.0518  0.7644
  105MOL   H15235720   1.249   2.389   4.915  0.5306 -0.2706 -0.2385
  105MOL   H15335721   1.137   2.256   5.085  1.8120 -3.2503 -0.7430
  105MOL   H15435722   0.941   2.106   5.013 -1.1662  2.2268  2.4824
  105MOL   C15535723   0.827   1.880   4.920  0.2497 -0.0091 -0.4617
  105MOL   C15635724   0.787   1.831   5.063  0.0275 -0.7280 -0.1871
  105MOL   C15735725   0.647   1.767   5.063  0.5572  0.6851  0.0165
  105MOL   C15835726   0.545   1.822   4.985 -0.5539 -0.0354  0.9253
  105MOL   C15935727   0.422   1.765   4.991 -1.1530 -0.1725  0.3683
  105MOL   C16035728   0.402   1.649   5.067 -0.2958  0.9755 -0.2326
  105MOL   C16135729   0.505   1.594   5.147  0.1239  0.3602  0.0752
  105MOL   C16235730   0.632   1.647   5.140 -0.2284 -0.3185 -0.7473
  105MOL   O16335731   0.884   1.732   5.095 -0.5325  0.0369 -0.3623
  105MOL   H16435732   0.934   1.899   4.913 -0.0665  1.4093 -1.5642
  105MOL   H16535733   0.813   1.808   4.841  1.0806 -0.5280 -0.1490
  105MOL   H16635734   0.788   1.915   5.132 -2.2798  0.3861 -1.4467
  105MOL   H16735735   0.563   1.914   4.932 -1.2626 -0.9220 -0.8897
  105MOL   H16835736   0.335   1.803   4.939 -1.4552 -1.8093 -0.3607
  105MOL   H16935737   0.300   1.614   5.061  0.4107 -1.1855  0.1948
  105MOL   H17035738   0.487   1.503   5.203 -0.0508  0.8001  0.7406
  105MOL   H17135739   0.712   1.611   5.204 -0.9286  0.0215  0.3445
  105MOL   C17235740   0.972   1.757   5.202 -0.1224 -0.3299 -0.0657
  105MOL   C17335741   1.055   1.632   5.243 -0.3114 -0.4707 -0.6928
  105MOL   C17435742   1.153   1.592   5.128 -0.4348  0.6996 -0.1828
  105MOL   C17535743   1.113   1.499   5.024 -0.0416 -0.4770 -0.4404
  105MOL   C17635744   1.201   1.445   4.923 -0.2934 -0.5591 -0.3942
  105MOL   C17735745   1.330   1.495   4.928 -0.5524 -0.0982  0.3348
  105MOL   C17835746   1.375   1.604   5.013 -0.8310  0.0587  0.0759
  105MOL   C17935747   1.281   1.652   5.113  0.7060 -0.5434 -0.2072
  105MOL   O18035748   0.967   1.525   5.295  0.0752  0.4848 -0.0085
  105MOL   H18135749   1.032   1.848   5.189 -1.0666  0.7327  2.5759
  105MOL   H18235750   0.921   1.787   5.294  1.2728 -0.2662  0.7060
  105MOL   H18335751   1.119   1.661   5.327  1.1049 -2.0396 -1.2121
  105MOL   H18435752   1.018   1.449   5.036  0.0616 -0.5219  0.1802
  105MOL   H18535753   1.154   1.377   4.854 -0.3090 -1.0386  0.0814
  105MOL   H18635754   1.400   1.440   4.867 -2.0995  0.2387 -1.8063
  105MOL   H18735755   1.478   1.636   5.024 -0.4569 -0.5387 -1.5428
  105MOL   H18835756   1.318   1.727   5.182 -0.3415  0.6847 -0.9627
  105MOL   C18935757   1.027   1.428   5.382  0.3686 -0.1495 -0.2479
  105MOL   C19035758   1.024   1.464   5.531  0.6360  0.2152 -0.0544
  105MOL   C19135759   0.878   1.476   5.584  0.2328  0.2665 -0.2475
  105MOL   C19235760   0.830   1.393   5.695 -0.3788 -0.9332  0.0844
  105MOL   C19335761   0.699   1.418   5.744  0.3094  0.4621  0.2799
  105MOL   C19435762   0.612   1.509   5.678 -0.0112 -0.3868 -0.2327
  105MOL   C19535763   0.654   1.579   5.567 -0.1434 -0.0042 -0.2927
  105MOL   C19635764   0.789   1.574   5.529  0.9188 -0.4006 -0.7022
  105MOL   O19735765   1.098   1.585   5.555 -0.1093  0.3197  0.1861
  105MOL   H19835766   0.974   1.333   5.378  0.9837 -0.5676  1.2499
  105MOL   H19935767   1.125   1.410   5.338 -0.8108 -1.3623 -2.4571
  105MOL   H20035768   1.080   1.378   5.570  0.4386  0.5486  0.9836
  105MOL   H20135769   0.892   1.312   5.730 -0.7373  0.2852  3.7597
  105MOL   H20235770   0.660   1.362   5.828  0.9308 -1.6008 -0.7581
  105MOL   H20335771   0.512   1.522   5.718  0.0648 -1.1617  0.2116
  105MOL   H20435772   0.585   1.643   5.515 -0.0555  0.9932  0.8004
  105MOL   H20535773   0.817   1.639   5.448  0.9475 -0.0400 -0.4021
  105MOL   C20635774   1.235   1.559   5.575  0.0002  0.2087  0.2648
  105MOL   C20735775   1.303   1.685   5.634 -0.4759  0.0025 -0.4477
  105MOL   C20835776   1.275   1.806   5.541  0.5326 -0.2101  0.1814
  105MOL   C20935777   1.151   1.872   5.556  0.2249  0.2068 -0.1350
  105MOL   C21035778   1.123   1.983   5.475 -0.3465  0.2055 -0.3732
  105MOL   C21135779   1.217   2.030   5.388 -0.1689  0.2753 -0.1001
  105MOL   C21235780   1.344   1.967   5.375 -0.2443 -0.0967 -0.5339
  105MOL   C21335781   1.369   1.850   5.451  0.2609 -0.8234 -0.6291
  105MOL   O21435782   1.440   1.654   5.646 -0.0610  0.5475 -0.4172
  105MOL   H21535783   1.248   1.480   5.649 -1.6076  2.0538  2.6186
  105MOL   H21635784   1.275   1.516   5.483  0.1140  0.5890  0.1389
  105MOL   H21735785   1.251   1.687   5.730  1.4483  0.4045  0.6083
  105MOL   H21835786   1.084   1.828   5.629 -2.2170 -1.1564 -3.1193
  105MOL   H21935787   1.030   2.039   5.473 -0.8049 -0.5638 -1.8335
  105MOL   H22035788   1.205   2.122   5.333  0.7144  0.0715 -0.6605
  105MOL   H22135789   1.416   1.990   5.298  2.1528 -0.0150  1.6749
  105MOL   H22235790   1.453   1.783   5.442 -0.8731 -2.7106  1.9753
  105MOL   C22335791   1.505   1.749   5.734 -0.0034  0.4667 -0.3751
  105MOL   C22435792   1.651   1.717   5.752  0.8118  0.0166 -0.1410
  105MOL   C22535793   1.669   1.571   5.806 -1.1474  0.3950  0.2503
  105MOL   C22635794   1.584   1.506   5.903 -0.4671  0.9041  0.3160
  105MOL   C22735795   1.614   1.379   5.962 -0.0529 -0.6183  0.2003
  105MOL   C22835796   1.726   1.306   5.916 -0.5375 -0.7571 -1.1158
  105MOL   C22935797   1.809   1.370   5.824 -0.2678  0.2814  0.5339
  105MOL   C23035798   1.794   1.504   5.776  0.6357 -0.1775  0.0133
  105MOL   O23135799   1.728   1.737   5.631 -0.8230 -0.0314  0.6494
  105MOL   H23235800   1.494   1.850   5.696  0.5977  1.6207  2.4098
  105MOL   H23335801   1.459   1.754   5.833  0.1100 -1.7169 -0.1755
  105MOL   H23435802   1.680   1.783   5.834 -0.0673 -1.9515  1.8147
  105MOL   H23535803   1.497   1.561   5.935 -0.3458  0.4122  1.5143
  105MOL   H23635804   1.539   1.337   6.027 -0.6646  1.0851  0.6235
  105MOL   H23735805   1.748   1.211   5.963 -1.1107  0.2394  1.2473
  105MOL   H23835806   1.896   1.320   5.783 -1.1301 -0.5832 -0.2718
  105MOL   H23935807   1.870   1.556   5.721 -0.4463  1.5396  0.1117
  105MOL   C24035808   1.768   1.873   5.623 -0.1848  0.0659  0.5204
  105MOL   C24135809   1.876   1.887   5.515 -0.3897  0.1210 -0.0105
  105MOL   C24235810   1.851   2.020   5.441  0.0716  0.5031 -0.8893
  105MOL   C24335811   1.747   2.007   5.344 -0.5555 -0.0279 -0.0369
  105MOL   C24435812   1.719   2.130   5.279  1.2909  0.1681  0.0643
  105MOL   C24535813   1.785   2.251   5.300  0.1913 -0.6609  0.1533
  105MOL   C24635814   1.889   2.255   5.395 -0.3477 -0.1608  0.0294
  105MOL   C24735815   1.928   2.135   5.461  0.0481  0.8632  0.4207
  105MOL   O24835816   2.002   1.898   5.582  0.7212 -0.4911 -0.3679
  105MOL   H24935817   1.683   1.935   5.594  1.3093  1.7688 -0.3480
  105MOL   H25035818   1.796   1.916   5.718 -1.0806  4.2537 -1.0155
  105MOL   H25135819   1.873   1.805   5.444 -0.8002  1.5983 -1.7105
  105MOL   H25235820   1.686   1.923   5.314  1.9543 -1.7486 -0.4924
  105MOL   H25335821   1.636   2.120   5.210 -0.1220  1.1084  1.5687
  105MOL   H25435822   1.753   2.342   5.252  2.6462  1.2041  1.9105
  105MOL   H25535823   1.938   2.347   5.426 -0.0622 -0.3702  0.2002
  105MOL   H25635824   2.001   2.139   5.540  0.0846  1.3996  0.3590
  105MOL   C25735825   2.077   1.779   5.605 -0.6535 -0.2618 -0.2668
  105MOL   C25835826   2.149   1.794   5.744  0.4928 -0.6636  0.5798
  105MOL   C25935827   2.050   1.831   5.858 -1.0885 -0.2908 -0.6078
  105MOL   C26035828   1.979   1.730   5.929  0.8310 -0.0643  0.8138
  105MOL   C26135829   1.880   1.770   6.025 -0.0970  0.4079 -0.2176
  105MOL   C26235830   1.862   1.912   6.055 -0.2747  0.8405  0.0786
  105MOL   C26335831   1.939   2.007   5.983  0.2399 -0.5275  0.2731
  105MOL   C26435832   2.034   1.969   5.885  1.3921 -0.3521  0.2018
  105MOL   O26535833   2.251   1.888   5.734  0.0280 -0.2246 -0.0809
  105MOL   H26635834   2.150   1.762   5.527  1.0622  0.9570  1.0425
  105MOL   H26735835   2.004   1.698   5.606 -0.3040 -0.5923 -1.4811
  105MOL   H26835836   2.195   1.701   5.777 -0.9256 -1.5116  0.2395
  105MOL   H26935837   1.986   1.628   5.895  0.7143  0.3641 -0.5562
  105MOL   H27035838   1.824   1.696   6.082 -1.6559 -1.4380 -3.9683
  105MOL   H27135839   1.798   1.948   6.134 -1.2292  2.0399 -1.2224
  105MOL   H27235840   1.918   2.108   6.015 -1.0190 -1.0022  1.0003
  105MOL   H27335841   2.090   2.048   5.837 -1.4845  1.6028 -0.1166
  105MOL   C27435842   2.373   1.847   5.678 -0.5057  0.4987  0.4890
  105MOL   C27535843   2.480   1.950   5.709 -0.2945  0.4396 -0.2782
  105MOL   C27635844   2.458   2.082   5.640  0.4047 -0.1430 -0.5275
  105MOL   C27735845   2.351   2.178   5.669  0.7258  0.3528  0.3008
  105MOL   C27835846   2.344   2.313   5.612  0.2125 -0.2927  1.2415
  105MOL   C27935847   2.451   2.360   5.539 -0.4625 -0.2025 -0.1028
  105MOL   C28035848   2.549   2.267   5.504  0.4873 -0.3449 -0.0714
  105MOL   C28135849   2.554   2.137   5.556 -0.0300  0.0369  0.0362
  105MOL   O28235850   2.597   1.884   5.665 -0.6471 -0.3870 -0.0706
  105MOL   H28335851   2.394   1.749   5.720 -0.2617  0.4588  0.2704
  105MOL   H28435852   2.371   1.837   5.570  0.3928  0.5354  0.4704
  105MOL   H28535853   2.484   1.958   5.817  0.5025 -0.8464 -0.2114
  105MOL   H28635854   2.268   2.149   5.732  0.9835 -0.5660  0.2334
  105MOL   H28735855   2.262   2.379   5.633 -0.2594 -0.9011  1.3199
  105MOL   H28835856   2.448   2.466   5.519 -0.1311 -0.4155 -1.3001
  105MOL   H28935857   2.633   2.292   5.440 -0.2155  0.7183 -0.5811
  105MOL   H29035858   2.644   2.082   5.533 -0.7297 -1.1908  0.2185
  105MOL   C29135859   2.702   1.903   5.760 -0.5343 -0.4515  0.4972
  105MOL   C29235860   2.839   1.871   5.691 -0.2232 -0.2421 -0.0806
  105MOL   C29335861   2.851   1.727   5.645 -0.3157 -0.0190  0.2474
  105MOL   C29435862   2.941   1.637   5.706  0.6174  1.2186 -0.1790
  105MOL   C29535863   2.965   1.507   5.644 -0.2467 -0.2029  0.7271
  105MOL   C29635864   2.879   1.468   5.545 -0.4820  0.4865 -0.2266
  105MOL   C29735865   2.781   1.556   5.497  0.1509 -0.6815 -0.5416
  105MOL   C29835866   2.764   1.686   5.544 -0.5335 -0.1519  0.2852
  105MOL   O29935867   2.842   1.958   5.574  0.1076 -0.1829  0.2116
  105MOL   H30035868   2.685   1.833   5.842 -1.7275 -0.8973 -0.1144
  105MOL   H30135869   2.707   2.007   5.793  0.3162 -0.6574  1.0342
  105MOL   H30235870   2.915   1.893   5.767 -0.5668  0.8484 -0.0470
  105MOL   H30335871   2.995   1.673   5.793 -0.2358  2.3770 -0.1126
  105MOL   H30435872   3.041   1.437   5.675  1.0912 -0.0809 -2.1324
  105MOL   H30535873   2.889   1.365   5.515 -0.8476  0.6779 -1.0001
  105MOL   H30635874   2.704   1.525   5.427  0.2643  0.4033 -1.1513
  105MOL   H30735875   2.686   1.748   5.502  0.9897  0.3777 -1.8610
  105MOL   C30835876   2.964   1.962   5.511  0.5907  0.8434  0.3681
  105MOL   C30935877   2.958   2.072   5.401  0.8247 -0.1610 -0.5234
  105MOL   C31035878   3.091   2.141   5.371 -0.1890 -0.2350  0.2656
  105MOL   C31135879   3.163   2.130   5.254 -0.1512 -0.4555  0.8505
  105MOL   C31235880   3.284   2.202   5.240 -0.2672  0.4427 -0.0943
  105MOL   C31335881   3.340   2.274   5.348 -0.3400  0.1700 -0.2169
  105MOL   C31435882   3.267   2.288   5.467  0.4956 -0.1142 -0.0034
  105MOL   C31535883   3.142   2.228   5.474  0.2854  0.5012 -0.0527
  105MOL   O31635884   2.900   2.009   5.283 -0.5788  0.3461  0.0095
  105MOL   H31735885   2.990   1.868   5.463  0.6514  1.8310 -1.5535
  105MOL   H31835886   3.041   1.985   5.585  1.5805  1.0007 -0.6993
  105MOL   H31935887   2.906   2.164   5.428 -0.3201 -0.2125 -2.4502
  105MOL   H32035888   3.128   2.061   5.178  0.6799 -0.9106  0.8761
  105MOL   H32135889   3.347   2.192   5.153  1.3635  0.4345  1.0495
  105MOL   H32235890   3.438   2.319   5.342  1.4093 -3.3978  0.3073
  105MOL   H32335891   3.302   2.352   5.547  1.4273 -0.1597 -0.3699
  105MOL   H32435892   3.087   2.231   5.567  1.0808  0.1596  0.4356
  105MOL   C32535893   2.758   2.010   5.288  0.2322 -0.5267 -0.5204
  105MOL   C32635894   2.694   1.960   5.155 -0.3029  0.2382  0.0854
  105MOL   C32735895   2.550   1.958   5.202  0.4773  0.2076  0.0546
  105MOL   C32835896   2.492   1.840   5.251 -0.6850 -0.3912  0.0832
  105MOL   C32935897   2.359   1.842   5.279  0.6717  0.1862 -0.5443
  105MOL   C33035898   2.268   1.953   5.268 -0.1035 -0.4913 -0.5080
  105MOL   C33135899   2.329   2.073   5.237 -0.0326  0.0360 -0.2783
  105MOL   C33235900   2.469   2.073   5.193  0.2214 -0.6382 -0.2633
  105MOL   O33335901   2.717   2.056   5.054 -0.1429 -0.2556  0.1158
  105MOL   H33435902   2.729   2.113   5.304  0.5584 -0.7626  1.6890
  105MOL   H33535903   2.725   1.948   5.371 -0.7068 -1.3070 -1.4499
  105MOL   H33635904   2.729   1.857   5.144  0.9237  0.5340  1.1256
  105MOL   H33735905   2.547   1.750   5.273 -0.3409 -0.6368 -1.7509
  105MOL   H33835906   2.319   1.746   5.307  0.2560  0.4285 -0.3085
  105MOL   H33935907   2.164   1.947   5.294 -0.6152 -0.0999 -2.3895
  105MOL   H34035908   2.272   2.165   5.242 -2.0962 -1.1619 -1.2140
  105MOL   H34135909   2.502   2.167   5.152  1.1219 -1.6832 -1.9786
  105MOL   H34235910   2.811   2.067   5.049 -0.3502  1.6369  0.0565
  106MOL     C135911   1.635   1.886   2.962  0.2720  0.1628 -0.4580
  106MOL     C235912   1.783   1.889   2.941  0.8056 -0.5890 -0.2220
  106MOL     C335913   1.814   1.801   2.818  0.5437  0.7340  0.4891
  106MOL     C435914   1.827   1.662   2.833 -0.2243  0.0476  0.3945
  106MOL     C535915   1.871   1.576   2.728  0.0937  0.0026  0.6760
  106MOL     C635916   1.887   1.638   2.603 -0.5330  0.0981 -0.8875
  106MOL     C735917   1.870   1.775   2.589  0.3647  0.4666  0.6584
  106MOL     C835918   1.843   1.857   2.695 -0.6262 -0.0594  0.0612
  106MOL     O935919   1.859   1.848   3.058  0.3450 -0.0431  0.1559
  106MOL    H1035920   1.581   1.919   2.873 -1.1167 -2.3308 -0.5826
  106MOL    H1135921   1.602   1.785   2.986  0.1616  0.5900  1.2486
  106MOL    H1235922   1.814   1.992   2.926 -1.7147  0.1717 -0.4246
  106MOL    H1335923   1.817   1.632   2.936 -1.2935 -0.8407  0.0366
  106MOL    H1435924   1.897   1.473   2.745  0.5626  0.4063  2.5606
  106MOL    H1535925   1.915   1.580   2.516  0.0433  2.3355 -2.2587
  106MOL    H1635926   1.878   1.818   2.490 -0.9413 -1.9085 -0.5174
  106MOL    H1735927   1.832   1.961   2.665  0.5809 -0.3663 -1.5484
  106MOL    H1835928   1.605   1.958   3.038 -1.4411 -0.2947 -0.6728
  106MOL    C1935929   1.994   1.857   3.068  0.1534 -0.6774 -0.7350
  106MOL    C2035930   2.033   1.730   3.152  0.2321 -0.5172  0.0194
  106MOL    C2135931   1.976   1.733   3.298  0.4312 -0.0096 -0.3154
  106MOL    C2235932   2.065   1.764   3.408 -0.7321  1.0712 -0.1504
  106MOL    C2335933   2.014   1.776   3.543  0.5532  0.0795 -0.0322
  106MOL    C2435934   1.872   1.758   3.564 -0.1389  0.5627 -0.0622
  106MOL    C2535935   1.790   1.719   3.454  0.1869 -0.0208  0.4075
  106MOL    C2635936   1.840   1.719   3.322 -0.6637  0.3612 -0.4577
  106MOL    O2735937   2.170   1.740   3.152 -0.1132  0.3569 -0.0805
  106MOL    H2835938   2.037   1.842   2.968 -1.1470  0.9947 -1.5601
  106MOL    H2935939   2.027   1.956   3.099 -1.8825 -0.1905 -0.1177
  106MOL    H3035940   1.996   1.643   3.098  0.5043 -0.7747  0.2417
  106MOL    H3135941   2.172   1.768   3.392 -1.0056 -0.2440 -2.6531
  106MOL    H3235942   2.075   1.790   3.631  0.6436  0.4705 -0.1531
  106MOL    H3335943   1.821   1.756   3.660 -0.0336  0.0540 -0.0167
  106MOL    H3435944   1.686   1.699   3.475 -0.0993 -0.1131 -1.0766
  106MOL    H3535945   1.773   1.703   3.239 -1.1217  1.4922 -0.3167
  106MOL    C3635946   2.250   1.622   3.184  0.3954 -0.0938  0.6381
  106MOL    C3735947   2.267   1.526   3.069  0.3127  0.6364  0.2502
  106MOL    C3835948   2.298   1.600   2.940 -0.0490 -0.0552  0.0850
  106MOL    C3935949   2.194   1.624   2.850  0.0486  0.0476  1.0203
  106MOL    C4035950   2.220   1.679   2.722 -0.1174  0.0469  0.1025
  106MOL    C4135951   2.354   1.717   2.686  0.1979 -0.8161  0.3005
  106MOL    C4235952   2.458   1.696   2.779 -0.0819 -0.1373 -0.1644
  106MOL    C4335953   2.430   1.632   2.901  0.7276  0.1149 -0.0352
  106MOL    O4435954   2.143   1.448   3.052 -0.2265 -0.0542 -0.0091
  106MOL    H4535955   2.348   1.658   3.214  1.5931 -0.9442 -2.1509
  106MOL    H4635956   2.203   1.572   3.268 -1.4797  1.2901  0.4591
  106MOL    H4735957   2.356   1.463   3.083 -1.4080 -1.3265  2.9110
  106MOL    H4835958   2.093   1.606   2.885 -0.4609 -0.1166 -0.4763
  106MOL    H4935959   2.135   1.707   2.661 -2.4273 -1.2959  2.5871
  106MOL    H5035960   2.375   1.766   2.592  2.2333 -2.4789 -0.1561
  106MOL    H5135961   2.562   1.724   2.776 -0.0578 -0.2310 -0.1672
  106MOL    H5235962   2.510   1.613   2.971 -0.8060 -1.3772  1.3330
  106MOL    C5335963   2.173   1.310   3.045 -0.0647  0.4957  0.4845
  106MOL    C5435964   2.156   1.243   3.178 -0.4758  0.0086 -0.1307
  106MOL    C5535965   2.014   1.253   3.225  0.7008 -0.6250 -0.6778
  106MOL    C5635966   1.923   1.145   3.202  0.0913 -0.1875  0.3270
  106MOL    C5735967   1.789   1.160   3.239 -0.0224 -0.6409 -0.3438
  106MOL    C5835968   1.731   1.272   3.291 -0.2306  0.0005 -0.3694
  106MOL    C5935969   1.823   1.375   3.312  0.4190 -0.1475 -0.0443
  106MOL    C6035970   1.959   1.367   3.284  0.1768  0.2987 -0.2060
  106MOL    O6135971   2.210   1.115   3.170  0.1367  0.3758 -0.1101
  106MOL    H6235972   2.110   1.267   2.967  1.5031 -1.5616  0.3126
  106MOL    H6335973   2.275   1.292   3.010  0.4057  2.8642  0.5953
  106MOL    H6435974   2.223   1.295   3.248 -0.5115 -0.5715  0.3394
  106MOL    H6535975   1.951   1.058   3.144  0.2672  0.0235  0.0916
  106MOL    H6635976   1.728   1.075   3.212 -1.2463  0.7548 -2.0663
  106MOL    H6735977   1.624   1.285   3.304 -0.1877  1.5221 -1.3499
  106MOL    H6835978   1.790   1.465   3.361  0.3261  0.2871 -0.8956
  106MOL    H6935979   2.017   1.456   3.297  0.6331  0.5044 -3.2781
  106MOL    C7035980   2.200   1.046   3.296  0.2326 -0.7862  0.3981
  106MOL    C7135981   2.314   0.932   3.308 -0.3810 -0.1946  0.2877
  106MOL    C7235982   2.298   0.832   3.424  0.4735  0.2681 -0.1434
  106MOL    C7335983   2.277   0.878   3.557 -0.0133 -0.6662 -0.0111
  106MOL    C7435984   2.283   0.788   3.662  0.1035  0.8599  0.0662
  106MOL    C7535985   2.288   0.647   3.643 -0.2851 -0.6112 -0.2404
  106MOL    C7635986   2.320   0.604   3.507  0.0961 -0.1861 -0.2056
  106MOL    C7735987   2.319   0.692   3.405 -0.3988  0.8152  0.4548
  106MOL    O7835988   2.441   1.000   3.318  0.1755  0.2395  0.3293
  106MOL    H7935989   2.216   1.124   3.371 -0.3593 -0.6801  0.4193
  106MOL    H8035990   2.111   0.984   3.303 -0.1262 -0.3198 -0.0444
  106MOL    H8135991   2.313   0.866   3.221  3.1171 -0.9964  0.7739
  106MOL    H8235992   2.272   0.984   3.579  0.4773 -0.4224 -1.0322
  106MOL    H8335993   2.278   0.834   3.760 -2.2581  0.9897 -0.0820
  106MOL    H8435994   2.288   0.577   3.725  0.7372 -3.0142 -2.2575
  106MOL    H8535995   2.333   0.498   3.487 -0.9076 -0.6243  1.3249
  106MOL    H8635996   2.325   0.649   3.307 -3.0984 -1.6055  1.2763
  106MOL    C8735997   2.557   0.913   3.291 -0.7766 -0.2605  0.2227
  106MOL    C8835998   2.645   0.922   3.421 -0.0249  0.2871  1.0272
  106MOL    C8935999   2.750   1.027   3.415  0.0513 -0.0623 -0.2242
  106MOL    C9036000   2.850   1.025   3.320  0.9978 -0.2168 -0.1028
  106MOL    C9136001   2.928   1.142   3.299 -0.2949  0.4393  0.4741
  106MOL    C9236002   2.911   1.252   3.386 -0.0985 -0.4609 -1.3928
  106MOL    C9336003   2.819   1.247   3.494  0.9759  0.4913 -0.0635
  106MOL    C9436004   2.736   1.135   3.507 -0.2987 -0.0482 -0.1100
  106MOL    O9536005   2.699   0.793   3.453  0.1647  0.1054  0.1358
  106MOL    H9636006   2.601   0.955   3.201  1.7005 -2.4755  0.3369
  106MOL    H9736007   2.539   0.811   3.256 -2.1162  0.0798 -0.1084
  106MOL    H9836008   2.586   0.963   3.503  1.9460 -0.6539  2.9796
  106MOL    H9936009   2.861   0.952   3.242 -0.0143 -0.0493 -0.4100
  106MOL   H10036010   2.995   1.143   3.214  0.5423 -0.1282  1.1181
  106MOL   H10136011   2.984   1.330   3.377  0.9260 -1.1955  0.2452
  106MOL   H10236012   2.812   1.333   3.558 -0.5082  1.1841 -1.1159
  106MOL   H10336013   2.660   1.136   3.583 -0.9244 -0.7763 -0.7278
  106MOL   C10436014   2.662   0.753   3.578  0.1377  0.7006 -0.2820
  106MOL   C10536015   2.754   0.628   3.590  0.1831 -0.4793 -0.0422
  106MOL   C10636016   2.900   0.660   3.611 -0.1882  0.3671 -0.0066
  106MOL   C10736017   2.997   0.645   3.507 -0.0715 -0.0572 -0.9205
  106MOL   C10836018   3.133   0.652   3.525  0.0807  0.9346 -0.0467
  106MOL   C10936019   3.179   0.692   3.659 -0.4302 -0.5198 -0.2695
  106MOL   C11036020   3.086   0.709   3.761 -0.2701 -0.1334 -0.0201
  106MOL   C11136021   2.949   0.694   3.737 -0.8579 -0.9726 -0.5746
  106MOL   O11236022   2.698   0.542   3.685 -0.1114  0.3456  0.1344
  106MOL   H11336023   2.675   0.823   3.661 -1.0033  1.1779 -0.4897
  106MOL   H11436024   2.555   0.729   3.583 -0.1082  1.6170 -1.0542
  106MOL   H11536025   2.737   0.591   3.489 -0.0975 -0.8749  0.1491
  106MOL   H11636026   2.962   0.615   3.410 -2.2014  0.1629 -0.2466
  106MOL   H11736027   3.192   0.632   3.437 -0.1110  1.0719 -0.2080
  106MOL   H11836028   3.285   0.703   3.678 -0.4781 -0.7650  0.1591
  106MOL   H11936029   3.120   0.744   3.858  1.9307  4.1083 -2.2156
  106MOL   H12036030   2.879   0.708   3.817  0.7823 -0.7904  0.8569
  106MOL   C12136031   2.726   0.399   3.652  0.1200 -0.7678  0.6034
  106MOL   C12236032   2.632   0.302   3.722  0.9779 -0.4448 -0.2297
  106MOL   C12336033   2.625   0.319   3.873  0.1772 -0.4301 -0.3082
  106MOL   C12436034   2.506   0.360   3.939 -0.7159 -0.7157  0.0096
  106MOL   C12536035   2.503   0.383   4.077 -0.4670 -0.4007 -0.3562
  106MOL   C12636036   2.623   0.363   4.153  0.1156 -0.3138  0.5253
  106MOL   C12736037   2.735   0.305   4.088  0.1827  0.1220 -0.0831
  106MOL   C12836038   2.738   0.274   3.952 -0.6945 -0.2688 -0.0383
  106MOL   O12936039   2.505   0.301   3.663  0.1020  0.4903  0.0143
  106MOL   H13036040   2.823   0.372   3.692 -0.0976 -0.7006  1.1733
  106MOL   H13136041   2.729   0.394   3.543  0.5459 -2.7746  0.6955
  106MOL   H13236042   2.668   0.201   3.700 -1.0887 -0.8696 -1.7877
  106MOL   H13336043   2.420   0.380   3.877  0.2054  0.5264 -0.8886
  106MOL   H13436044   2.411   0.421   4.119  0.4716  1.5774 -0.0240
  106MOL   H13536045   2.627   0.378   4.260  1.6380  2.1965  0.1389
  106MOL   H13636046   2.807   0.262   4.156  1.5854  0.3153 -1.4200
  106MOL   H13736047   2.832   0.250   3.904 -1.4977 -0.0519 -1.7580
  106MOL   C13836048   2.484   0.208   3.560  0.3766  0.2317  0.0154
  106MOL   C13936049   2.341   0.184   3.532  0.1726 -0.2760  0.6848
  106MOL   C14036050   2.257   0.219   3.662 -0.3270  0.3759 -0.0068
  106MOL   C14136051   2.185   0.338   3.673  0.3915  0.7792 -0.2667
  106MOL   C14236052   2.118   0.380   3.787 -0.0425 -0.3457 -0.7545
  106MOL   C14336053   2.122   0.295   3.903 -0.2300 -0.4536  0.5118
  106MOL   C14436054   2.186   0.171   3.893 -0.5198 -0.0604  0.3374
  106MOL   C14536055   2.259   0.136   3.770 -0.2015 -0.0498 -0.5426
  106MOL   O14636056   2.302   0.262   3.413 -0.0423 -0.2656 -0.1132
  106MOL   H14736057   2.516   0.113   3.602 -0.6572 -0.5127 -0.8377
  106MOL   H14836058   2.540   0.230   3.469  0.0976  1.6308  0.1610
  106MOL   H14936059   2.325   0.077   3.513 -0.5741 -0.0214 -0.1492
  106MOL   H15036060   2.173   0.401   3.586 -1.3726  0.7122 -0.0926
  106MOL   H15136061   2.057   0.469   3.785  0.0067 -0.2891 -0.0727
  106MOL   H15236062   2.085   0.317   4.002 -0.7675 -1.1760  0.4736
  106MOL   H15336063   2.210   0.119   3.984 -2.5545  1.2834  1.7063
  106MOL   H15436064   2.329   0.054   3.767  0.3670  0.3178  1.7374
  106MOL   C15536065   2.170   0.239   3.363 -0.7231  0.2486  0.0581
  106MOL   C15636066   2.174   0.104   3.274  0.1976 -0.2424 -0.6093
  106MOL   C15736067   2.033   0.070   3.224  0.0957  1.1612  0.1381
  106MOL   C15836068   1.963   8.033   3.267 -0.1823 -0.1717 -0.4886
  106MOL   C15936069   1.841   7.994   3.209 -0.7218 -0.0180 -0.4028
  106MOL   C16036070   1.780   0.001   3.113  0.4567 -0.0217 -0.4240
  106MOL   C16136071   1.852   0.113   3.064  0.0799  0.0002 -0.0803
  106MOL   C16236072   1.977   0.145   3.118  0.1279 -0.5277  0.1227
  106MOL   O16336073   2.254   0.116   3.159  0.7596 -0.1172 -0.3589
  106MOL   H16436074   2.148   0.320   3.293 -2.4793  0.4219  0.7981
  106MOL   H16536075   2.094   0.235   3.441 -1.2172 -0.5613 -0.4666
  106MOL   H16636076   2.218   0.017   3.323  1.1086  0.8870  0.6187
  106MOL   H16736077   2.017   7.974   3.340 -2.0199  0.5719  1.5276
  106MOL   H16836078   1.792   7.900   3.229 -2.6558  0.3825 -2.9685
  106MOL   H16936079   1.682   8.055   3.077  0.8043 -1.6446 -0.2185
  106MOL   H17036080   1.799   0.181   2.999 -0.7470 -3.0303 -2.6873
  106MOL   H17136081   2.026   0.235   3.087 -0.1957  0.1010  1.4071
  106MOL   C17236082   2.392   0.129   3.180  0.2756 -0.3824 -0.1478
  106MOL   C17336083   2.456   0.097   3.044 -0.3878  0.1485  0.1536
  106MOL   C17436084   2.441   8.029   3.009 -0.0940 -0.5791 -0.0213
  106MOL   C17536085   2.326   7.978   2.948  0.4316 -0.0790  0.5265
  106MOL   C17636086   2.308   7.842   2.921  0.5054 -0.8943 -0.2231
  106MOL   C17736087   2.408   7.755   2.956  0.5849  0.0620  0.2722
  106MOL   C17836088   2.524   7.802   3.016  0.1990  0.6102  0.4196
  106MOL   C17936089   2.545   7.942   3.035 -0.0728  0.4836  0.3185
  106MOL   O18036090   2.586   0.148   3.045  0.6696  0.9179 -0.6608
  106MOL   H18136091   2.410   0.235   3.200  0.9841 -0.4077 -0.6525
  106MOL   H18236092   2.428   0.084   3.272  0.8375  0.2100 -0.0760
  106MOL   H18336093   2.397   0.146   2.966 -0.2031  0.5243  0.2473
  106MOL   H18436094   2.243   8.042   2.919  0.7476 -0.0105 -0.2334
  106MOL   H18536095   2.219   7.815   2.865 -0.8491 -0.4131  1.6536
  106MOL   H18636096   2.388   7.649   2.950 -1.5043  0.2658  2.7006
  106MOL   H18736097   2.601   7.732   3.044  0.9571  1.0888 -0.4383
  106MOL   H18836098   2.639   7.985   3.068  0.9094 -0.9294 -0.6158
  106MOL   C18936099   2.642   0.183   2.917  0.5690 -0.3092 -0.3557
  106MOL   C19036100   2.620   0.332   2.883  0.1286  0.7397 -0.9444
  106MOL   C19136101   2.678   0.418   2.993 -0.0352 -0.4843  0.5292
  106MOL   C19236102   2.592   0.464   3.100  0.1527  0.4949  0.6394
  106MOL   C19336103   2.644   0.547   3.205  0.0694 -0.2535  0.6031
  106MOL   C19436104   2.769   0.604   3.192 -0.0110  0.3845 -0.1644
  106MOL   C19536105   2.849   0.566   3.084 -0.1792  0.9227  0.3208
  106MOL   C19636106   2.808   0.474   2.986  0.1280 -0.6972 -0.5238
  106MOL   O19736107   2.479   0.359   2.866 -0.4955 -0.1566  0.5747
  106MOL   H19836108   2.749   0.170   2.930  0.1997 -1.7018  1.5424
  106MOL   H19936109   2.613   0.111   2.841  1.4536 -1.0946  0.0497
  106MOL   H20036110   2.671   0.338   2.787  2.7722  1.5593  0.4897
  106MOL   H20136111   2.497   0.415   3.116  1.1577 -1.8054 -0.1676
  106MOL   H20236112   2.585   0.569   3.292  0.9218  0.6410  0.9609
  106MOL   H20336113   2.807   0.668   3.270  0.4443  2.4916 -2.0735
  106MOL   H20436114   2.946   0.612   3.068  0.3616 -0.2444  0.2315
  106MOL   H20536115   2.875   0.455   2.904 -0.2189 -0.1141 -0.9514
  106MOL   C20636116   2.435   0.420   2.742 -0.0343 -0.0036 -1.2703
  106MOL   C20736117   2.286   0.420   2.733 -0.0573  0.3450  0.1710
  106MOL   C20836118   2.232   0.510   2.837  0.3438 -0.2421  0.0194
  106MOL   C20936119   2.227   0.649   2.819  0.3210 -0.5655  0.2146
  106MOL   C21036120   2.175   0.724   2.932 -0.6401  0.2033  0.4977
  106MOL   C21136121   2.135   0.670   3.053 -0.5814  0.1680  0.2170
  106MOL   C21236122   2.153   0.535   3.072 -0.4988  0.4932  0.6314
  106MOL   C21336123   2.197   0.458   2.963  0.0728  0.3257  0.4962
  106MOL   O21436124   2.233   0.286   2.745 -0.1928 -0.2838 -0.2836
  106MOL   H21536125   2.467   0.524   2.735 -1.2335  0.5339  0.7978
  106MOL   H21636126   2.481   0.370   2.657 -0.9828  1.1271 -2.4780
  106MOL   H21736127   2.249   0.460   2.638 -1.3149  2.5442  1.5196
  106MOL   H21836128   2.253   0.699   2.727  2.2670  0.8184  1.4815
  106MOL   H21936129   2.160   0.829   2.913 -1.5989  0.1870  1.1063
  106MOL   H22036130   2.090   0.728   3.133 -0.2088  0.7772 -0.0085
  106MOL   H22136131   2.146   0.487   3.168 -1.5854 -0.8064 -0.0749
  106MOL   H22236132   2.216   0.353   2.980 -2.5222 -0.6743 -2.3356
  106MOL   C22336133   2.276   0.187   2.654  0.6388 -0.5711  0.1932
  106MOL   C22436134   2.257   0.217   2.504  0.0627  0.6728  0.4222
  106MOL   C22536135   2.138   0.306   2.459  0.5282 -0.0236 -0.3492
  106MOL   C22636136   2.151   0.391   2.349  0.1780 -0.3489 -0.0913
  106MOL   C22736137   2.051   0.488   2.325 -0.3262  0.3409 -0.6350
  106MOL   C22836138   1.937   0.497   2.401  0.0553 -0.0003 -0.1181
  106MOL   C22936139   1.919   0.402   2.499  0.0901 -0.2093 -0.4349
  106MOL   C23036140   2.015   0.307   2.529  0.3202  0.3118 -0.9754
  106MOL   O23136141   2.384   0.274   2.456  0.1577  0.9140 -0.3363
  106MOL   H23236142   2.375   0.145   2.671 -0.0746 -3.3132 -2.0530
  106MOL   H23336143   2.199   0.114   2.680 -0.2963  0.7233  1.1113
  106MOL   H23436144   2.250   0.124   2.448 -1.2812  0.8919  0.2234
  106MOL   H23536145   2.241   0.384   2.290  1.1794  2.8281  0.9537
  106MOL   H23636146   2.072   0.553   2.241  0.6187 -0.0228 -0.6843
  106MOL   H23736147   1.860   0.572   2.391  0.3767  0.4854  1.0070
  106MOL   H23836148   1.834   0.398   2.564  1.1341  2.4209  1.1637
  106MOL   H23936149   1.998   0.248   2.618  1.5487  2.8114  0.9877
  106MOL   C24036150   2.468   0.176   2.399 -0.1514  1.1134 -0.0563
  106MOL   C24136151   2.587   0.233   2.324 -0.2874 -0.0148 -0.7930
  106MOL   C24236152   2.698   0.275   2.425 -1.2575 -0.7141  1.0551
  106MOL   C24336153   2.709   0.412   2.473 -0.0083 -0.4004 -0.2796
  106MOL   C24436154   2.806   0.437   2.570 -0.2350 -0.0333  0.4331
  106MOL   C24536155   2.896   0.335   2.607  0.1597  0.0961 -0.5161
  106MOL   C24636156   2.889   0.205   2.556  0.3872 -0.7766 -0.2617
  106MOL   C24736157   2.790   0.172   2.462  0.1701 -0.4725 -0.4525
  106MOL   O24836158   2.631   0.146   2.224 -0.3162 -0.4297  0.4690
  106MOL   H24936159   2.502   0.108   2.477  1.8156  2.6423  0.4535
  106MOL   H25036160   2.408   0.117   2.330 -1.3791  0.5016  1.5092
  106MOL   H25136161   2.552   0.316   2.264  0.5791  2.3769  1.8660
  106MOL   H25236162   2.649   0.491   2.430 -0.6002 -1.2240 -0.9889
  106MOL   H25336163   2.823   0.535   2.614  1.9904  0.7850 -2.1403
  106MOL   H25436164   2.982   0.367   2.664 -1.3079  1.0445  1.2225
  106MOL   H25536165   2.961   0.131   2.588  1.4169  0.7877  1.0728
  106MOL   H25636166   2.778   0.071   2.426 -3.2150 -0.1237 -0.4333
  106MOL   C25736167   2.705   0.209   2.117 -0.0923  0.7236  0.1189
  106MOL   C25836168   2.771   0.114   2.016  0.1007 -0.2400 -0.0922
  106MOL   C25936169   2.681   0.052   1.916  0.4244  0.1250  0.3436
  106MOL   C26036170   2.590   8.034   1.950  0.2198 -0.1833  0.0500
  106MOL   C26136171   2.531   7.956   1.850  0.7297  0.5932  0.3096
  106MOL   C26236172   2.557   7.985   1.718 -0.1975  0.2164 -0.2489
  106MOL   C26336173   2.630   0.020   1.682 -0.7098 -0.0486  0.0556
  106MOL   C26436174   2.696   0.091   1.784  0.4071  0.9495 -0.2314
  106MOL   O26536175   2.852   0.010   2.075 -0.5531 -0.7852  0.2265
  106MOL   H26636176   2.774   0.277   2.167 -2.4024  2.3758  1.1621
  106MOL   H26736177   2.647   0.279   2.057 -0.2956  0.6516  0.2303
  106MOL   H26836178   2.837   0.186   1.968  0.4629  0.8853  2.0225
  106MOL   H26936179   2.561   8.012   2.052 -0.7348  0.7930 -0.0018
  106MOL   H27036180   2.463   7.876   1.874  1.5153 -0.3699 -0.5874
  106MOL   H27136181   2.511   7.915   1.650 -1.0615  1.2793 -0.7792
  106MOL   H27236182   2.642   0.043   1.577 -1.4443  0.3799  0.0629
  106MOL   H27336183   2.767   0.167   1.755 -0.2403  2.1667  1.2973
  106MOL   C27436184   2.952   8.038   1.995  0.1920  0.3305  0.2072
  106MOL   C27536185   3.070   7.986   2.073 -0.4124  0.6898 -0.1206
  106MOL   C27636186   3.141   0.021   2.141 -0.5489 -0.2576 -0.9883
  106MOL   C27736187   3.273   0.063   2.101  0.1889 -0.2024  0.4833
  106MOL   C27836188   3.335   0.179   2.151 -0.9307  0.3643 -0.2239
  106MOL   C27936189   3.265   0.258   2.246 -0.5771  0.2502 -0.1512
  106MOL   C28036190   3.137   0.218   2.287 -0.5299  0.5466 -0.0965
  106MOL   C28136191   3.079   0.102   2.236  0.4301  0.4242 -0.1310
  106MOL   O28236192   3.156   7.907   1.993 -0.1712  0.3500 -1.1264
  106MOL   H28336193   2.911   7.960   1.933  0.9833  0.0991 -0.0307
  106MOL   H28436194   2.983   0.035   1.924 -0.2733 -1.1371 -1.6035
  106MOL   H28536195   3.030   7.929   2.157  0.5051 -0.0427 -0.1730
  106MOL   H28636196   3.321   8.080   2.027 -2.0859 -1.3666 -0.0466
  106MOL   H28736197   3.433   0.211   2.118 -0.7669 -0.4856 -0.5642
  106MOL   H28836198   3.317   0.348   2.277 -1.3341  0.8126 -0.4909
  106MOL   H28936199   3.088   0.288   2.353 -0.6302  1.3789 -1.0451
  106MOL   H29036200   2.977   0.095   2.270  0.2565  1.1716 -0.4835
  106MOL   C29136201   3.123   7.765   2.006  0.3801  0.6213  0.0261
  106MOL   C29236202   3.223   7.680   1.935  0.0374  0.9299 -0.6203
  106MOL   C29336203   3.209   7.534   1.973 -0.1956 -0.1710 -0.1765
  106MOL   C29436204   3.308   7.477   2.054 -0.5335  0.3187 -0.1523
  106MOL   C29536205   3.285   7.348   2.107  0.1228 -0.3212 -0.0797
  106MOL   C29636206   3.165   7.276   2.076  0.1958 -0.9108  0.0347
  106MOL   C29736207   3.069   7.342   2.004 -0.1947 -0.3090 -0.1152
  106MOL   C29836208   3.087   7.470   1.952  0.4274 -0.8901  0.5744
  106MOL   O29936209   3.183   7.694   1.797 -0.4536 -0.5103  0.0765
  106MOL   H30036210   3.019   7.744   1.982  0.4111  0.6940 -0.1658
  106MOL   H30136211   3.135   7.731   2.110 -0.6113  4.0574  1.3162
  106MOL   H30236212   3.324   7.719   1.944 -0.0881  1.1640 -0.2364
  106MOL   H30336213   3.393   7.541   2.075 -1.0818  0.4433  1.7484
  106MOL   H30436214   3.363   7.302   2.166  0.5196 -1.8016 -1.7012
  106MOL   H30536215   3.141   7.181   2.123 -1.1300 -0.4117  0.3847
  106MOL   H30636216   2.981   7.284   1.983 -0.9825  1.9508 -3.3534
  106MOL   H30736217   3.013   7.521   1.892 -0.8158  0.2131  2.9828
  106MOL   C30836218   3.276   7.658   1.695 -0.0678 -0.2887 -0.0009
  106MOL   C30936219   3.205   7.593   1.584 -0.2308  0.1866 -0.0224
  106MOL   C31036220   3.298   7.553   1.471  0.0468 -0.4665 -0.2577
  106MOL   C31136221   3.346   7.649   1.380 -0.5144  0.2782  0.5805
  106MOL   C31236222   3.445   7.609   1.284  0.7594 -0.0235 -0.4486
  106MOL   C31336223   3.492   7.478   1.277 -0.2439 -0.4783 -0.1178
  106MOL   C31436224   3.442   7.378   1.361 -0.2070 -0.3809 -0.3619
  106MOL   C31536225   3.342   7.418   1.453  0.4676 -0.0913 -0.1283
  106MOL   O31636226   3.136   7.483   1.641 -0.4013 -0.2872  0.3565
  106MOL   H31736227   3.340   7.584   1.744 -1.0153 -0.8787  0.3763
  106MOL   H31836228   3.333   7.747   1.671  0.5549 -0.8309 -0.5564
  106MOL   H31936229   3.142   7.671   1.541 -0.8628 -0.0997  0.3668
  106MOL   H32036230   3.321   7.754   1.372 -0.1834  0.3244  0.1145
  106MOL   H32136231   3.493   7.681   1.220  0.9179  0.1285 -0.1582
  106MOL   H32236232   3.570   7.460   1.205 -0.7956 -1.8636 -0.3793
  106MOL   H32336233   3.477   7.276   1.356  1.9294  0.3362 -0.6450
  106MOL   H32436234   3.302   7.343   1.520 -1.9556  0.6188 -0.7519
  106MOL   C32536235   3.005   7.463   1.595 -0.2642 -0.7852  0.5499
  106MOL   C32636236   2.950   7.320   1.606  1.0108  0.8114  0.4165
  106MOL   C32736237   2.803   7.303   1.594 -0.3497  0.3598 -0.1463
  106MOL   C32836238   2.728   7.343   1.701 -0.8338  0.0885  0.4793
  106MOL   C32936239   2.590   7.318   1.698 -0.1858 -0.2125 -0.2051
  106MOL   C33036240   2.528   7.262   1.581 -0.4480  0.0305  0.4363
  106MOL   C33136241   2.611   7.232   1.472  0.0423  0.4850  0.2876
  106MOL   C33236242   2.748   7.242   1.477 -0.0341 -0.3106 -0.0170
  106MOL   O33336243   3.029   7.249   1.514  0.1026  0.4078  0.3507
  106MOL   H33436244   2.994   7.497   1.492  1.6446 -1.2248  0.1926
  106MOL   H33536245   2.935   7.522   1.654  0.7299  2.4041 -1.3341
  106MOL   H33636246   2.967   7.285   1.708 -0.1745 -1.4151 -0.1109
  106MOL   H33736247   2.773   7.392   1.786 -0.3926  1.2097 -0.3920
  106MOL   H33836248   2.524   7.342   1.781 -0.6772  0.1845 -0.7060
  106MOL   H33936249   2.420   7.262   1.580 -0.4559  2.1832 -0.7656
  106MOL   H34036250   2.576   7.197   1.377 -2.2695  0.7926  0.9981
  106MOL   H34136251   2.810   7.233   1.388 -1.1333  1.1739 -0.9546
  106MOL   H34236252   3.070   7.312   1.456 -1.0485  0.0735 -0.8488
  107MOL     C136253   5.214   1.218   5.178  0.2587 -0.2737 -0.5515
  107MOL     C236254   5.169   1.096   5.256 -0.1956 -0.0656  0.3623
  107MOL     C336255   5.166   0.977   5.164  0.2750  0.2287 -0.0036
  107MOL     C436256   5.066   0.966   5.058 -0.0616  0.5681  0.1596
  107MOL     C536257   5.059   0.840   4.990 -0.3629  0.0735  0.4866
  107MOL     C636258   5.149   0.733   5.019 -0.0130 -0.7498  0.4153
  107MOL     C736259   5.246   0.746   5.120 -0.3243 -0.8433  0.5060
  107MOL     C836260   5.254   0.867   5.191  0.4876  0.1294 -0.1361
  107MOL     O936261   5.049   1.126   5.318  0.5349  0.1966 -0.6188
  107MOL    H1036262   5.316   1.200   5.147  0.2128 -0.8405 -0.3749
  107MOL    H1136263   5.144   1.233   5.095  0.3620  0.7598 -0.4623
  107MOL    H1236264   5.244   1.080   5.335 -1.0148 -1.6029  0.8485
  107MOL    H1336265   5.005   1.052   5.035 -0.5305  0.7321  1.9096
  107MOL    H1436266   4.996   0.824   4.904 -0.1986 -1.2510  0.6071
  107MOL    H1536267   5.136   0.643   4.960  0.0200  0.6776 -1.8363
  107MOL    H1636268   5.320   0.674   5.149  2.0287  0.9011 -0.9990
  107MOL    H1736269   5.325   0.882   5.271 -0.2792  0.5066  0.4791
  107MOL    H1836270   5.214   1.308   5.240 -1.0436 -1.1378  0.7590
  107MOL    C1936271   5.021   1.025   5.420  0.1604  0.2071  0.5170
  107MOL    C2036272   4.883   1.055   5.478 -0.1234  0.3458 -1.3802
  107MOL    C2136273   4.845   1.206   5.488 -0.7164 -0.3988 -0.7661
  107MOL    C2236274   4.708   1.247   5.488 -0.4199  0.8479  0.3349
  107MOL    C2336275   4.666   1.375   5.516 -0.1193 -0.2646  0.3384
  107MOL    C2436276   4.762   1.468   5.549 -0.1698 -0.3472  0.5239
  107MOL    C2536277   4.898   1.448   5.533 -0.7447 -0.2253 -0.6720
  107MOL    C2636278   4.937   1.310   5.511  0.6357 -0.5746  0.0156
  107MOL    O2736279   4.884   0.987   5.610 -0.4946  0.0178  0.3121
  107MOL    H2836280   5.026   0.923   5.382  0.3832  0.2485  0.4356
  107MOL    H2936281   5.094   1.031   5.501  0.9143 -2.0629  0.0435
  107MOL    H3036282   4.802   1.019   5.415 -1.0069 -2.8061  1.4051
  107MOL    H3136283   4.631   1.173   5.478 -1.9725  2.1962  2.1769
  107MOL    H3236284   4.562   1.399   5.528 -0.0099  0.2738  0.2242
  107MOL    H3336285   4.728   1.563   5.587  1.0240  1.3782 -2.4700
  107MOL    H3436286   4.976   1.522   5.545 -0.5418 -0.4324 -0.7163
  107MOL    H3536287   5.039   1.280   5.491  0.7036  0.4870 -1.2908
  107MOL    C3636288   4.763   0.957   5.665 -0.5176 -0.2252  0.2437
  107MOL    C3736289   4.728   0.807   5.647 -0.0869  0.3079  0.3155
  107MOL    C3836290   4.744   0.767   5.500 -0.8144  0.3621  0.0112
  107MOL    C3936291   4.640   0.790   5.409  0.0948  0.1307 -0.7519
  107MOL    C4036292   4.637   0.746   5.276  0.0558 -0.2255 -0.5600
  107MOL    C4136293   4.750   0.669   5.239 -0.2210  0.1699  0.4131
  107MOL    C4236294   4.854   0.636   5.321  0.5449  0.3868 -0.5669
  107MOL    C4336295   4.853   0.685   5.456 -0.1246 -0.3812  0.6822
  107MOL    O4436296   4.595   0.788   5.696 -0.3691  0.5669 -0.3283
  107MOL    H4536297   4.781   0.974   5.771  0.3899  1.1780 -0.1336
  107MOL    H4636298   4.692   1.034   5.635 -0.6402 -1.0219 -1.6010
  107MOL    H4736299   4.799   0.747   5.705  1.5607  2.2820  0.4118
  107MOL    H4836300   4.556   0.848   5.444 -1.2186 -0.7642 -2.3697
  107MOL    H4936301   4.573   0.784   5.198 -0.1871 -1.7543 -1.1240
  107MOL    H5036302   4.762   0.629   5.139  4.5474  0.2383  0.8642
  107MOL    H5136303   4.932   0.571   5.286  0.3953 -0.6909  1.0589
  107MOL    H5236304   4.931   0.666   5.528 -0.8692 -1.1096  1.2884
  107MOL    C5336305   4.560   0.655   5.729  0.6540  0.6458 -0.0377
  107MOL    C5436306   4.419   0.659   5.791  0.0920  0.0230  0.7532
  107MOL    C5536307   4.317   0.734   5.696  1.0216  0.4888  0.2137
  107MOL    C5636308   4.317   0.706   5.561 -0.7099  0.3817  0.5089
  107MOL    C5736309   4.234   0.773   5.470  0.0639 -0.1128 -0.5183
  107MOL    C5836310   4.134   0.863   5.521 -0.3701 -0.4569 -1.0566
  107MOL    C5936311   4.135   0.895   5.656 -0.4834  0.2693  0.2047
  107MOL    C6036312   4.224   0.828   5.744 -0.5035  0.2732 -0.5793
  107MOL    O6136313   4.374   0.524   5.813 -0.1635 -0.6576  0.4013
  107MOL    H6236314   4.574   0.577   5.654  2.4730 -1.1440  2.1026
  107MOL    H6336315   4.612   0.610   5.813 -0.2320  0.8247  0.6077
  107MOL    H6436316   4.420   0.706   5.889 -0.2003  0.4597  0.5529
  107MOL    H6536317   4.384   0.631   5.522 -0.8701 -0.8369  2.4966
  107MOL    H6636318   4.243   0.756   5.364 -0.7615 -3.9828 -0.0250
  107MOL    H6736319   4.072   0.925   5.458  0.8090  0.7269 -1.0758
  107MOL    H6836320   4.075   0.974   5.697 -0.1012 -0.5065  2.3608
  107MOL    H6936321   4.222   0.841   5.851 -1.4900  2.3832 -0.8366
  107MOL    C7036322   4.293   0.516   5.928 -0.3410  0.7715 -0.1920
  107MOL    C7136323   4.254   0.363   5.940  0.5369 -0.1582 -0.8010
  107MOL    C7236324   4.130   0.325   5.861 -0.6722  0.1029 -0.6387
  107MOL    C7336325   4.151   0.259   5.737  0.0997  0.1002  1.0257
  107MOL    C7436326   4.038   0.216   5.659 -0.1751 -0.1612  0.6389
  107MOL    C7536327   3.908   0.241   5.705  0.0344  0.3872  0.2958
  107MOL    C7636328   3.886   0.308   5.826  0.4494 -0.7431  0.0442
  107MOL    C7736329   3.997   0.354   5.905  0.2215 -0.0957 -0.1786
  107MOL    O7836330   4.239   0.347   6.077  0.3420  0.1641  0.0196
  107MOL    H7936331   4.353   0.549   6.012  0.2526  0.6995 -0.5823
  107MOL    H8036332   4.209   0.584   5.914  0.2982  1.4734 -0.6131
  107MOL    H8136333   4.339   0.298   5.919 -1.2107 -2.0752 -2.1561
  107MOL    H8236334   4.250   0.230   5.705  1.2015  2.2172  2.4034
  107MOL    H8336335   4.054   0.169   5.564  0.9144 -1.3244  1.3840
  107MOL    H8436336   3.817   0.208   5.655 -0.2192  0.3625  0.7690
  107MOL    H8536337   3.786   0.327   5.863  0.5193 -0.5272  0.1202
  107MOL    H8636338   3.981   0.409   5.996 -1.3734 -0.0263 -0.4925
  107MOL    C8736339   4.223   0.209   6.116 -0.3711  0.6221  0.3578
  107MOL    C8836340   4.288   0.172   6.247 -0.3428 -0.0790  0.0718
  107MOL    C8936341   4.248   0.255   6.372  0.2243 -0.2400  0.5775
  107MOL    C9036342   4.115   0.239   6.417 -0.3066 -0.4055 -0.8793
  107MOL    C9136343   4.078   0.311   6.530  0.2421 -0.0811 -0.2504
  107MOL    C9236344   4.162   0.409   6.595 -0.4197 -0.6123 -0.7500
  107MOL    C9336345   4.293   0.425   6.548 -0.1222  0.2019  0.7547
  107MOL    C9436346   4.331   0.348   6.433 -0.0595 -0.4946 -0.1355
  107MOL    O9536347   4.432   0.169   6.246  0.1976 -0.2214  0.2457
  107MOL    H9636348   4.254   0.136   6.041 -2.5582  0.3141 -0.2754
  107MOL    H9736349   4.115   0.199   6.120 -0.2985 -0.0298  0.6959
  107MOL    H9836350   4.263   0.071   6.279 -0.6316 -0.4181 -1.2267
  107MOL    H9936351   4.061   0.161   6.366 -0.5348 -0.6143 -0.3156
  107MOL   H10036352   3.981   0.286   6.571 -0.2702  0.9307 -0.8112
  107MOL   H10136353   4.140   0.475   6.677 -0.9309  2.4417 -3.2512
  107MOL   H10236354   4.359   0.500   6.589  1.1649 -1.2767  1.4299
  107MOL   H10336355   4.430   0.369   6.395  1.4638 -2.7755  2.3675
  107MOL   C10436356   4.499   0.088   6.154 -0.3155 -0.2979 -0.3802
  107MOL   C10536357   4.510   8.030   6.203 -0.1260 -0.4271 -0.8112
  107MOL   C10636358   4.575   8.009   6.343  0.7786  0.2632 -0.0297
  107MOL   C10736359   4.489   8.020   6.455  0.2836  0.1914  0.1768
  107MOL   C10836360   4.531   7.980   6.586  0.6402 -0.6522 -0.6281
  107MOL   C10936361   4.664   7.948   6.602 -0.4165 -0.1153  0.8962
  107MOL   C11036362   4.762   7.941   6.493 -0.0865  0.4499  0.0937
  107MOL   C11136363   4.711   7.967   6.362 -0.3884 -0.5666 -0.1714
  107MOL   O11236364   4.388   7.961   6.193 -0.2403  0.3813  0.1690
  107MOL   H11336365   4.451   0.102   6.057  0.6649  0.0129 -0.8376
  107MOL   H11436366   4.596   0.137   6.142 -0.9897  0.9988 -0.6851
  107MOL   H11536367   4.588   7.987   6.140 -1.2157 -1.7943 -1.2541
  107MOL   H11636368   4.384   8.046   6.443 -0.0653 -1.4975 -0.4313
  107MOL   H11736369   4.462   7.985   6.669  1.1159  0.9671 -0.2991
  107MOL   H11836370   4.692   7.921   6.703  1.2265 -1.7785  0.0168
  107MOL   H11936371   4.865   7.913   6.508 -0.0810  1.1234  1.3200
  107MOL   H12036372   4.768   7.945   6.273  0.6369 -1.8768  0.8051
  107MOL   C12136373   4.398   7.862   6.090 -0.0451 -0.2320 -0.0852
  107MOL   C12236374   4.490   7.736   6.113  0.4102 -0.4401 -0.0597
  107MOL   C12336375   4.434   7.618   6.042 -0.7969 -0.9327 -0.4433
  107MOL   C12436376   4.354   7.530   6.108  0.0420 -0.5931 -0.7488
  107MOL   C12536377   4.313   7.414   6.036 -0.3890 -0.0275  0.2381
  107MOL   C12636378   4.337   7.397   5.900  0.4029 -0.5569  0.0804
  107MOL   C12736379   4.417   7.494   5.835  0.0351  0.2717  0.8330
  107MOL   C12836380   4.462   7.604   5.908  0.4042 -0.2508 -0.1961
  107MOL   O12936381   4.620   7.763   6.067 -0.4011 -0.5457  0.1941
  107MOL   H13036382   4.406   7.914   5.995 -3.1846  1.0426  0.2723
  107MOL   H13136383   4.298   7.817   6.095 -0.7933  1.3151 -0.7741
  107MOL   H13236384   4.501   7.715   6.220  0.6573 -1.8002 -0.3405
  107MOL   H13336385   4.323   7.548   6.210  0.6471 -2.3065 -0.2438
  107MOL   H13436386   4.265   7.331   6.087  1.3954 -2.0263 -1.2409
  107MOL   H13536387   4.307   7.308   5.848 -1.4482 -0.1799  0.4605
  107MOL   H13636388   4.449   7.474   5.734  1.6202 -2.5120  1.8207
  107MOL   H13736389   4.527   7.674   5.857 -1.8941  0.8674 -1.7010
  107MOL   C13836390   4.717   7.661   6.104  0.4103 -0.1854  0.8407
  107MOL   C13936391   4.840   7.695   6.021  0.4252  0.7504 -0.0961
  107MOL   C14036392   4.810   7.699   5.870 -0.5402 -0.4902  0.6818
  107MOL   C14136393   4.779   7.821   5.812 -0.3659  0.6327 -0.1324
  107MOL   C14236394   4.731   7.806   5.681 -0.6985 -0.3909  0.2007
  107MOL   C14336395   4.733   7.687   5.607  0.1617  0.0525 -0.0805
  107MOL   C14436396   4.770   7.572   5.670 -0.1755 -0.4526 -0.0609
  107MOL   C14536397   4.811   7.574   5.800 -0.6591 -0.6122 -0.6804
  107MOL   O14636398   4.906   7.816   6.075  0.0937 -0.4961 -0.1633
  107MOL   H14736399   4.692   7.557   6.086  0.1781 -0.3259  1.9463
  107MOL   H14836400   4.749   7.677   6.207  0.8463  1.5797  0.4569
  107MOL   H14936401   4.917   7.621   6.043 -1.2429 -0.9848  0.0341
  107MOL   H15036402   4.779   7.911   5.870  0.9554  2.1592 -2.4251
  107MOL   H15136403   4.686   7.892   5.634 -2.2605 -1.5860 -0.5490
  107MOL   H15236404   4.696   7.687   5.505 -0.0275 -1.2150 -0.0196
  107MOL   H15336405   4.785   7.476   5.622 -0.8857 -0.1732 -0.8522
  107MOL   H15436406   4.841   7.482   5.848 -2.9804 -0.3388  1.4575
  107MOL   C15536407   5.040   7.834   6.039  0.4101 -0.5442 -0.7566
  107MOL   C15636408   5.104   7.964   6.099 -0.2956  0.4159  0.5204
  107MOL   C15736409   5.248   7.964   6.048 -0.4898 -0.8437 -0.1284
  107MOL   C15836410   5.356   7.895   6.120  0.0139 -0.2002 -0.0948
  107MOL   C15936411   5.489   7.911   6.073  0.4676  0.4065 -0.4717
  107MOL   C16036412   5.521   7.980   5.956 -0.6101  0.1360  0.4617
  107MOL   C16136413   5.413   8.037   5.886 -0.0548 -0.2080  0.2787
  107MOL   C16236414   5.281   8.036   5.932 -0.4049  0.0559  0.2434
  107MOL   O16336415   5.022   8.074   6.041  0.0232  0.5939  0.5795
  107MOL   H16436416   5.059   7.834   5.932  1.5394  0.4397 -0.5724
  107MOL   H16536417   5.107   7.755   6.072  2.9461  2.1518  0.8518
  107MOL   H16636418   5.117   7.958   6.207  2.1815  3.3277  0.4472
  107MOL   H16736419   5.328   7.838   6.207 -1.3140  0.5584 -0.0052
  107MOL   H16836420   5.571   7.865   6.126  0.4302  3.4774  2.3976
  107MOL   H16936421   5.621   7.989   5.917 -0.9297 -1.0482 -0.6936
  107MOL   H17036422   5.436   0.013   5.796 -4.1661 -0.8350 -1.2474
  107MOL   H17136423   5.212   0.017   5.877 -0.0332 -0.1538 -0.4604
  107MOL   C17236424   5.046   0.123   6.099 -0.1477  1.0274  0.0036
  107MOL   C17336425   5.007   0.238   5.998  0.0664  0.1631  0.5707
  107MOL   C17436426   4.876   0.222   5.923 -1.2796  0.4310 -0.2838
  107MOL   C17536427   4.770   0.308   5.955 -0.0763 -0.7604  0.0078
  107MOL   C17636428   4.649   0.299   5.887 -0.0501 -0.4966 -0.3888
  107MOL   C17736429   4.634   0.193   5.789 -0.3361 -0.6272  0.1646
  107MOL   C17836430   4.742   0.113   5.756  0.2414  0.5511 -0.0948
  107MOL   C17936431   4.865   0.120   5.825 -0.3256  0.2803 -0.2610
  107MOL   O18036432   5.118   0.268   5.919 -0.7447  0.2431  0.2513
  107MOL   H18136433   4.984   0.122   6.188 -0.3261 -0.6682 -0.1054
  107MOL   H18236434   5.146   0.135   6.139  0.5256  0.8269 -1.5888
  107MOL   H18336435   5.004   0.325   6.062 -0.4617  1.2554 -0.9116
  107MOL   H18436436   4.781   0.383   6.032  1.1189  0.9681 -1.8026
  107MOL   H18536437   4.574   0.374   5.906  1.9253  1.7867 -1.3338
  107MOL   H18636438   4.540   0.190   5.736  0.8270 -1.2257 -1.9046
  107MOL   H18736439   4.732   0.039   5.678 -1.2458 -1.6638  2.1192
  107MOL   H18836440   4.942   0.048   5.805  2.0811  2.3863  1.1034
  107MOL   C18936441   5.108   0.397   5.850  0.5164 -0.5989 -0.5418
  107MOL   C19036442   5.231   0.414   5.751  0.0244  0.2716 -0.2324
  107MOL   C19136443   5.252   0.555   5.697  0.3631 -0.8332  0.1222
  107MOL   C19236444   5.329   0.649   5.769  0.0584  0.7079  0.7351
  107MOL   C19336445   5.335   0.785   5.721 -0.2947 -0.0887 -0.0714
  107MOL   C19436446   5.285   0.816   5.595  0.4304  0.5255 -0.6742
  107MOL   C19536447   5.209   0.724   5.523 -0.0081  0.0844 -0.0648
  107MOL   C19636448   5.196   0.592   5.572  0.3433  0.1183  0.0143
  107MOL   O19736449   5.199   0.327   5.645 -0.2084  0.2715 -0.1390
  107MOL   H19836450   5.011   0.420   5.805  0.1155  2.0728  1.5046
  107MOL   H19936451   5.123   0.472   5.929  0.5550 -1.0172 -0.1485
  107MOL   H20036452   5.323   0.399   5.807 -0.0919  1.9139  0.4314
  107MOL   H20136453   5.368   0.622   5.865 -0.3768  1.2038  1.0559
  107MOL   H20236454   5.375   0.859   5.788 -0.4697 -0.2296  0.1872
  107MOL   H20336455   5.294   0.920   5.567  0.5295  0.2824 -1.5543
  107MOL   H20436456   5.151   0.751   5.435 -0.5189  2.3048  0.9254
  107MOL   H20536457   5.136   0.524   5.513 -0.4686 -0.2454  1.2248
  107MOL   C20636458   5.301   0.224   5.630 -0.2742 -0.0152 -0.5341
  107MOL   C20736459   5.296   0.124   5.510  0.1177  0.0375 -0.3782
  107MOL   C20836460   5.271   0.195   5.381 -0.1176  0.8488  0.6432
  107MOL   C20936461   5.171   0.152   5.283 -0.3059 -0.5847  0.1520
  107MOL   C21036462   5.158   0.215   5.156  0.7769  0.8511  0.3271
  107MOL   C21136463   5.243   0.323   5.134  0.2705 -0.5738  0.2381
  107MOL   C21236464   5.335   0.378   5.232  1.0980  0.6606  0.1071
  107MOL   C21336465   5.351   0.301   5.348  0.2815 -0.3178  0.1767
  107MOL   O21436466   5.196   0.023   5.532 -0.5270 -0.1419  0.0895
  107MOL   H21536467   5.394   0.280   5.623 -1.0302  1.0076 -2.6973
  107MOL   H21636468   5.321   0.180   5.728  1.2301  1.6869 -0.0450
  107MOL   H21736469   5.396   0.081   5.502  0.5277  0.6313  1.1764
  107MOL   H21836470   5.105   0.072   5.311  0.9711 -2.1158 -1.0946
  107MOL   H21936471   5.087   0.183   5.081  0.4118  4.5150 -0.9929
  107MOL   H22036472   5.223   0.381   5.045 -1.8717 -0.4783  0.7540
  107MOL   H22136473   5.388   0.470   5.208  2.7182 -0.0409  0.9035
  107MOL   H22236474   5.418   0.343   5.422  0.3151 -0.3792  0.1809
  107MOL   C22336475   5.240   7.970   5.517 -0.0333  0.7702  0.9114
  107MOL   C22436476   5.131   7.858   5.538  1.1106 -0.1010  0.0441
  107MOL   C22536477   5.025   7.862   5.434  0.3045 -0.0071 -0.1938
  107MOL   C22636478   4.919   7.957   5.444  0.2286  0.6637 -0.8902
  107MOL   C22736479   4.820   7.953   5.338 -0.4450  0.1006  0.5839
  107MOL   C22836480   4.836   7.869   5.227  0.1541  0.2570  0.2585
  107MOL   C22936481   4.928   7.763   5.232 -1.0043 -0.3066 -0.7336
  107MOL   C23036482   5.025   7.760   5.333 -0.8127  0.9154  0.3037
  107MOL   O23136483   5.199   7.738   5.560  0.2684 -0.0499  0.0506
  107MOL   H23236484   5.282   7.951   5.418 -2.1303 -2.6029  0.5683
  107MOL   H23336485   5.316   7.959   5.594 -0.4945 -1.0728  1.1324
  107MOL   H23436486   5.081   7.902   5.625 -0.1333  0.1772 -0.8024
  107MOL   H23536487   4.909   8.039   5.514 -0.4154  0.2133 -0.4499
  107MOL   H23636488   4.757   8.040   5.327 -1.9366 -1.1569 -1.1217
  107MOL   H23736489   4.771   7.870   5.141 -0.5575  0.3014  0.7962
  107MOL   H23836490   4.928   7.696   5.148 -1.6468 -1.6019  0.2870
  107MOL   H23936491   5.098   7.680   5.332 -0.4660  1.2311  0.4142
  107MOL   C24036492   5.113   7.632   5.623  0.3234 -0.1756  0.2508
  107MOL   C24136493   5.153   7.488   5.579  0.2362  0.1041 -0.1553
  107MOL   C24236494   5.102   7.380   5.675 -0.1837  0.4263  0.2679
  107MOL   C24336495   5.161   7.367   5.806  0.1174  0.4020 -0.5050
  107MOL   C24436496   5.114   7.268   5.891  0.5018  0.2672  0.3522
  107MOL   C24536497   5.001   7.192   5.856  1.0874 -0.2482 -0.0098
  107MOL   C24636498   4.941   7.198   5.728  0.4859  0.1363  0.3370
  107MOL   C24736499   5.000   7.288   5.635  0.5871  0.0538  0.4994
  107MOL   O24836500   5.102   7.466   5.449  0.2386  0.3568  0.0409
  107MOL   H24936501   5.121   7.633   5.731  0.8305 -2.8387  0.2640
  107MOL   H25036502   5.009   7.655   5.600 -0.1741 -2.2019  0.4016
  107MOL   H25136503   5.261   7.479   5.571  0.0074 -0.0725 -3.6960
  107MOL   H25236504   5.251   7.422   5.830  0.7895 -1.8628  2.4169
  107MOL   H25336505   5.153   7.260   5.991 -0.8016  0.2040  0.8679
  107MOL   H25436506   4.960   7.128   5.932 -1.9927  1.5505 -0.0643
  107MOL   H25536507   4.868   7.124   5.699  1.2232 -0.2790 -0.5152
  107MOL   H25636508   4.966   7.310   5.535 -1.1869  1.6956  1.4102
  107MOL   C25736509   5.196   7.390   5.380  0.1579 -0.3351 -0.0184
  107MOL   C25836510   5.119   7.343   5.253 -0.1965  0.4781 -0.1041
  107MOL   C25936511   4.995   7.255   5.280  0.4944 -0.7893 -0.1052
  107MOL   C26036512   4.870   7.306   5.235  0.3044 -0.2989 -0.2188
  107MOL   C26136513   4.754   7.237   5.270  0.8935 -0.0780  0.4139
  107MOL   C26236514   4.757   7.118   5.348 -0.0462  0.2823 -0.0586
  107MOL   C26336515   4.883   7.062   5.387  0.1736  0.0899 -0.0865
  107MOL   C26436516   5.003   7.132   5.349 -0.3694  0.3450 -0.3841
  107MOL   O26536517   5.217   7.272   5.181 -0.2379  0.6488 -0.2804
  107MOL   H26636518   5.243   7.307   5.433 -0.3251 -0.2082  0.6156
  107MOL   H26736519   5.281   7.445   5.339 -0.2571  1.4530  1.4682
  107MOL   H26836520   5.092   7.436   5.202 -1.0380  0.9166  1.1229
  107MOL   H26936521   4.865   7.402   5.186 -0.1400 -0.3272 -0.2288
  107MOL   H27036522   4.667   7.275   5.219  1.0757 -0.1368  0.0604
  107MOL   H27136523   4.668   7.062   5.376 -1.3074  1.9812 -0.5864
  107MOL   H27236524   4.889   6.963   5.430 -1.0972  1.3943  3.1798
  107MOL   H27336525   5.098   7.091   5.382  0.2927  1.5850 -0.7350
  107MOL   C27436526   5.174   7.250   5.051  0.4680  0.3387 -0.2233
  107MOL   C27536527   5.291   7.187   4.966  0.4593 -0.3056 -0.2723
  107MOL   C27636528   5.355   7.069   5.036  0.1319 -0.5337 -0.1010
  107MOL   C27736529   5.314   6.937   4.999 -0.1912  0.3363  0.5293
  107MOL   C27836530   5.375   6.826   5.071  0.7152  0.4724  0.1408
  107MOL   C27936531   5.466   6.848   5.177 -0.1802 -0.2946 -0.1831
  107MOL   C28036532   5.488   6.982   5.221  0.1197  0.1097  0.3170
  107MOL   C28136533   5.448   7.088   5.139 -0.1816 -0.2388 -0.1893
  107MOL   O28236534   5.388   7.288   4.929  0.2734 -0.2120  0.1750
  107MOL   H28336535   5.090   7.181   5.057  0.8285  0.0855  2.3350
  107MOL   H28436536   5.143   7.348   5.016 -0.0090  0.1287 -0.3944
  107MOL   H28536537   5.243   7.157   4.873  1.0774 -0.4726 -0.5372
  107MOL   H28636538   5.238   6.914   4.925  1.5833 -1.2111 -0.8847
  107MOL   H28736539   5.353   6.721   5.054 -1.0101  0.9897 -1.0120
  107MOL   H28836540   5.509   6.769   5.237  2.2484  0.2243 -1.1838
  107MOL   H28936541   5.542   6.995   5.314  1.7493 -0.6565 -0.4933
  107MOL   H29036542   5.464   7.188   5.176  1.7829 -0.3736 -0.6213
  107MOL   C29136543   5.483   7.246   4.831 -0.3157 -0.2340 -0.0972
  107MOL   C29236544   5.590   7.350   4.800  0.7395 -0.1121 -0.3732
  107MOL   C29336545   5.620   7.438   4.923 -0.7843 -0.6087 -0.5712
  107MOL   C29436546   5.593   7.578   4.927 -0.0888  0.4909 -0.6971
  107MOL   C29536547   5.600   7.652   5.044  0.1984  1.0978  0.4153
  107MOL   C29636548   5.662   7.593   5.159 -0.1586  0.7253  0.2320
  107MOL   C29736549   5.702   7.455   5.153  0.0117 -0.4704 -0.6296
  107MOL   C29836550   5.671   7.384   5.034 -0.1887 -0.4822 -0.1529
  107MOL   O29936551   5.705   7.271   4.761  0.2077 -0.3629 -0.6987
  107MOL   H30036552   5.427   7.229   4.739  1.2506  2.1996 -1.5648
  107MOL   H30136553   5.519   7.149   4.866 -1.1923 -0.1053  1.1806
  107MOL   H30236554   5.548   7.414   4.722 -0.4275  0.7229  0.9293
  107MOL   H30336555   5.538   7.612   4.841 -2.9338 -0.0181  0.8393
  107MOL   H30436556   5.564   7.754   5.046  1.1073  1.4518 -0.5071
  107MOL   H30536557   5.659   7.646   5.253  2.5402  0.3141  0.5876
  107MOL   H30636558   5.734   7.404   5.243 -0.3787 -1.9660 -1.3252
  107MOL   H30736559   5.709   7.283   5.034  3.0382  0.6835 -0.1486
  107MOL   C30836560   5.800   7.335   4.680 -0.4767 -0.2842 -0.1261
  107MOL   C30936561   5.869   7.216   4.604  0.1661  0.0120 -0.2603
  107MOL   C31036562   5.947   7.259   4.485 -0.0296  0.3380  0.8027
  107MOL   C31136563   6.070   7.333   4.500 -0.1227  0.3927  0.4329
  107MOL   C31236564   6.142   7.367   4.386 -0.0549  0.6890 -0.4239
  107MOL   C31336565   6.113   7.309   4.264  0.3034  0.6064  0.5007
  107MOL   C31436566   5.998   7.232   4.248 -0.1251  0.2334 -0.5200
  107MOL   C31536567   5.915   7.212   4.358 -0.2645 -0.2381  0.1706
  107MOL   O31636568   5.959   7.147   4.694  0.1324 -0.4318 -0.4336
  107MOL   H31736569   5.870   7.399   4.733 -0.7007 -0.6485  0.6107
  107MOL   H31836570   5.752   7.408   4.614 -0.0586 -0.8890 -1.1037
  107MOL   H31936571   5.783   7.158   4.571 -0.7979  0.0433  2.1620
  107MOL   H32036572   6.096   7.360   4.601 -1.3750  0.1546  0.8376
  107MOL   H32136573   6.233   7.424   4.393  1.5485 -1.9086  0.4475
  107MOL   H32236574   6.176   7.319   4.177  0.5609  1.1454  0.7478
  107MOL   H32336575   5.986   7.176   4.157 -0.8860  0.5674 -0.6321
  107MOL   H32436576   5.833   7.145   4.337  1.1162 -2.2508  1.1284
  107MOL   C32536577   5.995   7.019   4.644  0.0728 -0.0914 -0.4857
  107MOL   C32636578   6.073   6.931   4.749 -0.7953  1.5263  0.1787
  107MOL   C32736579   5.991   6.911   4.885  0.4095  0.0868  1.5813
  107MOL   C32836580   5.910   6.798   4.906  0.5234 -0.3920  0.0180
  107MOL   C32936581   5.838   6.788   5.029 -0.2401 -0.1367  0.6449
  107MOL   C33036582   5.827   6.896   5.120  0.4316  0.2701  0.5658
  107MOL   C33136583   5.901   7.015   5.090  0.1860  0.1490  0.1884
  107MOL   C33236584   5.988   7.017   4.975  1.0281 -0.1279 -0.0098
  107MOL   O33336585   6.102   6.806   4.697  0.5676 -0.9228 -0.0262
  107MOL   H33436586   6.052   7.028   4.551  0.9466  2.1544  0.2288
  107MOL   H33536587   5.906   6.960   4.621 -0.4782 -0.8909  3.4953
  107MOL   H33636588   6.172   6.972   4.768  0.3498 -0.0746 -2.0965
  107MOL   H33736589   5.906   6.718   4.833 -1.0549 -0.6211  0.3270
  107MOL   H33836590   5.786   6.698   5.059  1.0590 -1.3844 -0.7466
  107MOL   H33936591   5.757   6.899   5.202  0.5690  0.9538  0.6573
  107MOL   H34036592   5.887   7.102   5.152 -2.2017  0.2467 -0.4455
  107MOL   H34136593   6.045   7.104   4.948  1.1145 -0.8823 -2.3488
  107MOL   H34236594   6.170   6.815   4.631 -1.0954  1.9958 -1.4511
  108MOL     C136595   4.684   6.971   2.161  0.5539 -0.1406 -0.5552
  108MOL     C236596   4.534   6.944   2.152 -0.1795  0.2417  0.3067
  108MOL     C336597   4.492   6.940   2.007  0.2291  0.2329  0.9791
  108MOL     C436598   4.508   6.822   1.937 -0.1833  1.0592 -0.3053
  108MOL     C536599   4.463   6.808   1.806 -0.0239 -0.3099  0.1821
  108MOL     C636600   4.403   6.923   1.741 -0.3261  0.1868 -0.5306
  108MOL     C736601   4.388   7.048   1.812  0.0591 -0.1481  0.1661
  108MOL     C836602   4.435   7.055   1.940  0.4452  0.6363  0.3776
  108MOL     O936603   4.441   7.034   2.218  0.0928 -0.0018 -0.2882
  108MOL    H1036604   4.739   6.879   2.140 -0.5124 -0.8784 -0.1409
  108MOL    H1136605   4.729   7.049   2.099  0.9191  0.0815 -0.0161
  108MOL    H1236606   4.515   6.842   2.185  1.1800 -0.1754 -0.1098
  108MOL    H1336607   4.554   6.737   1.985 -0.5304  1.5363  0.8903
  108MOL    H1436608   4.475   6.717   1.749 -0.5272  0.3597 -1.0318
  108MOL    H1536609   4.359   6.912   1.643  0.1641 -0.6136 -0.6654
  108MOL    H1636610   4.332   7.123   1.758 -0.9240 -1.6214 -0.9225
  108MOL    H1736611   4.411   7.138   2.004 -1.1581 -0.6878  1.5534
  108MOL    H1836612   4.714   6.996   2.263  0.6490 -0.0437 -0.6064
  108MOL    C1936613   4.454   7.049   2.357 -0.3833  0.0321  0.0303
  108MOL    C2036614   4.492   6.934   2.448 -0.6861  0.1187 -0.6699
  108MOL    C2136615   4.445   6.957   2.597 -0.6405 -0.3871  0.5715
  108MOL    C2236616   4.337   6.889   2.655  0.0312  0.4843 -0.0125
  108MOL    C2336617   4.307   6.912   2.784 -0.1766  0.8567 -0.4084
  108MOL    C2436618   4.379   7.003   2.862  0.5997 -0.2016  0.3238
  108MOL    C2536619   4.478   7.081   2.804 -0.2456 -1.1157  0.4002
  108MOL    C2636620   4.518   7.056   2.673  0.3511  0.2411 -0.1528
  108MOL    O2736621   4.632   6.929   2.443  0.5650  0.0507 -0.0800
  108MOL    H2836622   4.508   7.140   2.383 -0.0097 -0.1379 -0.1494
  108MOL    H2936623   4.347   7.059   2.373 -0.3170 -1.1165  1.3189
  108MOL    H3036624   4.446   6.847   2.401  0.9463 -0.5034 -1.1433
  108MOL    H3136625   4.279   6.817   2.599 -0.7000  0.9347  0.1651
  108MOL    H3236626   4.229   6.859   2.835 -0.6700  1.2570 -0.7408
  108MOL    H3336627   4.348   7.019   2.964 -0.3293 -0.5013  0.0932
  108MOL    H3436628   4.532   7.155   2.861 -2.2975 -0.6008  1.7369
  108MOL    H3536629   4.593   7.119   2.627 -1.2677  1.3522 -1.3103
  108MOL    C3636630   4.688   6.811   2.499  0.4435 -0.4975 -0.1808
  108MOL    C3736631   4.840   6.813   2.526  0.3859  0.0874  0.1385
  108MOL    C3836632   4.920   6.814   2.397 -0.4382 -0.2615  0.8227
  108MOL    C3936633   5.003   6.925   2.366 -0.0753  0.6668 -0.3902
  108MOL    C4036634   5.085   6.921   2.252 -0.4579  0.0539 -0.0987
  108MOL    C4136635   5.087   6.811   2.171  0.2135  0.4912 -0.3013
  108MOL    C4236636   4.997   6.705   2.190  0.0845 -0.0438 -0.0597
  108MOL    C4336637   4.908   6.707   2.304  0.7816 -0.5101  0.1003
  108MOL    O4436638   4.880   6.703   2.614 -0.3192  0.4076 -0.0069
  108MOL    H4536639   4.649   6.793   2.599  3.0159 -1.5298  0.6769
  108MOL    H4636640   4.665   6.730   2.430  1.0175 -0.3370 -0.5731
  108MOL    H4736641   4.855   6.903   2.587  0.3398  0.7309 -0.7931
  108MOL    H4836642   5.007   6.996   2.447  1.1981  0.1843 -0.0157
  108MOL    H4936643   5.149   7.006   2.234  0.0357 -0.3981 -0.4981
  108MOL    H5036644   5.154   6.821   2.086  0.6793 -1.0005 -0.1251
  108MOL    H5136645   4.985   6.624   2.120  0.4742 -0.2229  0.0780
  108MOL    H5236646   4.849   6.619   2.327 -1.3878  0.3403 -2.0199
  108MOL    C5336647   4.869   6.727   2.754 -1.3309  0.3473  0.2404
  108MOL    C5436648   4.937   6.605   2.816  0.3965 -0.3780  0.4177
  108MOL    C5536649   4.932   6.608   2.968  0.2275 -0.1807  1.2189
  108MOL    C5636650   4.808   6.616   3.034 -0.0609  0.9023  0.1948
  108MOL    C5736651   4.804   6.607   3.176 -0.4038  0.6481 -1.4370
  108MOL    C5836652   4.927   6.600   3.248  0.2045 -0.5700  0.1088
  108MOL    C5936653   5.047   6.591   3.180  0.6556 -0.1514 -0.4277
  108MOL    C6036654   5.049   6.602   3.036 -0.5508 -0.1154  0.0072
  108MOL    O6136655   4.879   6.478   2.778  0.0952  0.7403  0.6940
  108MOL    H6236656   4.935   6.809   2.782  1.6504 -1.8443  0.0097
  108MOL    H6336657   4.767   6.741   2.789 -0.6160  2.2843  1.6589
  108MOL    H6436658   5.043   6.611   2.790  0.2848 -0.2924 -0.0326
  108MOL    H6536659   4.717   6.613   2.977 -0.3475  1.7492  0.6060
  108MOL    H6636660   4.712   6.606   3.232 -0.3373 -1.0645 -1.3416
  108MOL    H6736661   4.912   6.593   3.354 -0.2501  1.0716  0.1569
  108MOL    H6836662   5.143   6.604   3.228  1.0297  0.3850 -1.2937
  108MOL    H6936663   5.146   6.599   2.988 -0.1103  2.7097  0.6006
  108MOL    C7036664   4.964   6.401   2.698  0.4140 -0.6989  0.4590
  108MOL    C7136665   4.890   6.275   2.666  0.5084  0.2076 -0.3440
  108MOL    C7236666   4.976   6.149   2.680 -0.3706 -0.0659 -0.6156
  108MOL    C7336667   4.946   6.060   2.787  0.4942  0.5482 -0.1770
  108MOL    C7436668   5.004   5.933   2.784 -0.2734 -0.1830  0.3061
  108MOL    C7536669   5.097   5.905   2.686 -0.1288  0.3155 -0.2578
  108MOL    C7636670   5.141   5.995   2.588  0.4182  0.0086  0.3545
  108MOL    C7736671   5.084   6.124   2.589 -0.1976 -1.0989 -0.0935
  108MOL    O7836672   4.830   6.284   2.539 -0.1844  0.0321 -0.6221
  108MOL    H7936673   4.980   6.460   2.608  0.0373  0.3110  1.0504
  108MOL    H8036674   5.062   6.385   2.744  1.5169  2.9407 -0.4544
  108MOL    H8136675   4.806   6.265   2.735  0.5219  1.6033 -0.1102
  108MOL    H8236676   4.869   6.085   2.858 -2.1037  0.8830 -3.0354
  108MOL    H8336677   4.981   5.851   2.850  2.3337 -1.8888 -0.7694
  108MOL    H8436678   5.149   5.811   2.684 -2.6142 -1.0789 -1.5316
  108MOL    H8536679   5.213   5.963   2.513  1.0811 -0.3723  1.1464
  108MOL    H8636680   5.099   6.195   2.509  0.7937  0.3711  1.3771
  108MOL    C8736681   4.744   6.385   2.501 -0.8814  0.2952 -0.2062
  108MOL    C8836682   4.650   6.337   2.395 -0.3548  0.3916 -0.0717
  108MOL    C8936683   4.720   6.360   2.263  0.3086 -0.8226 -0.8180
  108MOL    C9036684   4.832   6.291   2.221  0.1919 -0.0706  0.1451
  108MOL    C9136685   4.881   6.302   2.087  0.0032 -0.8045  0.0972
  108MOL    C9236686   4.820   6.394   2.005 -0.3243 -0.3026 -0.0967
  108MOL    C9336687   4.709   6.467   2.047 -0.3368 -0.1198  0.1294
  108MOL    C9436688   4.660   6.452   2.177 -0.2550 -0.5348 -0.6442
  108MOL    O9536689   4.518   6.386   2.402 -0.4758 -0.1234  0.4585
  108MOL    H9636690   4.781   6.487   2.489  1.5837 -0.6735 -1.0792
  108MOL    H9736691   4.693   6.401   2.597 -0.3348 -1.3241  0.3756
  108MOL    H9836692   4.626   6.231   2.406 -0.9680  0.4549 -0.7919
  108MOL    H9936693   4.867   6.219   2.294 -1.1344  1.0661  1.9592
  108MOL   H10036694   4.961   6.243   2.044  1.2311  1.2984 -0.5653
  108MOL   H10136695   4.858   6.400   1.904 -1.5007 -0.1776 -0.5384
  108MOL   H10236696   4.666   6.535   1.975  2.0618  0.7361 -0.5685
  108MOL   H10336697   4.578   6.519   2.200 -0.0837 -0.9678  1.2701
  108MOL   C10436698   4.421   6.294   2.354 -0.1254  0.1112  0.0554
  108MOL   C10536699   4.283   6.356   2.355 -0.6453 -0.0668 -0.2924
  108MOL   C10636700   4.284   6.484   2.266  0.4818  0.2210 -0.2313
  108MOL   C10736701   4.274   6.474   2.128  0.5174 -0.3580  1.1231
  108MOL   C10836702   4.262   6.590   2.050 -0.0988 -0.1160  0.0385
  108MOL   C10936703   4.257   6.719   2.099  0.3428  0.9757 -0.3571
  108MOL   C11036704   4.270   6.729   2.240  0.5321 -0.2146  0.2083
  108MOL   C11136705   4.283   6.613   2.323  0.6386  0.3214  0.0839
  108MOL   O11236706   4.192   6.257   2.308 -0.3708  0.0965  0.2267
  108MOL   H11336707   4.454   6.270   2.252  0.6246  2.1272 -0.1795
  108MOL   H11436708   4.414   6.200   2.410  0.7303 -0.0485 -0.1101
  108MOL   H11536709   4.271   6.363   2.463 -0.9722 -1.6356 -0.2104
  108MOL   H11636710   4.263   6.374   2.089 -3.8312  0.1841  0.7143
  108MOL   H11736711   4.242   6.572   1.946 -0.3352 -2.6775  0.4765
  108MOL   H11836712   4.234   6.804   2.036  0.4237  0.7838 -0.6426
  108MOL   H11936713   4.252   6.826   2.284 -3.1418 -1.2448  1.2122
  108MOL   H12036714   4.290   6.622   2.430 -1.1355  0.5155  0.1917
  108MOL   C12136715   4.058   6.295   2.337  0.2912  0.0705 -1.0030
  108MOL   C12236716   3.951   6.194   2.289 -0.1662 -0.5428 -0.4638
  108MOL   C12336717   3.822   6.222   2.364  0.4503 -0.9928 -0.0702
  108MOL   C12436718   3.739   6.336   2.339  0.3412 -0.3887 -0.0428
  108MOL   C12536719   3.627   6.368   2.420 -0.0598  0.2408  0.3566
  108MOL   C12636720   3.592   6.295   2.533 -0.1882  0.5219  0.1669
  108MOL   C12736721   3.673   6.179   2.556  0.5714 -0.1205  0.6204
  108MOL   C12836722   3.782   6.142   2.476 -0.7487  0.0892  0.3882
  108MOL   O12936723   3.941   6.199   2.149 -0.4299 -0.0224 -0.1643
  108MOL   H13036724   4.036   6.397   2.305 -2.4503 -0.3172 -0.5288
  108MOL   H13136725   4.042   6.293   2.445 -1.8220  0.6780 -1.2759
  108MOL   H13236726   3.962   6.089   2.314  1.0864 -0.7300 -1.7014
  108MOL   H13336727   3.771   6.400   2.257 -0.1130 -0.7565 -0.5085
  108MOL   H13436728   3.568   6.451   2.385  0.0621  0.9302  1.7459
  108MOL   H13536729   3.508   6.312   2.598 -0.4304  0.6314 -0.1763
  108MOL   H13636730   3.642   6.119   2.640 -1.5928  0.1289  0.0212
  108MOL   H13736731   3.844   6.061   2.512 -1.9396 -1.4760 -1.0111
  108MOL   C13836732   3.837   6.111   2.097 -0.0563  0.1702 -0.6249
  108MOL   C13936733   3.876   6.080   1.947  0.2166 -0.6785  0.3530
  108MOL   C14036734   3.776   5.978   1.880 -0.0066 -0.4062 -0.1738
  108MOL   C14136735   3.706   6.016   1.766  0.4384  0.2033  0.1022
  108MOL   C14236736   3.611   5.933   1.706  0.0495 -0.3523 -0.0544
  108MOL   C14336737   3.598   5.798   1.756 -0.0501 -0.2061 -0.5778
  108MOL   C14436738   3.674   5.755   1.870  0.1507  0.8189 -0.0844
  108MOL   C14536739   3.753   5.852   1.934 -0.0743 -0.6162  0.1631
  108MOL   O14636740   3.883   6.199   1.868  0.6479  0.2515  0.1404
  108MOL   H14736741   3.742   6.165   2.105 -0.3380 -0.2660 -0.9785
  108MOL   H14836742   3.834   6.014   2.147 -1.7129  0.0904 -0.8516
  108MOL   H14936743   3.972   6.028   1.946 -0.0048 -1.0988 -1.7661
  108MOL   H15036744   3.714   6.115   1.724 -1.7753  1.1113  1.6643
  108MOL   H15136745   3.557   5.969   1.620  0.0331  1.0871  0.5282
  108MOL   H15236746   3.530   5.727   1.711  0.1164  1.3229 -3.3499
  108MOL   H15336747   3.674   5.655   1.910  1.8433  1.4176  1.4934
  108MOL   H15436748   3.813   5.817   2.017  0.1537 -0.2726  0.1416
  108MOL   C15536749   4.019   6.233   1.819 -0.2919  0.8044 -1.2499
  108MOL   C15636750   4.006   6.300   1.684  0.1109 -0.4431 -0.0175
  108MOL   C15736751   4.137   6.336   1.623  0.1019  0.1656  0.6867
  108MOL   C15836752   4.230   6.234   1.598  0.1317 -0.2374  0.3823
  108MOL   C15936753   4.353   6.260   1.539 -0.1965  0.3275  0.1409
  108MOL   C16036754   4.396   6.395   1.523  0.2883  0.0411  0.3943
  108MOL   C16136755   4.306   6.497   1.553 -0.5522 -0.2840  0.1131
  108MOL   C16236756   4.174   6.469   1.602  0.3621 -1.0650 -0.0021
  108MOL   O16336757   3.919   6.227   1.598 -0.5922 -0.3952  0.0253
  108MOL   H16436758   4.089   6.150   1.825 -1.9789 -0.6081 -0.6821
  108MOL   H16536759   4.054   6.304   1.895 -2.9053 -1.0678  1.8622
  108MOL   H16636760   3.954   6.391   1.713  2.0341  1.2742 -1.7796
  108MOL   H16736761   4.181   6.138   1.606 -0.2128 -0.2818 -1.8868
  108MOL   H16836762   4.415   6.177   1.509  2.0495  1.0852  2.4957
  108MOL   H16936763   4.497   6.417   1.493  0.5919 -1.8298  0.0134
  108MOL   H17036764   4.348   6.596   1.543  0.3165 -0.7973 -1.3707
  108MOL   H17136765   4.115   6.552   1.641  0.7913  0.9629 -3.4272
  108MOL   C17236766   3.856   6.303   1.492  0.1081 -1.2404 -0.1694
  108MOL   C17336767   3.755   6.218   1.407  0.2568  0.3239 -0.1347
  108MOL   C17436768   3.829   6.114   1.328 -0.9901  0.1544  0.7177
  108MOL   C17536769   3.849   5.978   1.371  0.2298  0.1742  0.3673
  108MOL   C17636770   3.920   5.880   1.297  0.2123 -0.0807  0.1330
  108MOL   C17736771   3.981   5.914   1.175  0.9131  0.0213  0.2719
  108MOL   C17836772   3.974   6.049   1.138 -0.2679  0.1917  0.1901
  108MOL   C17936773   3.896   6.142   1.207 -0.2215 -0.6083 -0.6215
  108MOL   O18036774   3.677   6.302   1.325  0.3608 -0.2587  0.3463
  108MOL   H18136775   3.788   6.376   1.536  1.1315 -1.5398  1.9812
  108MOL   H18236776   3.925   6.338   1.416 -0.6872 -1.6747 -1.1073
  108MOL   H18336777   3.677   6.164   1.461 -0.0514 -0.4550 -1.3430
  108MOL   H18436778   3.817   5.949   1.471 -0.2579 -0.6589 -0.0289
  108MOL   H18536779   3.916   5.782   1.344  0.1724  0.3678  1.0890
  108MOL   H18636780   4.033   5.837   1.120 -0.1960  0.1683 -1.0103
  108MOL   H18736781   4.008   6.070   1.038 -0.6566  2.4417  0.4915
  108MOL   H18836782   3.890   6.238   1.158 -1.6560 -0.8111 -0.8671
  108MOL   C18936783   3.571   6.251   1.234  0.0512  0.1659  0.3183
  108MOL   C19036784   3.513   6.378   1.160  0.2329  1.0538  0.4210
  108MOL   C19136785   3.386   6.354   1.083  0.3269  0.5516  0.1778
  108MOL   C19236786   3.338   6.224   1.050  0.3241 -0.2803 -0.3294
  108MOL   C19336787   3.222   6.214   0.976  0.1576 -0.4195  0.0442
  108MOL   C19436788   3.149   6.331   0.937 -0.3001 -0.5001 -0.3543
  108MOL   C19536789   3.193   6.461   0.972  0.3174  0.0944  0.6183
  108MOL   C19636790   3.312   6.470   1.043  0.5272  0.5347 -0.4782
  108MOL   O19736791   3.608   6.429   1.071 -0.2531  0.8319  1.1084
  108MOL   H19836792   3.606   6.174   1.165  0.7103 -0.6157  1.4855
  108MOL   H19936793   3.490   6.204   1.290  0.8836  0.3280  1.7020
  108MOL   H20036794   3.491   6.449   1.240 -3.2322 -0.7328  1.1714
  108MOL   H20136795   3.390   6.134   1.080 -0.1007 -0.0383  1.1793
  108MOL   H20236796   3.191   6.118   0.937 -1.5292 -1.4815  3.8137
  108MOL   H20336797   3.055   6.324   0.884 -0.8541 -2.2109  0.8184
  108MOL   H20436798   3.142   6.550   0.938 -1.7581 -1.7038 -1.0274
  108MOL   H20536799   3.360   6.565   1.061  1.4828 -0.3076  1.6445
  108MOL   C20636800   3.703   6.523   1.124 -0.4112  0.3753 -0.9111
  108MOL   C20736801   3.818   6.540   1.021  0.1442  0.7403 -0.3417
  108MOL   C20836802   3.921   6.635   1.072 -0.1447 -0.4909 -0.3236
  108MOL   C20936803   3.904   6.778   1.065  0.3592  0.9500  0.8703
  108MOL   C21036804   4.007   6.868   1.114  0.3628  0.0428 -0.1573
  108MOL   C21136805   4.123   6.812   1.172 -0.7287  0.1856  0.3403
  108MOL   C21236806   4.139   6.671   1.179  0.3848  0.4339  0.1436
  108MOL   C21336807   4.043   6.588   1.125 -0.5628 -0.3904 -0.6787
  108MOL   O21436808   3.767   6.593   0.900  1.1192 -0.1626 -0.1722
  108MOL   H21536809   3.649   6.618   1.134 -0.2340  0.4457 -0.6452
  108MOL   H21636810   3.741   6.502   1.223  2.3093  2.3716 -1.4813
  108MOL   H21736811   3.863   6.442   1.003  1.3666  1.4544 -1.2110
  108MOL   H21836812   3.816   6.826   1.026  0.2826  0.2657  0.1886
  108MOL   H21936813   4.007   6.975   1.105 -1.7646  0.0970  0.3321
  108MOL   H22036814   4.198   6.885   1.200 -1.0398  1.2409 -1.5118
  108MOL   H22136815   4.226   6.619   1.216  0.6486  1.9635  1.7524
  108MOL   H22236816   4.066   6.483   1.128  1.8445  0.0779 -2.1960
  108MOL   C22336817   3.856   6.570   0.789 -0.5033  0.5462 -0.2661
  108MOL   C22436818   3.781   6.534   0.654  0.2529  0.4869  0.5467
  108MOL   C22536819   3.656   6.626   0.625  0.1124  0.0413 -0.4268
  108MOL   C22636820   3.665   6.731   0.532 -0.7046 -0.5498  0.2574
  108MOL   C22736821   3.565   6.828   0.519 -0.6624  0.1673 -0.5858
  108MOL   C22836822   3.447   6.812   0.585 -0.4409 -0.5832  0.0074
  108MOL   C22936823   3.434   6.713   0.686  0.2041  0.1654 -0.3534
  108MOL   C23036824   3.537   6.618   0.702  0.1437  0.2466  0.1505
  108MOL   O23136825   3.878   6.531   0.543  0.5978 -0.3241 -0.0942
  108MOL   H23236826   3.903   6.666   0.765  0.6067  0.0005 -0.3470
  108MOL   H23336827   3.938   6.501   0.809  1.8279  3.7048  1.5301
  108MOL   H23436828   3.743   6.435   0.680  1.0628 -0.1590 -0.6987
  108MOL   H23536829   3.752   6.748   0.471  0.8414  0.9117  2.7506
  108MOL   H23636830   3.574   6.905   0.443 -0.6051  1.0139  0.2727
  108MOL   H23736831   3.361   6.870   0.556  0.4608  0.4828 -0.5808
  108MOL   H23836832   3.342   6.696   0.740  1.1440  0.0183  1.2289
  108MOL   H23936833   3.532   6.540   0.776 -0.9069  0.0261 -0.1386
  108MOL   C24036834   3.855   6.423   0.449 -0.1098 -0.0554  0.2508
  108MOL   C24136835   3.959   6.422   0.330  0.6166 -0.7582  0.3612
  108MOL   C24236836   3.987   6.557   0.261 -0.4409  0.2218 -0.0284
  108MOL   C24336837   4.118   6.609   0.243  0.3713 -0.0442  0.2451
  108MOL   C24436838   4.135   6.725   0.161  0.1347  0.2200  0.6764
  108MOL   C24536839   4.025   6.776   0.093 -0.7421 -0.6675  0.0364
  108MOL   C24636840   3.898   6.723   0.112 -0.0592  0.1322 -0.3107
  108MOL   C24736841   3.878   6.620   0.198  0.5890 -0.1463 -0.2159
  108MOL   O24836842   4.088   6.368   0.373 -0.5693  0.0650 -0.4026
  108MOL   H24936843   3.864   6.325   0.496 -0.2389  0.5628  1.5796
  108MOL   H25036844   3.752   6.436   0.415  0.1524 -0.8209 -0.8753
  108MOL   H25136845   3.920   6.356   0.252 -1.2605  0.1197  0.5257
  108MOL   H25236846   4.208   6.559   0.277  0.2719  0.1336  0.7766
  108MOL   H25336847   4.229   6.773   0.140 -0.1612  2.0136  3.3477
  108MOL   H25436848   4.034   6.861   0.026 -1.2680 -2.0798 -1.8579
  108MOL   H25536849   3.818   6.772   0.057 -0.1503  0.3365 -0.0002
  108MOL   H25636850   3.779   6.580   0.213  0.8255 -0.6834 -0.0830
  108MOL   C25736851   4.148   6.274   0.292  0.2553  0.1377 -0.5654
  108MOL   C25836852   4.277   6.224   0.351 -0.3573  0.3527 -0.6498
  108MOL   C25936853   4.360   6.129   0.263 -0.5944 -0.0638  0.1768
  108MOL   C26036854   4.390   5.995   0.303 -0.5355 -0.0299  0.5405
  108MOL   C26136855   4.470   5.914   0.220  0.2837 -0.0036  0.2288
  108MOL   C26236856   4.506   5.956   0.093 -0.2204 -0.0625 -0.0990
  108MOL   C26336857   4.485   6.092   0.053  0.4837  0.4303 -1.0999
  108MOL   C26436858   4.418   6.177   0.141 -0.0669 -0.2855  0.2959
  108MOL   O26536859   4.247   6.156   0.476 -0.2235  0.3757 -0.2823
  108MOL   H26636860   4.167   6.305   0.189  1.8282  0.9870 -0.0423
  108MOL   H26736861   4.088   6.185   0.269  0.6280 -0.6899  1.5565
  108MOL   H26836862   4.338   6.312   0.371  1.6610 -1.8921  3.9079
  108MOL   H26936863   4.347   5.955   0.394 -0.1140 -0.7730  0.4201
  108MOL   H27036864   4.488   5.813   0.254 -0.5481 -0.1424  0.2659
  108MOL   H27136865   4.568   5.895   0.029 -1.0623  0.5304 -1.4930
  108MOL   H27236866   4.534   6.129   8.045  1.3243  1.9022 -0.0396
  108MOL   H27336867   4.397   6.276   0.104  0.3493  0.1937  1.3290
  108MOL   C27436868   4.329   6.202   0.585  0.4500 -0.3100  1.5918
  108MOL   C27536869   4.299   6.119   0.705 -0.6148 -0.4936 -0.5839
  108MOL   C27636870   4.352   6.189   0.828 -0.2025 -0.4596  0.0936
  108MOL   C27736871   4.265   6.239   0.927 -0.4743  0.4522 -0.3373
  108MOL   C27836872   4.308   6.296   1.045 -0.0901  1.3527  0.8976
  108MOL   C27936873   4.452   6.298   1.065  0.9262  0.5278  0.1737
  108MOL   C28036874   4.543   6.256   0.966  0.2065  0.3538  0.2385
  108MOL   C28136875   4.491   6.201   0.849 -0.4760  0.3123  0.7151
  108MOL   O28236876   4.369   5.999   0.675  0.5227  0.8049  0.0666
  108MOL   H28336877   4.434   6.176   0.568  0.1279  0.0326 -1.2274
  108MOL   H28436878   4.308   6.308   0.599 -0.8507 -0.0576 -1.7752
  108MOL   H28536879   4.193   6.095   0.704 -1.0608  1.4285 -2.6704
  108MOL   H28636880   4.159   6.236   0.907 -0.6804  2.0236  0.4306
  108MOL   H28736881   4.246   6.327   1.128  0.4014  3.1067  0.6326
  108MOL   H28836882   4.484   6.342   1.159 -2.8961 -0.6603  2.1177
  108MOL   H28936883   4.651   6.265   0.974  0.1557 -0.3164  1.9036
  108MOL   H29036884   4.554   6.174   0.766 -1.6772 -0.2182 -0.0251
  108MOL   C29136885   4.342   5.886   0.760 -0.3212  0.9439 -0.4817
  108MOL   C29236886   4.297   5.774   0.666 -0.2358  0.8807 -0.1829
  108MOL   C29336887   4.288   5.645   0.740 -0.0777  0.3239  0.6294
  108MOL   C29436888   4.183   5.620   0.833  0.1906  0.1908 -0.4175
  108MOL   C29536889   4.177   5.499   0.899  0.4672 -0.4933 -0.2275
  108MOL   C29636890   4.271   5.397   0.870  0.4572  0.0221  0.1498
  108MOL   C29736891   4.371   5.419   0.775  0.1962 -0.7109  0.1708
  108MOL   C29836892   4.380   5.543   0.711 -0.0503 -0.6999 -0.5186
  108MOL   O29936893   4.166   5.810   0.630  0.3010  0.2890  0.1826
  108MOL   H30036894   4.271   5.897   0.842  0.5552  0.1610  0.3871
  108MOL   H30136895   4.436   5.864   0.810  0.5446  1.5406 -1.8081
  108MOL   H30236896   4.361   5.764   0.579  0.0160 -0.0967  0.1098
  108MOL   H30336897   4.106   5.691   0.861  2.4949  2.6877 -0.2312
  108MOL   H30436898   4.096   5.497   0.971 -0.4115  1.2932 -1.1263
  108MOL   H30536899   4.258   5.309   0.931 -3.1686 -1.1446 -2.1639
  108MOL   H30636900   4.442   5.345   0.743  1.0359 -0.3450  1.1688
  108MOL   H30736901   4.456   5.565   0.637  0.1738  1.5647  0.3560
  108MOL   C30836902   4.128   5.756   0.501  0.0579 -0.8341 -0.1582
  108MOL   C30936903   3.982   5.751   0.480  0.3441  0.2482 -0.4793
  108MOL   C31036904   3.916   5.678   0.594  1.0575  0.3429  0.3617
  108MOL   C31136905   3.845   5.736   0.696  1.0140  0.2991 -0.1253
  108MOL   C31236906   3.789   5.662   0.801 -0.6823  0.1853 -0.4308
  108MOL   C31336907   3.809   5.523   0.807 -0.0706 -0.8077  0.6675
  108MOL   C31436908   3.880   5.460   0.702  0.6955 -0.0200  0.3993
  108MOL   C31536909   3.933   5.536   0.603 -0.1003  0.1772 -0.0487
  108MOL   O31636910   3.931   5.884   0.470 -0.3498 -0.4737  0.0025
  108MOL   H31736911   4.179   5.661   0.488 -0.8755 -1.5213  1.1054
  108MOL   H31836912   4.174   5.819   0.425  0.3077 -1.2171 -0.3266
  108MOL   H31936913   3.963   5.700   0.385 -2.4063  1.5809 -0.6971
  108MOL   H32036914   3.835   5.842   0.710  2.5106  0.1784  2.1203
  108MOL   H32136915   3.721   5.698   0.876 -0.0683  1.5059 -0.4893
  108MOL   H32236916   3.761   5.468   0.886  0.1472 -0.1026  1.2993
  108MOL   H32336917   3.897   5.356   0.722 -2.8824 -0.1095  3.6613
  108MOL   H32436918   3.989   5.485   0.526 -0.1810 -0.0822  0.0641
  108MOL   C32536919   3.798   5.898   0.409 -0.6509 -0.6270  0.6922
  108MOL   C32636920   3.756   6.052   0.416 -0.5642 -0.1704  0.1481
  108MOL   C32736921   3.744   6.099   0.557 -0.8505 -0.2977 -0.3564
  108MOL   C32836922   3.620   6.146   0.600 -0.4853 -0.1999 -0.3152
  108MOL   C32936923   3.603   6.187   0.734  0.3099  0.0848 -0.2708
  108MOL   C33036924   3.716   6.183   0.816 -0.0951 -0.0916  0.3096
  108MOL   C33136925   3.845   6.143   0.773 -0.6110 -0.1005  0.2272
  108MOL   C33236926   3.860   6.103   0.639 -0.2157 -0.0001 -1.1116
  108MOL   O33336927   3.869   6.099   0.351 -0.3633 -0.1596 -0.1082
  108MOL   H33436928   3.726   5.830   0.454  0.2458 -1.4023  0.9724
  108MOL   H33536929   3.795   5.872   0.303 -1.3588  1.6409  0.1090
  108MOL   H33636930   3.669   6.072   0.353  0.3143  0.6037 -0.8467
  108MOL   H33736931   3.539   6.146   0.529 -0.4203 -0.6012 -0.3933
  108MOL   H33836932   3.505   6.219   0.766 -0.0517  0.7044 -1.9581
  108MOL   H33936933   3.709   6.232   0.912 -0.8984  1.4697 -0.5376
  108MOL   H34036934   3.930   6.161   0.838 -0.4931  2.2074 -0.5246
  108MOL   H34136935   3.958   6.083   0.598  0.3019 -1.0070  0.5672
  108MOL   H34236936   3.940   6.064   0.402 -0.7536 -1.0314 -0.1480
  109MOL     C136937   5.984   2.434   4.418  0.2842 -0.5111 -0.0114
  109MOL     C236938   6.015   2.585   4.450 -0.3780  0.2397  0.2045
  109MOL     C336939   5.906   2.646   4.539  0.7287  0.5166 -0.3239
  109MOL     C436940   5.789   2.684   4.472 -0.0643  0.1911 -0.1763
  109MOL     C536941   5.689   2.754   4.544  0.1557  0.3431 -0.0786
  109MOL     C636942   5.705   2.784   4.684 -0.5429 -0.4296 -0.6412
  109MOL     C736943   5.821   2.735   4.752  0.3285  0.3986 -0.1148
  109MOL     C836944   5.924   2.665   4.678  0.2599 -0.1906 -0.2183
  109MOL     O936945   6.037   2.656   4.329  0.3003 -0.1137  0.4605
  109MOL    H1036946   6.068   2.383   4.372  0.3560 -0.4055  0.0014
  109MOL    H1136947   5.959   2.373   4.505 -1.9720 -1.5094 -1.3173
  109MOL    H1236948   6.107   2.569   4.507 -1.7003  0.3474  2.4542
  109MOL    H1336949   5.772   2.677   4.365 -2.2555  1.2240  0.0615
  109MOL    H1436950   5.603   2.794   4.493 -0.6294 -1.1160  0.0816
  109MOL    H1536951   5.637   2.849   4.738  1.4582  1.9000 -0.8127
  109MOL    H1636952   5.838   2.754   4.857 -0.7785  0.4648  0.0623
  109MOL    H1736953   6.011   2.623   4.727 -1.6455 -1.2555  2.3080
  109MOL    H1836954   5.902   2.419   4.347  0.9805 -1.3173 -0.6448
  109MOL    C1936955   6.101   2.785   4.338  0.4887 -0.1044  0.1447
  109MOL    C2036956   6.257   2.769   4.333 -0.0972 -0.6125 -0.6945
  109MOL    C2136957   6.326   2.902   4.328 -0.0383  0.9629 -0.6326
  109MOL    C2236958   6.378   2.961   4.210  0.6756 -0.2589 -0.2328
  109MOL    C2336959   6.446   3.083   4.216 -0.1846  0.6300  0.3797
  109MOL    C2436960   6.490   3.132   4.340 -0.6676 -0.5167 -0.4451
  109MOL    C2536961   6.430   3.084   4.461 -0.2467  0.0112  0.3623
  109MOL    C2636962   6.351   2.968   4.451 -0.2991  0.1806 -0.2380
  109MOL    O2736963   6.301   2.696   4.218 -0.1750 -0.4704 -0.4900
  109MOL    H2836964   6.081   2.851   4.253 -2.9871  0.7420  1.5430
  109MOL    H2936965   6.067   2.844   4.423  0.9785  0.1663  0.1497
  109MOL    H3036966   6.280   2.704   4.417 -2.4191  0.2312  0.6346
  109MOL    H3136967   6.360   2.911   4.116 -0.0562  1.7803 -1.2222
  109MOL    H3236968   6.484   3.123   4.123  1.3117 -1.9484 -0.1626
  109MOL    H3336969   6.555   3.217   4.349 -0.1134 -1.2235  2.8904
  109MOL    H3436970   6.450   3.123   4.560  0.8307  2.0372 -0.6331
  109MOL    H3536971   6.296   2.921   4.532  0.3186 -3.1802 -1.6951
  109MOL    C3636972   6.429   2.631   4.247  0.5036  0.1656 -0.5356
  109MOL    C3736973   6.448   2.523   4.148  0.1177 -0.1570 -0.0137
  109MOL    C3836974   6.364   2.396   4.147  0.0110 -0.3354 -0.0883
  109MOL    C3936975   6.226   2.401   4.110 -0.1776  0.5121 -0.1635
  109MOL    C4036976   6.139   2.293   4.115 -0.1601  0.3133 -0.8068
  109MOL    C4136977   6.197   2.171   4.156  0.2018  0.0970 -0.3471
  109MOL    C4236978   6.334   2.157   4.192 -0.2054  0.0691  0.2087
  109MOL    C4336979   6.419   2.269   4.182 -0.1282  0.6450  0.4914
  109MOL    O4436980   6.580   2.486   4.166 -0.1279  0.2562  0.1441
  109MOL    H4536981   6.506   2.707   4.234  2.0100 -0.9949  1.3213
  109MOL    H4636982   6.425   2.589   4.347 -0.2672  0.5648 -0.4027
  109MOL    H4736983   6.440   2.573   4.051  0.3317 -1.1361 -0.5497
  109MOL    H4836984   6.186   2.491   4.064  0.4698 -0.4661 -2.7226
  109MOL    H4936985   6.036   2.305   4.086 -0.6211 -2.1246 -0.3331
  109MOL    H5036986   6.133   2.084   4.160 -1.5909  1.4621  1.3760
  109MOL    H5136987   6.378   2.065   4.225 -2.5195 -0.5589  1.6556
  109MOL    H5236988   6.523   2.260   4.209 -0.1913  0.3276  0.6226
  109MOL    C5336989   6.660   2.466   4.054  0.5297 -0.0665 -0.0065
  109MOL    C5436990   6.803   2.414   4.088 -0.3328 -0.1004  0.4975
  109MOL    C5536991   6.805   2.278   4.161  0.4061 -0.0329 -0.5280
  109MOL    C5636992   6.859   2.265   4.289  0.2334  0.7142 -0.3605
  109MOL    C5736993   6.881   2.143   4.354  0.3257 -0.3373 -0.1685
  109MOL    C5836994   6.827   2.027   4.290 -0.3584 -0.3378  0.2768
  109MOL    C5936995   6.765   2.032   4.160 -0.1460  0.0919 -0.4760
  109MOL    C6036996   6.758   2.156   4.096  0.8200  0.6960 -0.1334
  109MOL    O6136997   6.890   2.425   3.972  0.1040  0.2426  0.0095
  109MOL    H6236998   6.623   2.403   3.973  1.2285 -0.6022  0.0876
  109MOL    H6336999   6.677   2.568   4.017  0.8183 -0.4378 -0.9045
  109MOL    H6437000   6.844   2.489   4.155  0.8566  1.2892 -1.7212
  109MOL    H6537001   6.901   2.348   4.346 -0.6164 -0.6732  2.3725
  109MOL    H6637002   6.927   2.135   4.452 -1.6016 -0.7622  0.7314
  109MOL    H6737003   6.836   1.936   4.347 -0.8303 -1.7320 -1.8132
  109MOL    H6837004   6.734   1.939   4.114 -0.7017  0.3480 -0.6255
  109MOL    H6937005   6.719   2.158   3.995  0.6914 -1.6470 -0.1585
  109MOL    C7037006   7.023   2.392   3.987 -0.0384 -0.2166  0.0550
  109MOL    C7137007   7.086   2.388   3.848  0.5995  0.8623  0.4674
  109MOL    C7237008   7.067   2.258   3.774 -0.0306  0.0903  0.3056
  109MOL    C7337009   7.176   2.169   3.762  0.1241 -0.3938 -0.4861
  109MOL    C7437010   7.156   2.037   3.705 -0.2113  0.5451 -0.4734
  109MOL    C7537011   7.026   1.994   3.667  0.7451 -0.2193  0.2070
  109MOL    C7637012   6.923   2.093   3.678  0.2066  0.0585  0.4940
  109MOL    C7737013   6.942   2.221   3.725 -0.1588 -0.0645  0.7911
  109MOL    O7837014   7.220   2.432   3.871 -0.3100 -0.2487 -0.3298
  109MOL    H7937015   7.074   2.466   4.048 -0.8727  0.6089 -0.2474
  109MOL    H8037016   7.045   2.298   4.039  3.1514  1.1288  1.2902
  109MOL    H8137017   7.034   2.469   3.797 -0.4723  0.7154  1.3087
  109MOL    H8237018   7.275   2.200   3.792 -1.0631  1.5054  1.5709
  109MOL    H8337019   7.247   1.981   3.692  0.1611  0.8339  0.8171
  109MOL    H8437020   7.002   1.900   3.619  0.9427 -0.7284  1.0973
  109MOL    H8537021   6.829   2.070   3.630 -0.0490  1.4707  0.3052
  109MOL    H8637022   6.869   2.300   3.727  1.9093  1.9163  3.5671
  109MOL    C8737023   7.300   2.485   3.768 -0.0482  0.0303  0.4724
  109MOL    C8837024   7.394   2.599   3.801  0.1382  0.1184 -0.3478
  109MOL    C8937025   7.464   2.573   3.929 -0.0538 -0.5583 -0.2161
  109MOL    C9037026   7.594   2.517   3.927 -0.2255 -0.0421 -0.5156
  109MOL    C9137027   7.666   2.472   4.042 -0.1211 -0.9865  0.2735
  109MOL    C9237028   7.610   2.490   4.169 -0.2281  0.2698 -0.0994
  109MOL    C9337029   7.479   2.545   4.180  0.0229  0.5872  0.8125
  109MOL    C9437030   7.404   2.581   4.064 -0.2530  0.0738  0.7919
  109MOL    O9537031   7.341   2.733   3.802 -0.4480 -0.1852 -0.4294
  109MOL    H9637032   7.230   2.517   3.691  1.2636 -0.8486 -1.1209
  109MOL    H9737033   7.345   2.403   3.713 -1.7438  0.2310 -1.2607
  109MOL    H9837034   7.467   2.601   3.720 -0.0455  2.2271 -0.4939
  109MOL    H9937035   7.646   2.510   3.833 -0.3703  2.9143 -0.8556
  109MOL   H10037036   7.767   2.434   4.035  2.2210  5.1143 -2.8031
  109MOL   H10137037   7.671   2.477   4.257 -1.7183 -0.1747  0.8811
  109MOL   H10237038   7.436   2.561   4.278  0.3309  2.1851  0.7044
  109MOL   H10337039   7.304   2.623   4.072 -0.4063 -0.0435 -0.4621
  109MOL   C10437040   7.441   2.830   3.813  0.5409 -0.3434 -0.1918
  109MOL   C10537041   7.427   2.957   3.724  0.1535 -0.2692 -0.5937
  109MOL   C10637042   7.390   2.925   3.579  0.1981 -0.6801  0.1652
  109MOL   C10737043   7.260   2.903   3.541  0.4362  0.3475  0.5833
  109MOL   C10837044   7.230   2.873   3.406 -0.6131  0.5520  0.3326
  109MOL   C10937045   7.328   2.866   3.303  0.5732 -0.2836  0.2756
  109MOL   C11037046   7.462   2.886   3.340 -0.9623 -0.6470  0.2849
  109MOL   C11137047   7.489   2.908   3.477 -0.6282  0.8440 -0.1792
  109MOL   O11237048   7.343   3.050   3.789 -0.1948 -0.1027  0.4687
  109MOL   H11337049   7.464   2.861   3.914  1.5587  1.1283 -0.8538
  109MOL   H11437050   7.540   2.786   3.797  1.5098  1.1852  1.5406
  109MOL   H11537051   7.528   2.995   3.712  0.1658 -0.0254  0.2635
  109MOL   H11637052   7.184   2.910   3.618 -0.1612  1.2657 -0.0778
  109MOL   H11737053   7.125   2.859   3.383 -0.1325 -1.3855 -0.7585
  109MOL   H11837054   7.318   2.830   3.202 -1.1633  0.0011  0.3348
  109MOL   H11937055   7.540   2.869   3.268  0.0221  1.0280  0.9214
  109MOL   H12037056   7.593   2.897   3.501 -0.8989 -0.5643  0.4333
  109MOL   C12137057   7.370   3.181   3.754  0.5249 -0.3576 -0.6188
  109MOL   C12237058   7.293   3.277   3.843  0.2378 -0.2952  0.2437
  109MOL   C12337059   7.338   3.416   3.804 -0.5557  0.6908 -0.2160
  109MOL   C12437060   7.447   3.479   3.880  0.5852 -0.2993  0.5782
  109MOL   C12537061   7.479   3.610   3.859 -0.3220 -0.1454  0.9903
  109MOL   C12637062   7.413   3.689   3.761  0.4830  0.4231 -0.7113
  109MOL   C12737063   7.317   3.627   3.678  0.0102  0.7104  0.5645
  109MOL   C12837064   7.276   3.492   3.704 -0.3439 -0.5424  0.2530
  109MOL   O12937065   7.163   3.251   3.801 -0.2268 -0.1887 -0.0060
  109MOL   H13037066   7.341   3.182   3.649 -1.4680  3.1742 -0.1083
  109MOL   H13137067   7.473   3.209   3.777 -0.9192  1.9924  3.4916
  109MOL   H13237068   7.314   3.242   3.944 -2.7961 -3.1086 -0.0199
  109MOL   H13337069   7.498   3.428   3.960  2.2726  2.2713  1.1831
  109MOL   H13437070   7.557   3.643   3.926  1.7037 -2.6637 -0.0082
  109MOL   H13537071   7.428   3.796   3.754 -0.0881  0.6532  1.2044
  109MOL   H13637072   7.271   3.672   3.591 -0.3581 -1.2683 -0.3031
  109MOL   H13737073   7.205   3.439   3.643  0.8774 -3.5680  1.3323
  109MOL   C13837074   7.062   3.274   3.893 -0.0896 -0.0767  0.5817
  109MOL   C13937075   6.928   3.333   3.827  0.1610 -0.0802 -0.0405
  109MOL   C14037076   6.935   3.481   3.788 -0.2820 -0.1145  0.5909
  109MOL   C14137077   6.900   3.524   3.658 -0.2744  0.1158 -0.0836
  109MOL   C14237078   6.904   3.660   3.628 -0.4711  0.1138 -0.1676
  109MOL   C14337079   6.946   3.759   3.718  0.3232 -0.2629  0.0430
  109MOL   C14437080   6.975   3.718   3.854 -0.2461  0.3123  0.1665
  109MOL   C14537081   6.970   3.577   3.883 -0.2801  0.1981 -0.2680
  109MOL   O14637082   6.895   3.242   3.720 -0.4151 -0.1768  0.5144
  109MOL   H14737083   7.094   3.344   3.971  0.5470 -1.3286  1.4644
  109MOL   H14837084   7.043   3.179   3.942  2.9314 -0.7357  0.6038
  109MOL   H14937085   6.845   3.336   3.897  0.2772 -0.5219  0.1159
  109MOL   H15037086   6.876   3.447   3.587 -2.1349  2.2092 -1.8013
  109MOL   H15137087   6.880   3.691   3.527  0.0091 -0.6165 -0.5162
  109MOL   H15237088   6.960   3.863   3.694 -0.9245 -0.2783 -0.8246
  109MOL   H15337089   6.992   3.785   3.936 -2.5734 -0.6462  1.4810
  109MOL   H15437090   6.972   3.544   3.986 -1.1785  0.8598 -0.0236
  109MOL   C15537091   6.843   3.116   3.759 -0.0167 -0.4150 -0.3831
  109MOL   C15637092   6.798   3.031   3.640  0.0514  0.1943 -0.3074
  109MOL   C15737093   6.743   2.891   3.680 -0.0817  0.5238  0.4509
  109MOL   C15837094   6.602   2.861   3.666  0.1695  0.6870 -0.6780
  109MOL   C15937095   6.556   2.730   3.702 -0.3057 -1.0549  0.6900
  109MOL   C16037096   6.648   2.630   3.736 -0.0731 -0.0248 -0.3392
  109MOL   C16137097   6.786   2.664   3.747 -1.1637 -0.6410 -0.3813
  109MOL   C16237098   6.833   2.789   3.703 -0.2294  0.9533  0.6033
  109MOL   O16337099   6.701   3.114   3.580  0.3150  1.2503 -0.0461
  109MOL   H16437100   6.762   3.122   3.832  0.1380 -0.3134 -0.2189
  109MOL   H16537101   6.921   3.062   3.813 -0.1179  0.9134  1.1232
  109MOL   H16637102   6.871   3.013   3.561 -0.0877 -3.4250  0.2946
  109MOL   H16737103   6.520   2.925   3.637 -0.3106  0.3267 -0.1239
  109MOL   H16837104   6.452   2.705   3.687 -0.1249 -1.7476  0.6136
  109MOL   H16937105   6.605   2.534   3.761 -0.3099 -0.2893 -1.7308
  109MOL   H17037106   6.856   2.584   3.768  1.9496  2.0967 -0.0029
  109MOL   H17137107   6.939   2.806   3.694 -0.7234  3.0253 -1.6876
  109MOL   C17237108   6.675   3.096   3.443 -0.2089 -0.5520 -0.3870
  109MOL   C17337109   6.562   3.190   3.400 -0.2455 -0.0776  0.0436
  109MOL   C17437110   6.424   3.142   3.444  0.1794 -0.3650 -0.0386
  109MOL   C17537111   6.375   3.016   3.408  0.0359  0.3007 -0.2132
  109MOL   C17637112   6.254   2.968   3.460 -0.4799 -0.1501 -0.1284
  109MOL   C17737113   6.187   3.046   3.554 -0.8793  0.0439 -0.0633
  109MOL   C17837114   6.234   3.169   3.592  0.0920  0.4212 -0.0310
  109MOL   C17937115   6.350   3.219   3.534  0.6672 -0.4931 -0.0836
  109MOL   O18037116   6.563   3.224   3.258  0.3154  0.3423  0.2559
  109MOL   H18137117   6.771   3.119   3.397 -0.9826 -0.3335 -1.9339
  109MOL   H18237118   6.659   2.990   3.422 -2.7040  0.2726 -2.9388
  109MOL   H18337119   6.581   3.286   3.446  0.5846 -0.9527  1.5862
  109MOL   H18437120   6.431   2.960   3.334  1.7578  0.5885  0.8325
  109MOL   H18537121   6.214   2.871   3.433 -0.0566 -0.7435  1.3192
  109MOL   H18637122   6.098   3.008   3.603 -1.5022  2.0597  0.4367
  109MOL   H18737123   6.177   3.229   3.662  0.7578 -1.0780  1.8535
  109MOL   H18837124   6.403   3.301   3.579 -3.2743  2.1503 -0.0181
  109MOL   C18937125   6.480   3.333   3.217 -0.3846 -0.0543 -0.3290
  109MOL   C19037126   6.500   3.371   3.071 -0.0389  0.0846 -0.2088
  109MOL   C19137127   6.504   3.255   2.970 -0.3912  0.0800  0.4815
  109MOL   C19237128   6.609   3.164   2.981 -0.8631 -0.3749  0.0724
  109MOL   C19337129   6.613   3.056   2.893  0.3514 -0.2088  0.3347
  109MOL   C19437130   6.510   3.042   2.792  0.5889  0.1363  0.9844
  109MOL   C19537131   6.396   3.124   2.785  0.1152  0.5617 -0.6363
  109MOL   C19637132   6.400   3.236   2.876  0.1369  0.2586  0.0290
  109MOL   O19737133   6.619   3.451   3.071  0.0061 -0.4828  0.2891
  109MOL   H19837134   6.374   3.307   3.224 -0.3813  0.1540  0.6357
  109MOL   H19937135   6.497   3.414   3.288 -1.6527  0.2454 -0.3626
  109MOL   H20037136   6.410   3.429   3.051 -0.2020  1.5067  4.3423
  109MOL   H20137137   6.684   3.176   3.057 -2.0131  0.4024  1.1008
  109MOL   H20237138   6.692   2.982   2.890  1.6019  1.1519 -1.5573
  109MOL   H20337139   6.502   2.953   2.731 -4.8219 -0.6247  2.5401
  109MOL   H20437140   6.314   3.109   2.715  0.4596 -1.0339 -0.7032
  109MOL   H20537141   6.329   3.316   2.871 -1.2762 -0.9102  0.8277
  109MOL   C20637142   6.625   3.521   2.949 -0.3033  0.3949  0.6281
  109MOL   C20737143   6.710   3.649   2.961 -0.5486 -0.9979 -0.2287
  109MOL   C20837144   6.661   3.765   2.876  0.2200 -0.7055  0.0117
  109MOL   C20937145   6.674   3.758   2.739 -0.2581  0.4975 -0.1411
  109MOL   C21037146   6.618   3.863   2.668 -0.4371  0.5047  0.2772
  109MOL   C21137147   6.561   3.981   2.724  0.1868  1.1411 -0.4995
  109MOL   C21237148   6.561   3.990   2.864  0.0647 -0.5865 -0.7987
  109MOL   C21337149   6.603   3.875   2.941 -0.1024  0.8672  0.2919
  109MOL   O21437150   6.846   3.614   2.922  0.2641  0.0325  0.0039
  109MOL   H21537151   6.649   3.455   2.866  2.6186  0.4153  1.3880
  109MOL   H21637152   6.524   3.554   2.925 -0.1166  0.3130 -0.2831
  109MOL   H21737153   6.726   3.677   3.065  0.0608  1.7775 -1.0080
  109MOL   H21837154   6.713   3.676   2.681 -1.1866 -0.3290  0.3816
  109MOL   H21937155   6.629   3.856   2.560 -0.1326  0.3899  0.3125
  109MOL   H22037156   6.528   4.059   2.657 -0.6270  0.9832 -0.2862
  109MOL   H22137157   6.524   4.074   2.921  0.7812 -1.7905  1.4949
  109MOL   H22237158   6.610   3.888   3.048  0.4075  2.7386  0.0565
  109MOL   C22337159   6.915   3.506   2.987 -0.1053  0.4232 -0.6347
  109MOL   C22437160   6.973   3.543   3.125  0.0698  0.0186  0.3114
  109MOL   C22537161   7.040   3.421   3.187  0.1798  0.2382  0.0838
  109MOL   C22637162   7.159   3.369   3.131  0.2563 -0.1021  0.1339
  109MOL   C22737163   7.218   3.262   3.200 -0.1521  0.7517 -0.2949
  109MOL   C22837164   7.164   3.215   3.318  0.0153  0.0745 -0.5370
  109MOL   C22937165   7.043   3.269   3.367  0.3137 -0.1610  0.2040
  109MOL   C23037166   6.978   3.370   3.301  0.7129  0.0259 -0.1665
  109MOL   O23137167   7.068   3.646   3.105 -0.7581  0.2992  0.4634
  109MOL   H23237168   6.858   3.414   2.998  3.5244 -1.8170  0.4339
  109MOL   H23337169   6.992   3.469   2.920 -0.0964  0.7090 -0.7824
  109MOL   H23437170   6.892   3.570   3.193  0.1180  1.1547 -0.0711
  109MOL   H23537171   7.207   3.401   3.039 -1.0339 -0.6724 -0.7616
  109MOL   H23637172   7.312   3.217   3.168  0.6433  1.9911  0.2686
  109MOL   H23737173   7.218   3.139   3.373 -1.4758 -1.2263 -0.8050
  109MOL   H23837174   7.012   3.239   3.467  0.5656  0.8118  0.5735
  109MOL   H23937175   6.894   3.417   3.350  0.6396 -1.3044  1.0037
  109MOL   C24037176   7.132   3.686   3.227  0.1070  0.4308 -0.6738
  109MOL   C24137177   7.183   3.837   3.217  0.3070 -1.0067 -0.9170
  109MOL   C24237178   7.226   3.876   3.357  0.0514 -0.7042  0.1878
  109MOL   C24337179   7.131   3.931   3.438 -0.0298 -0.4831 -0.0922
  109MOL   C24437180   7.164   3.993   3.560 -0.4357  1.0776 -0.1151
  109MOL   C24537181   7.295   3.979   3.607 -0.6560  0.2743 -0.0563
  109MOL   C24637182   7.395   3.922   3.524 -0.3182  0.1372 -0.3302
  109MOL   C24737183   7.358   3.855   3.405 -0.0545 -1.2547  0.5145
  109MOL   O24837184   7.293   3.856   3.122 -0.2422  0.1507  0.3485
  109MOL   H24937185   7.073   3.673   3.317  0.2849  1.4744 -0.4014
  109MOL   H25037186   7.222   3.625   3.236  0.3829  0.9116 -0.1237
  109MOL   H25137187   7.111   3.916   3.202 -0.3704 -1.8049 -1.9262
  109MOL   H25237188   7.033   3.939   3.395 -0.1540 -0.4115  0.2016
  109MOL   H25337189   7.096   4.054   3.619  1.1244 -1.2490  4.2638
  109MOL   H25437190   7.322   4.038   3.694 -0.1937  1.7299 -1.1678
  109MOL   H25537191   7.495   3.916   3.565 -1.0874 -1.5699  1.3419
  109MOL   H25637192   7.434   3.810   3.343 -0.0196  0.3685 -0.6387
  109MOL   C25737193   7.352   3.988   3.107  0.1449  0.3451 -0.1543
  109MOL   C25837194   7.259   4.072   3.018 -0.0953 -0.0586  0.3337
  109MOL   C25937195   7.339   4.174   2.935  0.7524  0.0611  0.2719
  109MOL   C26037196   7.377   4.158   2.806  0.8176  0.2363  0.0704
  109MOL   C26137197   7.456   4.259   2.748 -0.5479 -0.8555 -0.2220
  109MOL   C26237198   7.480   4.380   2.816  0.1182 -0.4175  0.4264
  109MOL   C26337199   7.439   4.398   2.945 -0.5078  0.5675 -0.3233
  109MOL   C26437200   7.366   4.299   3.003 -0.4384  0.2024 -0.6117
  109MOL   O26537201   7.163   4.132   3.109  0.3047  0.1785  0.1790
  109MOL   H26637202   7.431   3.967   3.036 -0.6280 -1.0809 -0.6017
  109MOL   H26737203   7.386   4.042   3.196 -0.0520 -0.9924  0.7412
  109MOL   H26837204   7.223   4.002   2.942  2.5421 -1.3934  0.2587
  109MOL   H26937205   7.353   4.072   2.744  2.4773 -0.3846  0.2390
  109MOL   H27037206   7.497   4.257   2.648 -0.6271 -2.5883 -0.2312
  109MOL   H27137207   7.531   4.465   2.773 -3.5362  1.1383 -1.0381
  109MOL   H27237208   7.467   4.485   3.003  0.5087 -0.3191  0.5386
  109MOL   H27337209   7.329   4.315   3.104  2.8876  3.6887  0.1365
  109MOL   C27437210   7.051   4.203   3.049 -0.6274 -0.4155 -0.1392
  109MOL   C27537211   6.932   4.105   3.017  0.6672 -0.1431  0.0772
  109MOL   C27637212   6.953   4.031   2.886 -0.3792  0.1171 -0.4365
  109MOL   C27737213   6.985   3.892   2.882 -0.1310  0.5516 -0.1594
  109MOL   C27837214   6.996   3.824   2.760 -0.2959  0.5615  0.3672
  109MOL   C27937215   6.976   3.898   2.644  0.9451  0.4674  0.1755
  109MOL   C28037216   6.948   4.039   2.644 -0.0185  0.3201  0.7163
  109MOL   C28137217   6.932   4.104   2.763 -0.0745 -0.6385 -0.3213
  109MOL   O28237218   6.794   4.150   3.022 -0.0844  0.0716  0.0265
  109MOL   H28337219   7.021   4.275   3.124  0.9812 -2.0574  2.1253
  109MOL   H28437220   7.087   4.257   2.961 -1.2251  0.9639  0.4528
  109MOL   H28537221   6.925   4.027   3.092 -1.9938 -0.3902 -0.3958
  109MOL   H28637222   7.002   3.836   2.973 -0.3702 -1.3493 -1.2578
  109MOL   H28737223   7.021   3.719   2.752  0.5147  0.6647  1.4543
  109MOL   H28837224   6.983   3.852   2.546  2.1795  0.2454  0.3647
  109MOL   H28937225   6.943   4.096   2.552  1.3075 -0.2558  0.2714
  109MOL   H29037226   6.910   4.209   2.756  0.3358 -0.3577  2.1992
  109MOL   C29137227   6.769   4.274   2.972 -0.3001  0.4432 -0.1119
  109MOL   C29237228   6.709   4.367   3.075  0.5893 -0.1652  0.3049
  109MOL   C29337229   6.579   4.304   3.128  0.8257 -0.0694 -0.5793
  109MOL   C29437230   6.451   4.330   3.070 -0.2032 -0.4502 -0.8989
  109MOL   C29537231   6.343   4.255   3.115 -0.1743  0.4409  0.3767
  109MOL   C29637232   6.349   4.158   3.215 -0.8769 -0.8626 -0.0397
  109MOL   C29737233   6.473   4.137   3.281 -1.0223  1.0753  0.1958
  109MOL   C29837234   6.585   4.211   3.236  0.1487  0.4589 -0.9661
  109MOL   O29937235   6.806   4.394   3.176  0.1207  0.3618 -0.2623
  109MOL   H30037236   6.699   4.269   2.888  1.4211  0.5204 -1.5916
  109MOL   H30137237   6.859   4.330   2.945 -0.1166  0.5137  0.6326
  109MOL   H30237238   6.688   4.461   3.024 -0.4514 -0.6726 -0.2084
  109MOL   H30337239   6.436   4.393   2.984 -1.6666 -0.4355 -0.6434
  109MOL   H30437240   6.248   4.279   3.069  0.1644 -0.7238 -0.9815
  109MOL   H30537241   6.261   4.106   3.249 -0.9575 -0.7565 -0.0849
  109MOL   H30637242   6.475   4.073   3.367 -1.6945 -0.5606 -0.9897
  109MOL   H30737243   6.685   4.197   3.275 -1.3979 -1.8195  2.4591
  109MOL   C30837244   6.784   4.500   3.264  0.1770 -0.5417  0.8066
  109MOL   C30937245   6.798   4.643   3.209  0.6315  0.0492  0.0355
  109MOL   C31037246   6.941   4.666   3.151 -0.7152  0.4463  0.2355
  109MOL   C31137247   6.986   4.615   3.031  0.5201 -0.2162  0.5476
  109MOL   C31237248   7.124   4.621   2.996 -0.3414 -0.3696  0.0216
  109MOL   C31337249   7.228   4.666   3.084 -0.3611 -0.1683  0.4504
  109MOL   C31437250   7.181   4.710   3.211 -0.2326  0.0325  0.6827
  109MOL   C31537251   7.040   4.710   3.240  0.0098  0.0700 -0.5569
  109MOL   O31637252   6.695   4.689   3.123 -0.0932 -0.2546 -0.4862
  109MOL   H31737253   6.852   4.491   3.348  1.3794  0.0912 -0.0978
  109MOL   H31837254   6.682   4.506   3.304  0.5604  2.9574  1.4245
  109MOL   H31937255   6.778   4.705   3.296 -1.3585  0.5556 -0.7389
  109MOL   H32037256   6.918   4.572   2.958 -0.2447  1.7626  0.0587
  109MOL   H32137257   7.152   4.580   2.900 -0.4982 -2.0450  0.6818
  109MOL   H32237258   7.329   4.669   3.047 -0.3291  1.4272  0.6443
  109MOL   H32337259   7.258   4.737   3.282  0.1674  0.8455 -0.0472
  109MOL   H32437260   7.016   4.734   3.343  0.4478  0.5130 -0.5556
  109MOL   C32537261   6.696   4.831   3.102 -0.1882  0.1029  0.2450
  109MOL   C32637262   6.568   4.858   3.029 -0.6771 -0.6927 -0.1053
  109MOL   C32737263   6.552   4.779   2.904 -0.0119 -0.1628 -0.4809
  109MOL   C32837264   6.633   4.811   2.794 -0.4081  0.2152  0.4325
  109MOL   C32937265   6.626   4.743   2.669 -0.4718  0.3419 -0.1214
  109MOL   C33037266   6.532   4.638   2.655  0.3229  0.3417  0.1314
  109MOL   C33137267   6.458   4.596   2.766  0.3507 -0.3136  0.1007
  109MOL   C33237268   6.471   4.660   2.891  0.2623  0.1025 -0.2849
  109MOL   O33337269   6.459   4.827   3.115 -0.2161 -0.1880 -0.1116
  109MOL   H33437270   6.782   4.847   3.037  0.9236 -2.6819  0.9679
  109MOL   H33537271   6.711   4.893   3.189 -0.3427  0.0343  0.3219
  109MOL   H33637272   6.552   4.961   2.998 -3.2766 -1.0332  0.0067
  109MOL   H33737273   6.701   4.893   2.806 -0.7636  0.2936  2.1933
  109MOL   H33837274   6.688   4.758   2.582 -2.2005 -2.8477 -1.9922
  109MOL   H33937275   6.516   4.595   2.557 -0.7587  2.0789 -0.4805
  109MOL   H34037276   6.384   4.518   2.754 -0.7475  1.2097 -3.5601
  109MOL   H34137277   6.413   4.620   2.973  0.8025  0.5836  0.3274
  109MOL   H34237278   6.502   4.761   3.167 -0.1550 -0.9939 -1.1692
  110MOL     C137279   6.675   5.936   7.710  0.1351 -0.0460  0.7601
  110MOL     C237280   6.719   6.082   7.657  0.1122  0.2973 -0.8500
  110MOL     C337281   6.735   6.182   7.771 -0.1850  0.6024 -0.3458
  110MOL     C437282   6.632   6.279   7.803  0.0198  0.1367  0.0855
  110MOL     C537283   6.663   6.374   7.905  0.5609  0.2249  0.5951
  110MOL     C637284   6.784   6.377   7.968 -0.4741 -0.7764  0.2501
  110MOL     C737285   6.886   6.285   7.938  0.0451  0.0835  1.1230
  110MOL     C837286   6.857   6.185   7.844  0.5959  0.3963 -0.5269
  110MOL     O937287   6.611   6.107   7.584 -0.3743  0.5619  0.2429
  110MOL    H1037288   6.569   5.955   7.729  0.4999  1.6955  1.1963
  110MOL    H1137289   6.686   5.864   7.629  0.9220  0.8078  0.0924
  110MOL    H1237290   6.807   6.073   7.594  1.0327 -0.6349  0.5325
  110MOL    H1337291   6.543   6.280   7.741 -0.1168 -2.2882  0.1884
  110MOL    H1437292   6.595   6.457   7.920  0.6937  0.7742 -1.6502
  110MOL    H1537293   6.798   6.459   8.037 -1.1829  0.9097 -1.5520
  110MOL    H1637294   6.974   6.282   7.999  1.1920  4.6124 -0.0637
  110MOL    H1737295   6.935   6.114   7.820  0.6313 -0.2012  1.2822
  110MOL    H1837296   6.733   5.909   7.799  0.6871 -0.8109  0.1733
  110MOL    C1937297   6.619   6.198   7.480  0.3074  0.0950  0.5904
  110MOL    C2037298   6.470   6.205   7.428  0.0390 -0.1088  0.1614
  110MOL    C2137299   6.469   6.308   7.314  0.4245  0.0205  0.4316
  110MOL    C2237300   6.483   6.446   7.351  0.2541  0.1807  0.7503
  110MOL    C2337301   6.465   6.547   7.263  0.4665  0.6076 -0.5686
  110MOL    C2437302   6.430   6.515   7.126  0.1640  0.3454 -0.2257
  110MOL    C2537303   6.410   6.383   7.096  0.7445 -0.5750 -0.0806
  110MOL    C2637304   6.433   6.278   7.184 -0.0357  0.3488  0.2807
  110MOL    O2737305   6.377   6.245   7.539 -0.0713  0.4768 -0.7973
  110MOL    H2837306   6.660   6.291   7.518  1.1171  0.4126 -1.0153
  110MOL    H2937307   6.681   6.151   7.404  0.4880  0.3118  0.6060
  110MOL    H3037308   6.448   6.103   7.396  0.2278 -0.0402 -0.1946
  110MOL    H3137309   6.502   6.473   7.454 -1.6123 -3.0083  2.0346
  110MOL    H3237310   6.468   6.645   7.308 -0.8168 -0.3464  1.6547
  110MOL    H3337311   6.397   6.593   7.059 -0.2305  1.9230  1.7367
  110MOL    H3437312   6.377   6.350   6.999 -2.0333 -1.1379  0.9998
  110MOL    H3537313   6.410   6.181   7.142 -2.5936  0.8438  0.4219
  110MOL    C3637314   6.240   6.240   7.506  0.0042  0.2912  0.2142
  110MOL    C3737315   6.150   6.303   7.631 -0.6049  0.5815 -0.5215
  110MOL    C3837316   5.997   6.297   7.610  0.2754  0.2504  0.3752
  110MOL    C3937317   5.929   6.169   7.603 -0.1653  0.3491  0.5729
  110MOL    C4037318   5.783   6.159   7.595 -0.0482 -0.1388 -0.6041
  110MOL    C4137319   5.712   6.279   7.586 -0.0207 -0.5823  0.4680
  110MOL    C4237320   5.782   6.405   7.578 -0.2300  0.2251 -0.8240
  110MOL    C4337321   5.922   6.415   7.595 -0.1283 -0.0585  0.0270
  110MOL    O4437322   6.189   6.441   7.664  0.7151  1.0911 -0.0977
  110MOL    H4537323   6.231   6.298   7.414  2.2374  1.0074  0.4200
  110MOL    H4637324   6.217   6.139   7.473 -1.1522  0.4051  0.6464
  110MOL    H4737325   6.157   6.241   7.720 -2.0600  0.3395 -0.5518
  110MOL    H4837326   5.995   6.084   7.606  1.8949  1.8886 -0.1058
  110MOL    H4937327   5.734   6.063   7.598  0.3495 -0.3151  0.4701
  110MOL    H5037328   5.604   6.279   7.585 -0.0238 -0.0028 -1.7153
  110MOL    H5137329   5.731   6.498   7.558  3.0540  2.2092 -0.3445
  110MOL    H5237330   5.956   6.516   7.579  0.4856 -0.4183 -1.0147
  110MOL    C5337331   6.311   6.452   7.731  0.5408  0.1716  0.5379
  110MOL    C5437332   6.322   6.580   7.809  0.2017 -0.0827 -0.1522
  110MOL    C5537333   6.292   6.711   7.733 -0.0753 -0.8782  0.2750
  110MOL    C5637334   6.391   6.777   7.668 -0.5055 -0.1829 -0.1692
  110MOL    C5737335   6.369   6.897   7.597  0.2928  0.6656  0.9390
  110MOL    C5837336   6.242   6.947   7.582  0.1302  0.3054  0.0620
  110MOL    C5937337   6.135   6.871   7.638 -0.4106 -0.0674 -0.4481
  110MOL    C6037338   6.161   6.756   7.715  0.2708 -0.6168 -0.3565
  110MOL    O6137339   6.229   6.565   7.911  0.0058  0.7621  0.3049
  110MOL    H6237340   6.329   6.365   7.794 -0.4687 -0.7085 -0.3570
  110MOL    H6337341   6.386   6.455   7.652  0.4566  0.4434  0.4670
  110MOL    H6437342   6.424   6.582   7.849  0.4662  0.9738 -0.8591
  110MOL    H6537343   6.493   6.745   7.681  0.2456  1.5473 -1.6143
  110MOL    H6637344   6.447   6.952   7.546  1.2335 -0.0816  1.5542
  110MOL    H6737345   6.221   7.040   7.531 -0.5782  0.5779  0.8488
  110MOL    H6837346   6.036   6.902   7.607 -0.6080  1.1295  1.3108
  110MOL    H6937347   6.080   6.694   7.750 -1.2101  0.8329 -1.1142
  110MOL    C7037348   6.290   6.534   8.033 -0.1658 -0.9803  0.5291
  110MOL    C7137349   6.190   6.561   0.068  0.2290  0.6674 -0.2948
  110MOL    C7237350   6.066   6.471   0.066 -0.0354  0.0528  0.4526
  110MOL    C7337351   6.000   6.442   0.186 -1.1319 -0.0236  0.8210
  110MOL    C7437352   5.896   6.355   0.196 -0.4711 -1.2006  0.3720
  110MOL    C7537353   5.843   6.297   0.077  0.4723 -0.3681 -0.2065
  110MOL    C7637354   5.902   6.330   8.034 -0.6925 -0.0289 -0.3243
  110MOL    C7737355   6.008   6.422   8.028 -0.1663  0.0982  0.1280
  110MOL    O7837356   6.155   6.700   0.069  0.0417 -0.4874  0.1111
  110MOL    H7937357   6.323   6.431   8.016  1.5834 -0.6499  1.8262
  110MOL    H8037358   6.380   6.591   8.056 -0.4865 -0.5536  0.7070
  110MOL    H8137359   6.244   6.540   0.160  0.0413  0.5560 -0.2092
  110MOL    H8237360   6.036   6.481   0.281  2.6744  0.8584 -0.8830
  110MOL    H8337361   5.848   6.333   0.290  2.6945 -0.4867  2.2224
  110MOL    H8437362   5.759   6.229   0.077 -0.9959  1.3624  2.9937
  110MOL    H8537363   5.874   6.275   7.945  1.6417 -1.5140 -0.1798
  110MOL    H8637364   6.040   6.451   7.928  0.0836 -0.4030  0.0623
  110MOL    C8737365   6.126   6.754   0.198  0.2601  0.0882  0.6781
  110MOL    C8837366   6.107   6.908   0.192 -0.6749 -0.2543 -0.2917
  110MOL    C8937367   6.233   6.981   0.158  0.0627  0.2355  0.1502
  110MOL    C9037368   6.275   7.005   0.027  0.1998 -0.6779 -0.1964
  110MOL    C9137369   6.401   7.060   0.000 -0.5369 -0.9457 -0.4688
  110MOL    C9237370   6.494   7.096   0.104 -0.5024 -0.8619 -0.3663
  110MOL    C9337371   6.456   7.065   0.238  0.6515  0.2614 -0.1104
  110MOL    C9437372   6.329   7.006   0.262 -0.1537  0.3601 -0.0780
  110MOL    O9537373   6.059   6.942   0.316  0.0256  0.5169 -0.3376
  110MOL    H9637374   6.201   6.716   0.268  0.1113  1.4996  1.6230
  110MOL    H9737375   6.034   6.709   0.235 -0.0067 -0.9607 -1.2120
  110MOL    H9837376   6.035   6.938   0.116 -0.0713 -2.5523 -1.8324
  110MOL    H9937377   6.211   6.976   8.024 -1.5222  1.0249  0.4939
  110MOL   H10037378   6.432   7.085   7.979  2.0056  1.3443  0.7878
  110MOL   H10137379   6.592   7.133   0.081 -0.1483 -2.1526 -0.9798
  110MOL   H10237380   6.511   7.097   0.325  0.1753  0.8924 -0.0341
  110MOL   H10337381   6.304   6.987   0.365  1.2370  1.1168  0.4152
  110MOL   C10437382   5.995   7.070   0.322 -0.2579 -0.0469 -0.4347
  110MOL   C10537383   5.958   7.119   0.463 -0.1387  0.0060 -0.4529
  110MOL   C10637384   6.071   7.100   0.563 -0.1083 -0.5422 -0.1888
  110MOL   C10737385   6.050   7.036   0.684  0.4095  0.4172  0.3125
  110MOL   C10837386   6.151   7.039   0.784 -0.1895 -0.3298 -0.1365
  110MOL   C10937387   6.273   7.110   0.764  0.4352  0.4438  0.3602
  110MOL   C11037388   6.286   7.180   0.642  0.1535  0.4303  0.5139
  110MOL   C11137389   6.186   7.174   0.543  0.4501 -0.2491  0.8035
  110MOL   O11237390   5.918   7.256   0.449  0.4431  0.1033 -0.1831
  110MOL   H11337391   6.051   7.145   0.267  1.0030 -0.8382 -0.2395
  110MOL   H11437392   5.902   7.049   0.268 -0.3310  1.9729 -1.1354
  110MOL   H11537393   5.869   7.067   0.498  1.3152 -1.1928  1.6128
  110MOL   H11637394   5.957   6.991   0.714  0.6440  0.4706  1.1463
  110MOL   H11737395   6.141   6.986   0.877 -0.6867 -1.3856 -0.7753
  110MOL   H11837396   6.351   7.095   0.836  0.5754 -0.5899  0.0008
  110MOL   H11937397   6.375   7.238   0.624  0.6324 -0.3241  0.4627
  110MOL   H12037398   6.207   7.235   0.458 -1.3649 -0.5201  0.1291
  110MOL   C12137399   5.828   7.298   0.560  0.4995 -0.2261  0.2115
  110MOL   C12237400   5.821   7.452   0.580  0.5542  0.6219 -0.4167
  110MOL   C12337401   5.722   7.468   0.692  0.8054 -0.0727 -0.0418
  110MOL   C12437402   5.583   7.482   0.672  0.6463 -0.0308  0.2948
  110MOL   C12537403   5.496   7.480   0.783 -0.1931 -0.0781  0.2927
  110MOL   C12637404   5.535   7.443   0.910 -0.4044 -0.2479  0.0877
  110MOL   C12737405   5.677   7.439   0.932  0.1107  0.4422  0.0029
  110MOL   C12837406   5.765   7.453   0.827 -0.0518 -0.5530 -0.3482
  110MOL   O12937407   5.954   7.503   0.617  0.3778 -0.5724  0.0922
  110MOL   H13037408   5.880   7.273   0.653  0.4690  0.2934  0.3657
  110MOL   H13137409   5.727   7.258   0.550  0.4092 -0.2241  1.0877
  110MOL   H13237410   5.779   7.492   0.488  1.7406  0.4533 -1.0419
  110MOL   H13337411   5.549   7.494   0.570  1.2479  1.5515  0.2737
  110MOL   H13437412   5.393   7.496   0.756  0.1116  1.3922 -0.0781
  110MOL   H13537413   5.463   7.430   0.990  0.1479 -0.1412  0.6093
  110MOL   H13637414   5.707   7.415   1.034 -1.0149  0.9470  0.4637
  110MOL   H13737415   5.870   7.456   0.854 -0.2711 -0.5282  0.5078
  110MOL   C13837416   6.038   7.536   0.503 -0.2058  0.3957  0.4931
  110MOL   C13937417   6.171   7.575   0.552  0.0566 -0.1821  0.0612
  110MOL   C14037418   6.274   7.600   0.440  0.2165  0.0045  0.6181
  110MOL   C14137419   6.363   7.506   0.381  0.6092 -0.3589 -0.1821
  110MOL   C14237420   6.445   7.541   0.274  0.1891 -0.2148  0.4142
  110MOL   C14337421   6.430   7.668   0.212  0.1819  0.3499  0.2525
  110MOL   C14437422   6.355   7.772   0.276  0.5511  0.4922 -1.1584
  110MOL   C14537423   6.272   7.731   0.386 -0.7120 -0.4400  0.5141
  110MOL   O14637424   6.163   7.687   0.636 -0.1542 -0.0710  0.0217
  110MOL   H14737425   5.988   7.619   0.455 -0.8341  0.2245  0.8507
  110MOL   H14837426   6.044   7.460   0.425 -0.7920  1.8789 -1.0219
  110MOL   H14937427   6.200   7.482   0.602 -1.2638  0.1698  1.5365
  110MOL   H15037428   6.372   7.405   0.419  1.4083 -0.7735 -1.4679
  110MOL   H15137429   6.497   7.455   0.236 -1.1106 -1.7317  1.9763
  110MOL   H15237430   6.482   7.696   0.122 -0.0253 -1.7778 -0.5551
  110MOL   H15337431   6.347   7.869   0.229  0.0484  0.8839 -0.2703
  110MOL   H15437432   6.219   7.816   0.428 -0.7395  0.7258 -1.8002
  110MOL   C15537433   6.254   7.679   0.747  0.3669 -0.0054 -0.0311
  110MOL   C15637434   6.353   7.800   0.747  0.3748  0.9211 -0.1943
  110MOL   C15737435   6.294   7.928   0.792  0.0511  0.1961 -0.2204
  110MOL   C15837436   6.358   8.008   0.887  0.1827 -1.2353 -0.0964
  110MOL   C15937437   6.307   0.062   0.910  0.4306  0.0139  0.3027
  110MOL   C16037438   6.194   0.111   0.838 -0.8485  0.5923 -0.8460
  110MOL   C16137439   6.128   0.023   0.750  0.3538  0.6395 -0.1525
  110MOL   C16237440   6.174   7.973   0.729 -0.4767  0.6150 -0.2032
  110MOL   O16337441   6.461   7.762   0.830 -0.0327 -0.0872  0.0326
  110MOL   H16437442   6.313   7.588   0.752 -3.9578 -2.9382  0.2225
  110MOL   H16537443   6.184   7.681   0.830  0.1890 -2.0916 -0.1152
  110MOL   H16637444   6.396   7.814   0.648 -0.2809  2.6411 -0.2604
  110MOL   H16737445   6.442   7.976   0.947  0.2824  1.3569  1.1894
  110MOL   H16837446   6.359   0.114   0.989  0.9577  2.4003 -1.5755
  110MOL   H16937447   6.150   0.209   0.841 -0.1074  0.9919 -2.3882
  110MOL   H17037448   6.047   0.062   0.690 -0.2157 -0.5788 -0.1975
  110MOL   H17137449   6.131   7.911   0.653  0.0213 -1.0015  0.7986
  110MOL   C17237450   6.568   7.703   0.774  0.0956 -0.2207 -0.3072
  110MOL   C17337451   6.655   7.638   0.878  1.2158  0.2421 -0.0250
  110MOL   C17437452   6.801   7.626   0.835  0.2871  0.2255  0.5887
  110MOL   C17537453   6.855   7.506   0.786 -0.0004  0.3500 -0.3533
  110MOL   C17637454   6.992   7.504   0.751 -0.1405 -0.0852 -0.6672
  110MOL   C17737455   7.072   7.618   0.763 -0.0940  0.1922  1.0615
  110MOL   C17837456   7.012   7.740   0.794 -0.4690  0.1261 -0.0643
  110MOL   C17937457   6.876   7.745   0.828 -0.3852 -0.6201  0.8088
  110MOL   O18037458   6.598   7.509   0.901 -0.1816  0.1777 -0.3396
  110MOL   H18137459   6.539   7.630   0.699 -1.3169 -0.3417  0.3543
  110MOL   H18237460   6.622   7.780   0.718 -0.6052  0.8274  0.4401
  110MOL   H18337461   6.659   7.703   0.965  1.3237  0.1346  0.0496
  110MOL   H18437462   6.801   7.413   0.785  0.9493 -0.2105 -0.6063
  110MOL   H18537463   7.040   7.409   0.734 -0.7707 -0.8739  1.8791
  110MOL   H18637464   7.177   7.634   0.741 -0.1526  0.8647  1.2800
  110MOL   H18737465   7.067   7.833   0.783  0.0960 -0.3360 -1.2572
  110MOL   H18837466   6.834   7.839   0.858  0.3676  0.0437 -0.1915
  110MOL   C18937467   6.488   7.502   0.994 -0.1629 -0.1076 -0.2250
  110MOL   C19037468   6.436   7.356   1.006 -0.3882 -0.5647  0.0116
  110MOL   C19137469   6.295   7.359   1.058 -1.0638 -0.2753 -0.0628
  110MOL   C19237470   6.181   7.355   0.976 -0.4186  0.9901 -0.3583
  110MOL   C19337471   6.053   7.345   1.032 -0.0967  0.4908 -0.4412
  110MOL   C19437472   6.043   7.347   1.173 -0.5755 -0.4571 -0.2061
  110MOL   C19537473   6.149   7.368   1.261 -0.4479  0.4539 -0.1521
  110MOL   C19637474   6.276   7.374   1.197 -0.7965  0.4350 -0.2836
  110MOL   O19737475   6.518   7.265   1.083  0.0304 -0.3763  0.3889
  110MOL   H19837476   6.514   7.550   1.088  1.0922  0.2350 -0.7265
  110MOL   H19937477   6.408   7.562   0.951 -0.4781 -1.0381 -0.9649
  110MOL   H20037478   6.426   7.311   0.907  2.1686  1.0177 -1.0100
  110MOL   H20137479   6.183   7.347   0.868 -4.3985 -0.9759 -0.3771
  110MOL   H20237480   5.969   7.334   0.965  0.1874 -0.9179 -0.5715
  110MOL   H20337481   5.944   7.338   1.215  0.2365  1.1917  2.1948
  110MOL   H20437482   6.135   7.368   1.368  1.0627 -0.1153  0.0688
  110MOL   H20537483   6.364   7.395   1.256 -0.1613 -0.2781 -0.9651
  110MOL   C20637484   6.608   7.178   1.016 -0.0374 -0.0437 -0.2846
  110MOL   C20737485   6.725   7.141   1.107 -0.9472 -0.0119 -0.3976
  110MOL   C20837486   6.829   7.079   1.015  0.2027 -0.1961  0.3451
  110MOL   C20937487   6.816   6.940   0.979 -0.3364 -0.0233 -0.1008
  110MOL   C21037488   6.917   6.881   0.901  0.3726  0.1966  0.6113
  110MOL   C21137489   7.002   6.971   0.828 -0.1660  0.1502  0.3627
  110MOL   C21237490   7.012   7.111   0.858 -0.3021 -0.1043 -0.8755
  110MOL   C21337491   6.923   7.162   0.957 -0.7896  0.4946  0.4842
  110MOL   O21437492   6.693   7.039   1.198  0.5931  0.0436 -0.2899
  110MOL   H21537493   6.560   7.090   0.972  2.5005 -0.6573 -1.9352
  110MOL   H21637494   6.637   7.225   0.922 -1.5073 -1.3934 -1.4594
  110MOL   H21737495   6.776   7.227   1.150 -0.7354  0.5092 -1.6700
  110MOL   H21837496   6.735   6.887   1.027  1.0747 -1.6686  0.5365
  110MOL   H21937497   6.928   6.776   0.878  2.9367  0.1538  1.7659
  110MOL   H22037498   7.070   6.919   0.763 -1.4783 -2.1197  0.7506
  110MOL   H22137499   7.085   7.169   0.803  1.6597 -2.4644 -0.8605
  110MOL   H22237500   6.924   7.265   0.991 -1.1900 -0.0203  2.1017
  110MOL   C22337501   6.657   7.077   1.326  1.1270 -0.4377  0.1105
  110MOL   C22437502   6.566   6.973   1.392 -0.2526 -0.9620 -0.0114
  110MOL   C22537503   6.434   6.970   1.314 -0.1565  0.5160  0.6826
  110MOL   C22637504   6.320   7.035   1.368  0.5649  0.8015 -0.0928
  110MOL   C22737505   6.201   7.039   1.299 -0.2265  0.1886 -0.4578
  110MOL   C22837506   6.202   6.981   1.171 -0.2006  0.0416  0.5452
  110MOL   C22937507   6.315   6.919   1.110 -1.1042  0.1667  0.1940
  110MOL   C23037508   6.428   6.905   1.189 -0.2323 -0.5244  0.3563
  110MOL   O23137509   6.633   6.856   1.406  0.1474  0.3235  0.2380
  110MOL   H23237510   6.753   7.089   1.377  0.5748 -0.3688  1.1544
  110MOL   H23337511   6.600   7.170   1.325 -0.9398 -1.6586 -2.1696
  110MOL   H23437512   6.546   6.999   1.496 -1.1773  1.3058 -0.7275
  110MOL   H23537513   6.326   7.100   1.455 -1.6917  0.0637  0.6618
  110MOL   H23637514   6.114   7.085   1.344 -1.5903 -0.6814 -2.1192
  110MOL   H23737515   6.104   6.976   1.124 -0.0081 -0.5778  0.2063
  110MOL   H23837516   6.309   6.873   1.012 -1.2346 -1.1316  0.8041
  110MOL   H23937517   6.519   6.864   1.148 -0.4188 -0.1768 -0.4160
  110MOL   C24037518   6.565   6.743   1.459 -0.1525  0.7318  0.7111
  110MOL   C24137519   6.665   6.628   1.475 -1.2384  1.2675 -0.6749
  110MOL   C24237520   6.730   6.588   1.349 -0.0098  0.3276  0.4368
  110MOL   C24337521   6.657   6.523   1.248 -0.5887  0.2295  0.0550
  110MOL   C24437522   6.710   6.483   1.125 -0.2587 -0.3097  0.2708
  110MOL   C24537523   6.842   6.515   1.097 -0.3787  0.0116  0.2182
  110MOL   C24637524   6.918   6.590   1.194 -0.3065  1.1555 -0.0339
  110MOL   C24737525   6.864   6.621   1.318 -0.3379  0.4815  0.5256
  110MOL   O24837526   6.757   6.643   1.579  0.4531 -0.1585  0.1363
  110MOL   H24937527   6.516   6.766   1.553  0.6594 -0.8707  1.5416
  110MOL   H25037528   6.493   6.711   1.384  0.1289 -1.3432  1.2932
  110MOL   H25137529   6.603   6.541   1.493 -0.0505  0.5160 -0.1656
  110MOL   H25237530   6.550   6.509   1.257 -0.9550  1.7598 -1.5221
  110MOL   H25337531   6.648   6.440   1.048 -1.8492  2.1034  0.1548
  110MOL   H25437532   6.898   6.479   1.011  0.3308  0.7648  0.3601
  110MOL   H25537533   7.017   6.618   1.161 -0.2222  1.1653  0.2313
  110MOL   H25637534   6.931   6.675   1.384 -0.5859  0.1282  1.0643
  110MOL   C25737535   6.802   6.522   1.634 -0.3761  0.2562 -0.4661
  110MOL   C25837536   6.883   6.572   1.750 -0.0177  1.1095 -0.0235
  110MOL   C25937537   6.966   6.463   1.805  0.2875 -0.4572 -0.7777
  110MOL   C26037538   7.106   6.464   1.807  0.4239 -0.3381  0.2482
  110MOL   C26137539   7.177   6.360   1.868  0.3736 -0.2543 -0.1949
  110MOL   C26237540   7.115   6.249   1.924  0.0467 -0.5000 -0.1510
  110MOL   C26337541   6.977   6.234   1.905 -0.3543  0.6714  0.2042
  110MOL   C26437542   6.901   6.340   1.851 -0.3544 -0.5458  0.0592
  110MOL   O26537543   6.804   6.636   1.850 -0.4133  0.4295  0.3153
  110MOL   H26637544   6.873   6.468   1.572 -0.6031 -1.1946  0.4990
  110MOL   H26737545   6.729   6.446   1.663  0.4889 -0.7294 -0.8240
  110MOL   H26837546   6.943   6.654   1.711  0.5934  0.6464 -0.0484
  110MOL   H26937547   7.166   6.543   1.764 -0.8754  0.0770 -0.8691
  110MOL   H27037548   7.281   6.388   1.883  0.4196  0.2255 -1.3263
  110MOL   H27137549   7.171   6.171   1.974 -1.1324 -1.1737  0.1328
  110MOL   H27237550   6.916   6.150   1.935 -0.6255  1.1316  0.9737
  110MOL   H27337551   6.793   6.338   1.856 -0.3877  2.2140  1.2751
  110MOL   C27437552   6.871   6.692   1.970 -0.2413 -0.9007  0.1572
  110MOL   C27537553   6.819   6.835   2.013  0.5428  0.4856 -0.9548
  110MOL   C27637554   6.857   6.948   1.920 -0.0151 -0.2529  0.0645
  110MOL   C27737555   6.914   7.064   1.976  0.3425  0.3216 -0.0528
  110MOL   C27837556   6.933   7.180   1.905  0.0878  0.4746  0.0168
  110MOL   C27937557   6.897   7.182   1.769  0.5894  0.3536 -0.5970
  110MOL   C28037558   6.838   7.066   1.702  0.4247  0.1323 -1.1191
  110MOL   C28137559   6.822   6.950   1.782 -0.2607 -0.2169  0.1072
  110MOL   O28237560   6.873   6.858   2.145  0.2265  0.7384  0.8243
  110MOL   H28337561   6.865   6.618   2.049  1.4962  0.4583  1.6031
  110MOL   H28437562   6.979   6.702   1.960 -0.4360 -1.2662 -2.6875
  110MOL   H28537563   6.710   6.834   2.021  0.5903  0.2914 -0.3137
  110MOL   H28637564   6.942   7.065   2.081  1.4121  0.8475 -0.3303
  110MOL   H28737565   6.965   7.273   1.949 -0.5305  0.5149  0.3866
  110MOL   H28837566   6.894   7.271   1.709  1.0190  0.4465 -0.4831
  110MOL   H28937567   6.800   7.066   1.601  0.0833  3.5176 -1.0706
  110MOL   H29037568   6.773   6.863   1.739  0.3514 -0.4343 -0.1480
  110MOL   C29137569   6.774   6.823   2.243 -0.1043  0.2640 -0.3066
  110MOL   C29237570   6.834   6.827   2.390  0.1293 -0.5413  0.1717
  110MOL   C29337571   6.733   6.825   2.510 -0.2832  0.3616 -0.2413
  110MOL   C29437572   6.660   6.935   2.547  0.1628 -0.1529  0.5226
  110MOL   C29537573   6.582   6.927   2.662  0.2804 -0.0604  0.4254
  110MOL   C29637574   6.555   6.807   2.735 -0.1507  0.0967  0.1857
  110MOL   C29737575   6.621   6.690   2.691  0.7451 -0.5746 -0.1670
  110MOL   C29837576   6.703   6.700   2.576  0.1089 -0.1311 -0.5724
  110MOL   O29937577   6.919   6.714   2.379  0.0380 -0.3458 -0.0134
  110MOL   H30037578   6.728   6.726   2.222  0.7086  0.1826 -1.7120
  110MOL   H30137579   6.692   6.895   2.234 -1.1785 -0.6638  1.6358
  110MOL   H30237580   6.896   6.912   2.416 -1.3380  0.3848  0.6927
  110MOL   H30337581   6.666   7.024   2.485 -0.2807 -0.0069  0.6879
  110MOL   H30437582   6.522   7.009   2.699 -0.7663 -0.3257 -0.6717
  110MOL   H30537583   6.484   6.798   2.816 -0.6107 -1.8340 -0.4073
  110MOL   H30637584   6.596   6.594   2.735 -0.6506  0.0301  0.3736
  110MOL   H30737585   6.755   6.614   2.537 -0.9699 -2.0938  2.2205
  110MOL   C30837586   7.056   6.750   2.391 -0.0826  0.3145  0.4380
  110MOL   C30937587   7.138   6.623   2.353 -0.2637  0.4044  0.0956
  110MOL   C31037588   7.289   6.651   2.357  0.1203  0.1707 -1.1221
  110MOL   C31137589   7.349   6.698   2.481 -0.5732 -0.5718  0.0792
  110MOL   C31237590   7.484   6.741   2.490 -0.0497 -0.2264 -0.3430
  110MOL   C31337591   7.568   6.728   2.378  0.8279  0.1711 -0.2373
  110MOL   C31437592   7.513   6.664   2.260  0.0163 -0.1246 -0.3493
  110MOL   C31537593   7.376   6.632   2.248 -0.5706 -0.3158  0.7569
  110MOL   O31637594   7.106   6.521   2.454  0.3611 -0.0925 -0.4849
  110MOL   H31737595   7.083   6.784   2.490  0.3267  2.1012 -0.2694
  110MOL   H31837596   7.076   6.826   2.315  0.5041 -1.2876 -1.0581
  110MOL   H31937597   7.110   6.589   2.253 -0.8737  1.1314  0.0127
  110MOL   H32037598   7.276   6.706   2.560 -1.2930  3.2115 -0.9080
  110MOL   H32137599   7.522   6.791   2.578 -0.7378  2.2771 -1.4519
  110MOL   H32237600   7.671   6.759   2.378  1.0679 -0.5455  1.4515
  110MOL   H32337601   7.579   6.660   2.175 -0.0835  0.9604 -0.4843
  110MOL   H32437602   7.330   6.607   2.154  1.7579 -0.0032 -0.5064
  110MOL   C32537603   7.027   6.416   2.404 -0.8516 -0.2319 -0.2795
  110MOL   C32637604   6.983   6.311   2.508  0.6620 -0.0564  0.1205
  110MOL   C32737605   7.092   6.251   2.592 -0.2153  0.0068  0.1936
  110MOL   C32837606   7.139   6.316   2.708  0.1947  0.2223 -0.2096
  110MOL   C32937607   7.254   6.263   2.774  0.1385  0.1344 -0.1030
  110MOL   C33037608   7.316   6.146   2.728  0.5537 -0.3699  0.4961
  110MOL   C33137609   7.268   6.088   2.611  0.5167 -0.1914 -0.0381
  110MOL   C33237610   7.156   6.134   2.545  0.4695 -0.1220 -0.1247
  110MOL   O33337611   6.884   6.378   2.586 -0.7685 -0.4159 -0.3347
  110MOL   H33437612   7.082   6.375   2.320 -1.6160 -2.4487  0.2608
  110MOL   H33537613   6.942   6.455   2.347 -0.1041  1.1973 -0.4495
  110MOL   H33637614   6.935   6.227   2.457 -1.2142  0.6042  0.7621
  110MOL   H33737615   7.079   6.395   2.751 -2.2624 -2.3265  1.1222
  110MOL   H33837616   7.268   6.299   2.875 -0.6585 -1.4593  0.5888
  110MOL   H33937617   7.403   6.111   2.783 -0.1001 -1.4757  0.8398
  110MOL   H34037618   7.311   5.995   2.577 -0.9566 -0.8008 -0.2583
  110MOL   H34137619   7.122   6.074   2.462 -0.3602  0.5173 -0.2552
  110MOL   H34237620   6.925   6.458   2.614  1.7343 -1.6858 -0.2569
  111MOL     C137621   4.445   6.065   7.390  0.1452  0.3131  0.4244
  111MOL     C237622   4.437   5.990   7.262 -0.3688  0.1298  0.1679
  111MOL     C337623   4.454   5.847   7.296  0.2002 -0.1013  0.8555
  111MOL     C437624   4.580   5.793   7.317  0.3414 -0.0796 -0.7399
  111MOL     C537625   4.596   5.652   7.343  0.1066 -0.4242  0.3679
  111MOL     C637626   4.490   5.564   7.343  0.8625 -0.0971 -0.5912
  111MOL     C737627   4.360   5.618   7.322 -0.7057  0.4999 -0.2111
  111MOL     C837628   4.344   5.757   7.298  0.2022  0.3108  0.6869
  111MOL     O937629   4.544   6.048   7.191 -0.0032 -0.0370 -0.6699
  111MOL    H1037630   4.354   6.045   7.446 -0.0251  0.3244  0.1543
  111MOL    H1137631   4.540   6.057   7.442 -0.1199 -0.2262  0.8306
  111MOL    H1237632   4.339   6.022   7.227 -0.7785 -0.7761  0.4857
  111MOL    H1337633   4.669   5.854   7.316 -0.7780  1.5701 -1.8041
  111MOL    H1437634   4.691   5.606   7.363  0.6243  0.8700  0.9377
  111MOL    H1537635   4.519   5.460   7.346 -0.1422 -0.4004 -1.0433
  111MOL    H1637636   4.280   5.546   7.310 -0.0302 -0.5229  1.2771
  111MOL    H1737637   4.246   5.793   7.271  0.6220  0.2228 -0.9996
  111MOL    H1837638   4.443   6.170   7.364  0.0436  0.3324  0.5104
  111MOL    C1937639   4.547   5.996   7.059 -1.0067  0.2209  0.3633
  111MOL    C2037640   4.533   6.106   6.953  0.4505 -0.7548  0.3756
  111MOL    C2137641   4.640   6.213   6.958  0.4279  0.0644  0.3700
  111MOL    C2237642   4.739   6.215   6.858  0.4445 -0.3207 -0.5989
  111MOL    C2337643   4.843   6.309   6.860  0.5973  0.1293 -0.1267
  111MOL    C2437644   4.852   6.404   6.968  0.1603  0.4501  0.0657
  111MOL    C2537645   4.762   6.393   7.071  0.3585  0.5447  0.8024
  111MOL    C2637646   4.652   6.307   7.067  0.0133  0.3194 -0.3869
  111MOL    O2737647   4.395   6.160   6.972 -0.2518 -0.7695  0.1792
  111MOL    H2837648   4.645   5.955   7.037 -1.1682  0.4095 -0.7474
  111MOL    H2937649   4.472   5.919   7.041 -0.8413  0.1662 -0.1118
  111MOL    H3037650   4.527   6.055   6.857  0.2674 -1.8302  0.9450
  111MOL    H3137651   4.730   6.154   6.769  1.1887  0.9469 -1.5620
  111MOL    H3237652   4.910   6.315   6.776  0.5418  2.5656 -0.0527
  111MOL    H3337653   4.922   6.486   6.966  0.8116 -0.1304 -1.8163
  111MOL    H3437654   4.788   6.464   7.147  1.1699  0.1791  0.8690
  111MOL    H3537655   4.578   6.305   7.145 -1.5101 -1.2944 -1.8525
  111MOL    C3637656   4.347   6.237   6.862 -0.1805  0.5279  0.7462
  111MOL    C3737657   4.252   6.354   6.910 -0.2402 -0.3438 -0.2495
  111MOL    C3837658   4.308   6.433   7.030 -0.0123  0.1454  0.5559
  111MOL    C3937659   4.278   6.385   7.159 -0.0236  0.3795  0.2780
  111MOL    C4037660   4.314   6.455   7.273  0.2796 -0.1309 -0.3150
  111MOL    C4137661   4.401   6.566   7.259 -0.2435  0.9083  0.0638
  111MOL    C4237662   4.443   6.604   7.130  0.0643 -0.4128  0.1201
  111MOL    C4337663   4.397   6.544   7.015  0.5728  0.0961  0.3234
  111MOL    O4437664   4.124   6.300   6.934  0.0762  0.2480 -0.1019
  111MOL    H4537665   4.429   6.283   6.808 -0.0952  0.6480  0.9783
  111MOL    H4637666   4.300   6.178   6.784  1.5719  1.8962 -1.3891
  111MOL    H4737667   4.239   6.420   6.825 -0.4306 -0.9078 -0.6604
  111MOL    H4837668   4.214   6.299   7.172 -0.3034  0.6945  1.0475
  111MOL    H4937669   4.282   6.415   7.369  1.5856 -2.5445 -0.8499
  111MOL    H5037670   4.424   6.630   7.342 -1.4693  0.8981  0.4133
  111MOL    H5137671   4.517   6.682   7.118  1.5479 -1.5459  1.6684
  111MOL    H5237672   4.424   6.593   6.923  0.5595  0.4064  0.4831
  111MOL    C5337673   4.019   6.395   6.933  0.4905 -0.1359  0.0039
  111MOL    C5437674   3.898   6.332   7.006 -0.3268  0.9379  1.2483
  111MOL    C5537675   3.776   6.420   7.001  0.2422 -0.1976  0.3557
  111MOL    C5637676   3.684   6.421   6.890 -0.1930 -0.3902  0.2448
  111MOL    C5737677   3.594   6.528   6.879 -0.1330  0.1264 -0.2032
  111MOL    C5837678   3.565   6.606   6.991 -0.6876  0.2597  0.6948
  111MOL    C5937679   3.636   6.586   7.107 -0.1161 -0.2710  0.0503
  111MOL    C6037680   3.742   6.498   7.112  0.1380 -0.3391 -0.2943
  111MOL    O6137681   3.860   6.207   6.942  0.1684  0.2326 -0.1321
  111MOL    H6237682   4.050   6.479   6.995  1.9878 -0.0385 -0.8611
  111MOL    H6337683   3.993   6.433   6.834  2.4219  0.1877 -0.3904
  111MOL    H6437684   3.936   6.300   7.103  0.2676  0.8870  1.0016
  111MOL    H6537685   3.709   6.350   6.813 -1.1728 -0.3973 -0.0772
  111MOL    H6637686   3.533   6.543   6.791 -1.2450 -0.5261  0.4448
  111MOL    H6737687   3.492   6.686   6.982 -0.9361 -0.2354 -2.1295
  111MOL    H6837688   3.615   6.653   7.189  0.8955 -2.2234  1.9958
  111MOL    H6937689   3.800   6.488   7.203 -0.4735 -0.6241  0.0678
  111MOL    C7037690   3.792   6.124   7.036 -0.2846 -0.4797 -0.5205
  111MOL    C7137691   3.893   6.033   7.113  0.4203 -0.1523 -0.2089
  111MOL    C7237692   3.975   5.941   7.025  0.1251  0.2009  0.1869
  111MOL    C7337693   4.116   5.954   7.028  0.2071 -0.3674  1.4518
  111MOL    C7437694   4.193   5.880   6.934  0.1874 -0.2964  0.1351
  111MOL    C7537695   4.132   5.788   6.855 -0.4232  0.3775 -0.2103
  111MOL    C7637696   3.993   5.777   6.848  0.1799 -0.5928 -0.6955
  111MOL    C7737697   3.913   5.844   6.943 -0.3460 -0.3529 -0.2674
  111MOL    O7837698   3.831   5.956   7.212 -0.0055  0.3012  0.0167
  111MOL    H7937699   3.736   6.185   7.108  1.1233 -1.3832  1.3722
  111MOL    H8037700   3.722   6.068   6.974 -1.7543  1.5467 -0.7452
  111MOL    H8137701   3.959   6.106   7.161  0.9430  0.0434 -1.1996
  111MOL    H8237702   4.160   6.035   7.084  1.4761 -1.2326  1.7313
  111MOL    H8337703   4.300   5.898   6.927 -0.1548  2.2186  0.6432
  111MOL    H8437704   4.197   5.740   6.783  0.8874  1.9237 -0.0919
  111MOL    H8537705   3.950   5.708   6.777  1.2752  0.3947 -2.3712
  111MOL    H8637706   3.810   5.817   6.964 -0.1312 -1.4756 -0.6136
  111MOL    C8737707   3.889   5.943   7.339  0.7043 -0.2431 -0.3160
  111MOL    C8837708   3.992   5.827   7.345  0.3048 -0.5029  0.2998
  111MOL    C8937709   3.928   5.689   7.316  0.0397  0.2780  0.2024
  111MOL    C9037710   3.950   5.619   7.201 -0.1220  0.1890 -0.7656
  111MOL    C9137711   3.891   5.489   7.185 -0.3925 -0.8386  0.0771
  111MOL    C9237712   3.810   5.437   7.283  0.3485  0.6452 -0.0702
  111MOL    C9337713   3.779   5.510   7.397  0.0128 -0.1059 -0.5529
  111MOL    C9437714   3.844   5.630   7.416 -0.2576  0.3011  0.1015
  111MOL    O9537715   4.081   5.834   7.460  0.1991  0.3001 -0.0605
  111MOL    H9637716   3.818   5.934   7.422  1.9351  1.8853  1.0124
  111MOL    H9737717   3.942   6.037   7.356 -1.4888  1.4689 -2.4869
  111MOL    H9837718   4.054   5.853   7.259  0.1869  0.5950  0.5321
  111MOL    H9937719   4.006   5.670   7.124  1.3997 -2.8559 -1.7325
  111MOL   H10037720   3.915   5.443   7.091  1.8114 -0.5287  0.4487
  111MOL   H10137721   3.765   5.339   7.272 -1.5051  1.5247 -0.5680
  111MOL   H10237722   3.721   5.467   7.477  2.9650 -2.8479  0.2316
  111MOL   H10337723   3.817   5.691   7.501 -4.8751  3.2682 -3.2541
  111MOL   C10437724   4.038   5.882   7.588 -0.1720  0.2054  0.1668
  111MOL   C10537725   4.162   5.902   7.671  0.0787  0.6982 -0.3676
  111MOL   C10637726   4.141   5.985   7.796 -0.5191 -0.7346 -0.0440
  111MOL   C10737727   4.209   6.112   7.807 -0.1032 -0.9564 -0.5806
  111MOL   C10837728   4.188   6.187   7.919 -0.7268 -0.1278 -0.0648
  111MOL   C10937729   4.108   6.138   8.023  0.2355 -0.7054 -0.2892
  111MOL   C11037730   4.052   6.008   8.018  0.3757 -0.3938 -0.4819
  111MOL   C11137731   4.059   5.934   7.903  0.5327 -0.4496 -0.4161
  111MOL   O11237732   4.213   5.770   7.703  0.3645 -0.3641 -0.3939
  111MOL   H11337733   3.999   5.982   7.571  0.8268  0.9353  2.1275
  111MOL   H11437734   3.961   5.815   7.627 -1.7562  1.3637 -0.9156
  111MOL   H11537735   4.237   5.957   7.616  0.0370  3.4014  2.1641
  111MOL   H11637736   4.272   6.153   7.729  1.7759 -2.0983  0.2718
  111MOL   H11737737   4.240   6.278   7.941 -1.8339  0.7094 -0.8196
  111MOL   H11837738   4.096   6.192   0.036  0.4433  1.3924 -1.4475
  111MOL   H11937739   3.992   5.976   0.022  0.5444 -0.0074 -0.2110
  111MOL   H12037740   4.026   5.832   7.894  0.7497 -0.4859 -0.7979
  111MOL   C12137741   4.347   5.743   7.665  0.2984  0.1830  0.2938
  111MOL   C12237742   4.443   5.802   7.771 -0.0810  0.0981  0.1647
  111MOL   C12337743   4.465   5.707   7.885 -0.4487 -0.0339 -0.0492
  111MOL   C12437744   4.357   5.689   7.981  0.0978 -0.3666 -0.2396
  111MOL   C12537745   4.381   5.602   0.009  0.2981 -0.6483  0.2312
  111MOL   C12637746   4.501   5.529   0.023  0.8381 -0.1737  0.2661
  111MOL   C12737747   4.606   5.543   8.004 -0.3483  0.1085 -0.3980
  111MOL   C12837748   4.585   5.631   7.894  0.1339 -0.0688 -0.9916
  111MOL   O12937749   4.562   5.819   7.690 -0.0003  0.0038 -0.4731
  111MOL   H13037750   4.376   5.786   7.569 -0.8530  1.4116  0.4868
  111MOL   H13137751   4.377   5.638   7.661  0.7508  0.3331 -0.1478
  111MOL   H13237752   4.400   5.895   7.807  0.8629  0.5366  0.1791
  111MOL   H13337753   4.265   5.744   7.968  0.2498  0.2640  1.2755
  111MOL   H13437754   4.312   5.594   0.092  1.1064  1.3862  1.1138
  111MOL   H13537755   4.505   5.467   0.112  3.3458 -1.5181 -0.7380
  111MOL   H13637756   4.701   5.494   8.016 -0.6510 -0.5668 -0.7371
  111MOL   H13737757   4.658   5.649   7.816 -1.0355 -1.7108 -2.5158
  111MOL   C13837758   4.639   5.931   7.734  0.2262  0.2850 -0.2081
  111MOL   C13937759   4.790   5.926   7.702 -0.4007  0.2967  0.2972
  111MOL   C14037760   4.852   6.073   7.699 -0.0907 -0.1906 -0.1151
  111MOL   C14137761   4.884   6.137   7.578  0.1890  0.7720  0.4455
  111MOL   C14237762   4.950   6.259   7.570  0.1496 -0.1150  0.1018
  111MOL   C14337763   4.992   6.324   7.690 -0.6341  0.0840  0.2118
  111MOL   C14437764   4.967   6.267   7.812 -0.1170 -0.4924  0.5885
  111MOL   C14537765   4.905   6.135   7.813 -0.2583 -0.3980  0.1973
  111MOL   O14637766   4.844   5.849   7.811 -0.1140 -0.6952  0.0343
  111MOL   H14737767   4.617   5.944   7.840  0.5654 -2.7731  0.3071
  111MOL   H14837768   4.590   6.010   7.679  0.7227  1.0310  0.4110
  111MOL   H14937769   4.804   5.872   7.608 -0.4822 -1.4318  1.2440
  111MOL   H15037770   4.855   6.092   7.484  1.5099  0.8603 -0.0088
  111MOL   H15137771   4.972   6.303   7.474 -2.9704  0.2391 -0.5043
  111MOL   H15237772   5.040   6.421   7.695 -0.2765  0.0534 -1.9109
  111MOL   H15337773   4.981   6.315   7.908 -0.1114  1.0812 -0.1856
  111MOL   H15437774   4.888   6.088   7.909  0.0345  0.3962  0.6492
  111MOL   C15537775   4.984   5.823   7.796 -0.0130 -0.6604  0.6816
  111MOL   C15637776   5.031   5.761   7.935  0.4298  0.1941 -0.6535
  111MOL   C15737777   5.016   5.858   8.047 -0.3490 -1.1933  0.4726
  111MOL   C15837778   5.132   5.930   0.016  0.2493 -0.3219  0.2033
  111MOL   C15937779   5.107   6.022   0.125 -0.0863  0.1951  0.4547
  111MOL   C16037780   4.980   6.048   0.175  0.3728 -0.3572  0.5850
  111MOL   C16137781   4.874   5.973   0.129  0.3229  0.0614 -0.6825
  111MOL   C16237782   4.888   5.887   0.023  0.3527 -0.8488  0.3776
  111MOL   O16337783   4.957   5.640   7.949 -0.5386 -0.1382  0.4243
  111MOL   H16437784   5.041   5.913   7.774  0.3338 -0.5642  1.9323
  111MOL   H16537785   5.000   5.760   7.708 -1.6521 -0.8457  0.5094
  111MOL   H16637786   5.135   5.730   7.929  0.7781  1.3618 -0.7599
  111MOL   H16737787   5.233   5.906   8.065 -0.8665 -1.9330 -2.3555
  111MOL   H16837788   5.196   6.072   0.160  1.3550 -0.4205 -2.1815
  111MOL   H16937789   4.962   6.118   0.255 -1.5184 -0.9543  0.6937
  111MOL   H17037790   4.775   5.981   0.172  0.6261  1.5793 -0.2682
  111MOL   H17137791   4.803   5.837   8.060  0.9046 -0.7710 -0.8144
  111MOL   C17237792   5.015   5.543   8.043 -0.0530 -0.6457  0.0225
  111MOL   C17337793   5.092   5.435   7.959 -0.1709  1.1620 -0.2768
  111MOL   C17437794   5.104   5.308   8.040  0.3778  0.5073  0.1513
  111MOL   C17537795   5.224   5.279   0.025  0.5292 -0.8043 -0.7806
  111MOL   C17637796   5.236   5.158   0.102 -0.0281 -0.1128  0.5410
  111MOL   C17737797   5.127   5.072   0.123 -0.3091  0.2866 -1.1631
  111MOL   C17837798   5.005   5.102   0.053  0.4652  0.3906 -0.5316
  111MOL   C17937799   5.001   5.214   8.050 -0.6009 -0.2086  0.5899
  111MOL   O18037800   5.217   5.475   7.909 -0.4724 -0.6821  0.2148
  111MOL   H18137801   5.083   5.574   0.043 -0.5046  0.6870 -0.0880
  111MOL   H18237802   4.921   5.505   0.003 -0.4819 -0.4088 -0.7451
  111MOL   H18337803   5.035   5.419   7.868  0.8759  1.6649 -1.0363
  111MOL   H18437804   5.302   5.350   0.002  0.2241 -0.2977 -0.2673
  111MOL   H18537805   5.329   5.138   0.153  1.1352  1.8130 -0.7412
  111MOL   H18637806   5.135   4.989   0.192  0.4105 -0.1686 -1.7754
  111MOL   H18737807   4.918   5.040   0.068 -0.9106  1.7701 -2.5954
  111MOL   H18837808   4.903   5.239   8.010 -1.0159 -0.9842  1.1118
  111MOL   C18937809   5.263   5.402   7.798 -0.4780 -0.3560  0.0488
  111MOL   C19037810   5.414   5.425   7.768 -0.5987  0.4640 -0.2794
  111MOL   C19137811   5.511   5.402   7.878 -0.6328 -0.0957 -0.4592
  111MOL   C19237812   5.586   5.284   7.885  0.7344 -0.3146  0.2230
  111MOL   C19337813   5.678   5.265   7.988  0.5407 -0.3395 -0.3129
  111MOL   C19437814   5.700   5.365   8.078  0.3086  0.1801  0.5565
  111MOL   C19537815   5.629   5.486   8.072  0.2743  0.2969  0.1468
  111MOL   C19637816   5.531   5.505   7.972 -0.5503 -0.7839 -0.6301
  111MOL   O19737817   5.438   5.553   7.715  1.0046  0.2522 -0.8756
  111MOL   H19837818   5.238   5.296   7.806  0.9471 -0.9051 -2.1937
  111MOL   H19937819   5.208   5.441   7.712 -2.0163  0.3931  1.3441
  111MOL   H20037820   5.436   5.354   7.688  1.4599  0.8057 -0.0395
  111MOL   H20137821   5.571   5.205   7.814  0.1683  1.9124 -2.1936
  111MOL   H20237822   5.746   5.181   7.988  2.5076  1.1829 -2.5426
  111MOL   H20337823   5.769   5.345   0.078  0.1760  0.4078  0.7283
  111MOL   H20437824   5.654   5.571   0.054  0.4119  0.6332 -0.3706
  111MOL   H20537825   5.466   5.591   7.973 -1.1615 -1.2537  1.2758
  111MOL   C20637826   5.507   5.570   7.592  0.1777 -0.0197 -0.3958
  111MOL   C20737827   5.592   5.700   7.573 -0.0712 -0.5343 -0.2403
  111MOL   C20837828   5.511   5.831   7.587  0.2566 -0.7332 -0.4669
  111MOL   C20937829   5.489   5.924   7.484 -0.0730 -0.7585 -0.4151
  111MOL   C21037830   5.407   6.038   7.506 -0.1812 -0.2919 -0.1534
  111MOL   C21137831   5.347   6.053   7.634  0.0505 -0.0225  0.4534
  111MOL   C21237832   5.365   5.961   7.740  0.2587  0.6501  0.0650
  111MOL   C21337833   5.455   5.857   7.713  0.5142 -0.4702  0.2559
  111MOL   O21437834   5.644   5.678   7.437 -0.6206  0.3144  0.4753
  111MOL   H21537835   5.564   5.480   7.567  2.9213  2.0075 -1.6748
  111MOL   H21637836   5.424   5.570   7.522 -0.3916  0.4200  0.2667
  111MOL   H21737837   5.673   5.699   7.646 -0.7548 -1.1422  0.5229
  111MOL   H21837838   5.522   5.900   7.385 -2.9697  0.2814 -1.6861
  111MOL   H21937839   5.397   6.126   7.445 -0.1393  0.1679  0.5033
  111MOL   H22037840   5.283   6.139   7.644  0.4037  0.4554 -1.2111
  111MOL   H22137841   5.321   5.969   7.838  1.7784 -3.1327  1.1484
  111MOL   H22237842   5.479   5.784   7.789  2.5020  0.7358  0.8179
  111MOL   C22337843   5.783   5.707   7.428 -0.1524  0.7807 -0.4113
  111MOL   C22437844   5.827   5.736   7.281 -0.2103  1.2753 -0.1667
  111MOL   C22537845   5.973   5.792   7.265  0.1019 -0.3844 -0.1024
  111MOL   C22637846   5.990   5.909   7.191 -0.3833 -0.8804 -0.3783
  111MOL   C22737847   6.117   5.963   7.178 -0.1067 -0.8549 -0.0268
  111MOL   C22837848   6.231   5.906   7.233  0.2103  0.8425  0.2291
  111MOL   C22937849   6.216   5.796   7.327  0.3589  0.0858 -0.3015
  111MOL   C23037850   6.090   5.733   7.330  0.1721 -0.7020 -0.0744
  111MOL   O23137851   5.805   5.629   7.197  0.0245  0.2844  0.7821
  111MOL   H23237852   5.799   5.800   7.483 -0.2699  0.0564  0.8635
  111MOL   H23337853   5.834   5.623   7.475  1.0673  0.3232 -2.4524
  111MOL   H23437854   5.763   5.819   7.250 -1.5890 -0.2880 -1.5467
  111MOL   H23537855   5.913   5.975   7.156  0.3060 -0.2674 -0.7528
  111MOL   H23637856   6.125   6.053   7.118  0.4350 -1.0286 -0.2191
  111MOL   H23737857   6.328   5.950   7.217 -0.5368  2.2922 -0.3807
  111MOL   H23837858   6.302   5.750   7.373 -1.2047 -1.1550  1.4494
  111MOL   H23937859   6.071   5.644   7.388 -1.0025 -0.7691 -0.5367
  111MOL   C24037860   5.797   5.674   7.059  0.4308  0.6437 -0.3177
  111MOL   C24137861   5.756   5.569   6.961  0.4716  0.7346 -0.1142
  111MOL   C24237862   5.843   5.446   6.941 -0.0445  0.1693  0.1057
  111MOL   C24337863   5.928   5.434   6.825 -0.6162  0.4599 -0.0257
  111MOL   C24437864   6.009   5.319   6.810  0.5757 -0.0784 -0.0054
  111MOL   C24537865   6.002   5.213   6.912  0.3205  0.6139 -0.2110
  111MOL   C24637866   5.917   5.225   7.021 -0.5042 -0.2277  0.5745
  111MOL   C24737867   5.842   5.344   7.037 -0.2425  0.1506  0.4405
  111MOL   O24837868   5.619   5.532   6.984  0.2996  0.2837  0.1252
  111MOL   H24937869   5.731   5.760   7.060 -0.3228  0.0606  0.0700
  111MOL   H25037870   5.891   5.713   7.018  0.9516 -2.1968 -1.9156
  111MOL   H25137871   5.742   5.621   6.866 -0.6562 -3.1883 -2.2574
  111MOL   H25237872   5.918   5.509   6.747 -0.9172 -0.7274 -1.1464
  111MOL   H25337873   6.069   5.304   6.722 -0.8876 -0.6260 -0.9102
  111MOL   H25437874   6.045   5.114   6.912 -0.5069  0.2448 -0.6079
  111MOL   H25537875   5.904   5.161   7.107 -0.0955 -3.1697 -1.4826
  111MOL   H25637876   5.795   5.349   7.134  2.6922 -1.4644  2.0191
  111MOL   C25737877   5.553   5.470   6.868  0.2744  0.6027 -0.6500
  111MOL   C25837878   5.398   5.467   6.897 -0.0066 -0.4189 -0.7325
  111MOL   C25937879   5.340   5.351   6.821  0.1245  0.4663  0.3856
  111MOL   C26037880   5.269   5.248   6.889 -0.3841 -0.0095  0.1275
  111MOL   C26137881   5.197   5.154   6.809  0.1869  0.3765 -0.2743
  111MOL   C26237882   5.210   5.154   6.670  0.5762 -0.1634  0.5375
  111MOL   C26337883   5.295   5.252   6.605 -0.0584 -0.0198  0.5729
  111MOL   C26437884   5.355   5.349   6.679 -0.0678 -0.9428  0.0393
  111MOL   O26537885   5.347   5.590   6.839  0.5334 -0.0641 -0.4294
  111MOL   H26637886   5.580   5.364   6.866 -2.0139 -0.0869  1.5216
  111MOL   H26737887   5.581   5.515   6.773 -2.3571  1.3334 -1.1187
  111MOL   H26837888   5.374   5.453   7.002 -0.2997  2.2930 -0.4176
  111MOL   H26937889   5.267   5.239   6.996 -1.0583  0.7624  0.1818
  111MOL   H27037890   5.136   5.077   6.853 -0.2824  1.5681  1.1959
  111MOL   H27137891   5.170   5.071   6.614  0.4752 -0.7734  1.5116
  111MOL   H27237892   5.305   5.254   6.497 -1.2327 -1.3489  0.4282
  111MOL   H27337893   5.392   5.436   6.627 -0.3432 -0.3010  0.9080
  111MOL   C27437894   5.354   5.703   6.931  0.7422 -0.2921  0.3256
  111MOL   C27537895   5.292   5.837   6.877  0.5387  0.8540 -0.4190
  111MOL   C27637896   5.145   5.821   6.836 -0.5507 -0.0254 -0.6654
  111MOL   C27737897   5.097   5.748   6.726 -0.5101 -0.6627  0.5553
  111MOL   C27837898   4.962   5.727   6.704 -0.3813 -0.2743 -0.5810
  111MOL   C27937899   4.867   5.793   6.780 -0.0850 -0.7836 -0.5990
  111MOL   C28037900   4.910   5.866   6.892 -0.0258 -0.2236 -0.6239
  111MOL   C28137901   5.046   5.880   6.921  0.6814 -0.4988 -0.5199
  111MOL   O28237902   5.366   5.885   6.763  0.2886  0.2344  0.3227
  111MOL   H28337903   5.293   5.664   7.012  1.9525 -0.8729  0.9795
  111MOL   H28437904   5.457   5.719   6.964  0.2750 -0.9578  2.1110
  111MOL   H28537905   5.294   5.914   6.954  1.3450  1.3414 -0.9121
  111MOL   H28637906   5.158   5.700   6.651 -0.6523 -1.3285  0.8679
  111MOL   H28737907   4.925   5.658   6.629 -0.1354 -0.0126 -0.9459
  111MOL   H28837908   4.762   5.783   6.760 -0.5036 -0.7658  1.5411
  111MOL   H28937909   4.843   5.919   6.958  0.2952 -0.0689 -0.4206
  111MOL   H29037910   5.079   5.948   6.998 -0.0574 -1.7881  0.9857
  111MOL   C29137911   5.506   5.902   6.779  0.0165  0.1384 -0.5095
  111MOL   C29237912   5.556   6.040   6.730 -0.3880  0.3751  0.1760
  111MOL   C29337913   5.697   6.074   6.784  0.4484 -0.0201 -0.5376
  111MOL   C29437914   5.798   5.975   6.799  0.4603 -0.3282  0.7596
  111MOL   C29537915   5.922   6.004   6.855  0.4588 -0.0014 -0.4609
  111MOL   C29637916   5.955   6.141   6.870 -0.1187 -0.0082  0.4080
  111MOL   C29737917   5.866   6.246   6.837  0.0846 -0.0799  0.0477
  111MOL   C29837918   5.733   6.208   6.800  0.1039  0.3911 -0.0062
  111MOL   O29937919   5.565   6.038   6.589  0.2065  0.1433  0.1239
  111MOL   H30037920   5.556   5.821   6.726 -0.4658  1.1770 -2.5964
  111MOL   H30137921   5.541   5.905   6.882 -0.9523 -3.7753  0.0193
  111MOL   H30237922   5.481   6.110   6.765 -0.2832  1.9587 -2.6348
  111MOL   H30337923   5.766   5.876   6.771 -2.8990  1.2029 -1.0212
  111MOL   H30437924   5.996   5.926   6.868 -0.5933 -0.9288  0.0962
  111MOL   H30537925   6.051   6.167   6.913 -0.1999 -2.5353  2.3022
  111MOL   H30637926   5.894   6.350   6.847  0.3168 -0.4718  4.6861
  111MOL   H30737927   5.658   6.283   6.782  0.4180  0.7121  0.0033
  111MOL   C30837928   5.562   6.157   6.513 -0.5918  0.0962  0.6030
  111MOL   C30937929   5.655   6.127   6.390 -0.3528 -0.0088  0.1715
  111MOL   C31037930   5.680   6.261   6.309  0.8914 -0.4513  0.0302
  111MOL   C31137931   5.807   6.302   6.268 -0.6989  0.3441 -0.4122
  111MOL   C31237932   5.822   6.423   6.191 -0.4200  0.3003 -0.2442
  111MOL   C31337933   5.710   6.496   6.151 -0.2531 -0.5453 -0.5861
  111MOL   C31437934   5.582   6.448   6.182  0.7271 -0.2905 -0.8115
  111MOL   C31537935   5.566   6.342   6.269 -0.1132  0.2814 -0.4340
  111MOL   O31637936   5.775   6.080   6.438  0.6616 -0.2612  0.2627
  111MOL   H31737937   5.604   6.236   6.574  0.6060  0.3276 -0.5049
  111MOL   H31837938   5.460   6.176   6.478 -0.0937 -1.5062 -1.9065
  111MOL   H31937939   5.598   6.057   6.329  1.3692  0.2893 -1.8577
  111MOL   H32037940   5.899   6.262   6.309 -1.2665 -1.8675 -1.1833
  111MOL   H32137941   5.923   6.454   6.171 -0.8001  0.6552 -1.6468
  111MOL   H32237942   5.728   6.581   6.086 -0.0101  0.5027  0.8462
  111MOL   H32337943   5.491   6.505   6.167 -0.2298 -1.3671  0.7962
  111MOL   H32437944   5.465   6.311   6.294 -0.7841  1.9665 -1.0098
  111MOL   C32537945   5.829   5.981   6.354 -0.6339  0.1297  0.0397
  111MOL   C32637946   5.955   5.932   6.418  0.8791 -0.6348 -0.0130
  111MOL   C32737947   6.075   6.027   6.429 -1.0477  0.5977 -0.0433
  111MOL   C32837948   6.078   6.141   6.511  0.4422  0.1739  0.3956
  111MOL   C32937949   6.196   6.214   6.533 -0.6765 -0.1599  0.7962
  111MOL   C33037950   6.322   6.183   6.463  0.3480  0.1926 -0.2048
  111MOL   C33137951   6.316   6.067   6.387 -0.2180  0.7309  0.6754
  111MOL   C33237952   6.194   5.997   6.362  0.0109  0.6310 -0.0342
  111MOL   O33337953   5.926   5.878   6.540  0.8018  0.3672  0.4091
  111MOL   H33437954   5.846   6.028   6.257  1.0435  0.9664  0.7130
  111MOL   H33537955   5.758   5.900   6.336  0.8358 -1.2493  0.3082
  111MOL   H33637956   5.984   5.839   6.370 -0.7998 -0.9864 -0.3928
  111MOL   H33737957   5.989   6.179   6.559  0.5346  1.6402 -0.5644
  111MOL   H33837958   6.200   6.299   6.600 -2.0884 -0.4688  1.2863
  111MOL   H33937959   6.410   6.245   6.465  0.3607  0.1525  1.3088
  111MOL   H34037960   6.398   6.025   6.331 -0.2964 -1.2450  2.0061
  111MOL   H34137961   6.202   5.896   6.324 -0.8418 -0.1399  1.7369
  111MOL   H34237962   5.899   5.952   6.592  1.5410  0.6701  0.3646
  112MOL     C137963   3.093   5.393   4.807  0.3213 -0.4116  0.5744
  112MOL     C237964   3.037   5.282   4.897 -1.0585  0.0658 -0.8043
  112MOL     C337965   3.123   5.276   5.025 -0.1751 -0.3197 -0.0283
  112MOL     C437966   3.227   5.184   5.039 -0.0655  0.1919  0.3367
  112MOL     C537967   3.309   5.189   5.153  0.1979 -0.1608  0.3831
  112MOL     C637968   3.289   5.288   5.254 -0.7345  0.4948  0.0924
  112MOL     C737969   3.182   5.380   5.233  0.1936  0.3104 -0.2307
  112MOL     C837970   3.093   5.370   5.124 -0.2167  0.4880 -0.1846
  112MOL     O937971   3.038   5.153   4.833 -0.8948 -0.7710  0.0277
  112MOL    H1037972   3.096   5.491   4.854  1.4088 -0.7887  1.3257
  112MOL    H1137973   3.197   5.373   4.779  0.6876 -0.8210  2.1748
  112MOL    H1237974   2.934   5.305   4.924  0.0035  0.5447  3.2499
  112MOL    H1337975   3.253   5.117   4.958 -2.4228 -1.0965  0.5943
  112MOL    H1437976   3.394   5.122   5.153 -0.2080 -0.6886  1.3372
  112MOL    H1537977   3.363   5.296   5.333  1.6836  0.7213 -2.1201
  112MOL    H1637978   3.168   5.461   5.303 -1.0347 -0.0809 -0.0013
  112MOL    H1737979   3.023   5.451   5.110  1.0978  1.7076  0.1272
  112MOL    H1837980   3.049   5.408   4.709  0.9916  2.5627  0.6741
  112MOL    C1937981   2.938   5.131   4.739  0.0108 -0.1489 -0.2329
  112MOL    C2037982   3.012   5.092   4.606 -0.1529  0.5125 -0.0966
  112MOL    C2137983   2.933   5.120   4.478 -0.3901 -0.8734 -0.6343
  112MOL    C2237984   2.975   5.212   4.384  0.1293 -0.0217  0.5636
  112MOL    C2337985   2.888   5.255   4.282  0.2682  0.5274 -0.1369
  112MOL    C2437986   2.760   5.200   4.273 -0.1814 -0.5061 -0.7110
  112MOL    C2537987   2.721   5.095   4.359  0.4538 -0.9131  0.3063
  112MOL    C2637988   2.812   5.050   4.461 -0.2692  0.6770  0.2570
  112MOL    O2737989   3.057   4.954   4.611 -0.9651 -0.5678  0.9113
  112MOL    H2837990   2.863   5.056   4.767  0.5335 -0.3973  0.5110
  112MOL    H2937991   2.875   5.219   4.728 -0.9944 -0.7610  0.4899
  112MOL    H3037992   3.092   5.165   4.594 -1.6943  1.9745 -1.8552
  112MOL    H3137993   3.066   5.267   4.404 -0.0968  0.9128 -0.9179
  112MOL    H3237994   2.920   5.336   4.217 -0.8615  0.5279 -0.6925
  112MOL    H3337995   2.683   5.245   4.214  0.4338 -1.4809 -2.2912
  112MOL    H3437996   2.627   5.048   4.337  1.1139 -1.6808 -0.9554
  112MOL    H3537997   2.787   4.960   4.516 -0.9549  0.5555 -0.2438
  112MOL    C3637998   3.153   4.936   4.512  0.3245  0.6240  0.0031
  112MOL    C3737999   3.256   4.823   4.538 -0.1885  0.4778 -0.2120
  112MOL    C3838000   3.211   4.677   4.549  0.8215 -0.2832  0.6361
  112MOL    C3938001   3.083   4.635   4.508 -0.6194 -0.5480 -0.8354
  112MOL    C4038002   3.038   4.504   4.513 -0.1456 -0.3400  0.7227
  112MOL    C4138003   3.119   4.401   4.560  0.3358  0.8771 -1.1600
  112MOL    C4238004   3.255   4.437   4.595 -0.3042  0.5142 -0.3533
  112MOL    C4338005   3.300   4.573   4.584 -0.3575  0.0811 -0.2683
  112MOL    O4438006   3.352   4.846   4.637 -0.0948  0.2005 -0.2421
  112MOL    H4538007   3.090   4.908   4.428  0.3064  1.4469 -0.2611
  112MOL    H4638008   3.212   5.023   4.483 -0.0446  0.5026 -1.1166
  112MOL    H4738009   3.315   4.832   4.446 -1.2425 -0.9842 -1.0565
  112MOL    H4838010   3.012   4.707   4.470 -0.6066  0.5966  1.2205
  112MOL    H4938011   2.940   4.486   4.470  0.5105 -1.1279 -0.4678
  112MOL    H5038012   3.076   4.303   4.566  1.3963  0.3509 -1.9934
  112MOL    H5138013   3.323   4.363   4.637 -0.1494  1.8666  1.9091
  112MOL    H5238014   3.405   4.595   4.601 -0.5852 -0.3931  1.8940
  112MOL    C5338015   3.442   4.958   4.629 -0.0519 -0.1006 -0.6470
  112MOL    C5438016   3.487   4.990   4.775 -0.0054 -0.0573  0.4160
  112MOL    C5538017   3.555   4.871   4.849  0.5239 -0.9930 -0.3083
  112MOL    C5638018   3.574   4.885   4.989 -0.3513 -0.2347 -0.4249
  112MOL    C5738019   3.629   4.774   5.059 -0.0793 -0.3020 -0.0495
  112MOL    C5838020   3.667   4.658   4.986 -0.3154 -0.0276 -0.5703
  112MOL    C5938021   3.648   4.651   4.849 -0.9775 -0.9144  0.0025
  112MOL    C6038022   3.601   4.759   4.778 -0.0069 -0.9630 -0.0177
  112MOL    O6138023   3.550   5.116   4.784 -0.2324 -0.3041  0.4928
  112MOL    H6238024   3.526   4.924   4.568 -0.2614 -2.7921  0.5200
  112MOL    H6338025   3.399   5.050   4.588  0.3803  1.0231  1.3603
  112MOL    H6438026   3.402   5.010   4.840  0.2003 -0.0063  0.6669
  112MOL    H6538027   3.534   4.966   5.047  0.0119 -0.6841  0.4750
  112MOL    H6638028   3.652   4.778   5.164 -1.1148 -0.6287  0.1942
  112MOL    H6738029   3.702   4.574   5.045  0.8864  0.9849  0.1956
  112MOL    H6838030   3.690   4.568   4.793 -0.2130 -0.5927  0.0856
  112MOL    H6938031   3.590   4.753   4.670 -0.9142 -0.3502  0.0367
  112MOL    C7038032   3.689   5.124   4.742  0.2067  0.5482 -0.2416
  112MOL    C7138033   3.751   5.264   4.744  0.4287 -0.4449  0.0175
  112MOL    C7238034   3.719   5.342   4.873  0.2854  0.1102  0.5259
  112MOL    C7338035   3.816   5.361   4.969 -0.1732 -0.3220 -0.0329
  112MOL    C7438036   3.793   5.421   5.099 -0.4312  0.3518  0.6549
  112MOL    C7538037   3.671   5.470   5.122 -0.3380  0.3081  0.4948
  112MOL    C7638038   3.565   5.450   5.025  0.0229 -0.3815 -0.3452
  112MOL    C7738039   3.590   5.382   4.902 -0.8109  0.1272  0.7032
  112MOL    O7838040   3.718   5.328   4.622  0.6598 -0.1196  0.2130
  112MOL    H7938041   3.745   5.063   4.814 -0.5880 -2.6555 -2.2666
  112MOL    H8038042   3.703   5.075   4.646  0.0158 -1.6429  0.8088
  112MOL    H8138043   3.860   5.259   4.742  0.4624 -0.0298  0.7929
  112MOL    H8238044   3.916   5.325   4.951  0.3699  0.8204  0.6071
  112MOL    H8338045   3.877   5.429   5.166 -0.4244 -0.6559  0.7748
  112MOL    H8438046   3.654   5.514   5.219 -1.4863  3.1582 -0.9455
  112MOL    H8538047   3.467   5.482   5.056 -0.2392 -0.5492 -1.0051
  112MOL    H8638048   3.512   5.363   4.829 -1.0164  0.6883  0.7675
  112MOL    C8738049   3.786   5.451   4.593 -0.4107  0.3227  0.2263
  112MOL    C8838050   3.924   5.442   4.516 -0.0602  0.2512  0.1179
  112MOL    C8938051   4.008   5.561   4.544 -1.2405  0.1195  0.4900
  112MOL    C9038052   3.957   5.688   4.521  0.3666 -0.3409  0.1186
  112MOL    C9138053   4.024   5.807   4.560  0.2563  0.0895  0.4364
  112MOL    C9238054   4.150   5.792   4.627 -0.0324  0.0288  0.7109
  112MOL    C9338055   4.203   5.667   4.649  0.9526  0.6478  0.4019
  112MOL    C9438056   4.135   5.547   4.607  0.6023  0.1780 -0.7333
  112MOL    O9538057   3.884   5.429   4.376  0.0320 -0.4603  0.0931
  112MOL    H9638058   3.818   5.494   4.688  1.2067  0.2343 -0.2660
  112MOL    H9738059   3.716   5.522   4.549  0.2335  0.5077 -0.4996
  112MOL    H9838060   3.985   5.359   4.552  0.6507 -0.6365 -3.0096
  112MOL    H9938061   3.859   5.704   4.480  0.2949  0.4941  0.5999
  112MOL   H10038062   3.970   5.899   4.544 -1.4279 -1.1861 -1.3959
  112MOL   H10138063   4.211   5.875   4.658 -2.6871  2.9369 -1.6108
  112MOL   H10238064   4.293   5.657   4.709  0.0043  1.8545  2.0786
  112MOL   H10338065   4.174   5.452   4.640  0.2187  0.2050 -0.1962
  112MOL   C10438066   3.980   5.370   4.292 -0.4327 -0.0507  0.0565
  112MOL   C10538067   3.928   5.361   4.147 -0.0873 -0.1804  0.1979
  112MOL   C10638068   4.041   5.324   4.064 -0.0562  0.7695  0.1587
  112MOL   C10738069   4.103   5.424   3.986  0.1414  0.9913 -0.4115
  112MOL   C10838070   4.207   5.384   3.894 -0.1777 -0.5225 -0.1867
  112MOL   C10938071   4.257   5.251   3.883 -0.2546 -0.1180  0.3444
  112MOL   C11038072   4.190   5.155   3.965 -0.1617  0.3357 -0.3075
  112MOL   C11138073   4.083   5.192   4.055 -0.1939 -0.4295  0.1775
  112MOL   O11238074   3.817   5.272   4.147 -0.0439 -0.7080 -0.0231
  112MOL   H11338075   4.058   5.445   4.301  0.5895 -1.4471  3.3879
  112MOL   H11438076   4.013   5.275   4.335 -0.5365 -0.4842 -0.8039
  112MOL   H11538077   3.895   5.460   4.114 -1.4659 -0.8476 -0.4090
  112MOL   H11638078   4.069   5.527   3.988  0.4791  1.1123 -0.8176
  112MOL   H11738079   4.247   5.466   3.837 -0.2874  1.4553  2.4546
  112MOL   H11838080   4.347   5.223   3.832  1.2750 -1.4039  3.5954
  112MOL   H11938081   4.227   5.054   3.966 -0.5191  0.1998 -0.5068
  112MOL   H12038082   4.038   5.122   4.123 -1.7823 -1.7267 -2.1417
  112MOL   C12138083   3.683   5.335   4.155 -0.4359  0.5187  0.1212
  112MOL   C12238084   3.608   5.234   4.245 -0.1175 -0.2868  0.4311
  112MOL   C12338085   3.484   5.302   4.302 -0.4373  0.1174 -0.0675
  112MOL   C12438086   3.448   5.267   4.437  0.1349 -0.2474 -0.9726
  112MOL   C12538087   3.345   5.337   4.503 -0.4966 -0.5825 -0.4019
  112MOL   C12638088   3.266   5.431   4.433 -0.2869 -0.2380 -0.2720
  112MOL   C12738089   3.304   5.466   4.300  0.1296 -0.2744 -0.3442
  112MOL   C12838090   3.406   5.401   4.230  0.0877 -0.2535  0.1813
  112MOL   O12938091   3.567   5.127   4.163  0.5694  0.4448  0.0616
  112MOL   H13038092   3.654   5.353   4.052  0.0791  2.7041  0.3288
  112MOL   H13138093   3.681   5.434   4.202  3.8287  0.3191  0.9532
  112MOL   H13238094   3.661   5.187   4.328  1.6489 -2.2577 -1.7399
  112MOL   H13338095   3.506   5.200   4.499  2.5358 -0.3366 -3.2440
  112MOL   H13438096   3.322   5.314   4.607  0.7297 -0.1306 -0.0266
  112MOL   H13538097   3.184   5.477   4.486  0.4971 -0.4883  1.1808
  112MOL   H13638098   3.239   5.522   4.235 -1.0196 -0.8549  0.2770
  112MOL   H13738099   3.423   5.428   4.127 -1.9236 -1.1803 -0.4341
  112MOL   C13838100   3.562   4.996   4.230 -0.0283 -0.3269 -0.0200
  112MOL   C13938101   3.571   4.876   4.131  0.3052 -0.5104 -0.4850
  112MOL   C14038102   3.698   4.884   4.052  0.0918 -0.2335  0.3860
  112MOL   C14138103   3.700   4.954   3.931  0.1723  0.4340  0.0065
  112MOL   C14238104   3.821   4.976   3.867  0.1959 -0.1170 -0.0236
  112MOL   C14338105   3.937   4.919   3.905  0.3133  0.4880  0.4653
  112MOL   C14438106   3.933   4.838   4.021 -0.3859  0.0557  0.0610
  112MOL   C14538107   3.813   4.818   4.092 -0.7056 -0.2076  0.6247
  112MOL   O14638108   3.568   4.762   4.214 -0.2026 -0.1017  0.1662
  112MOL   H14738109   3.466   4.991   4.282 -0.4244 -0.5925 -0.7626
  112MOL   H14838110   3.642   4.987   4.303  1.0061 -0.1933 -1.1307
  112MOL   H14938111   3.479   4.877   4.072 -1.4527 -0.4049  2.1292
  112MOL   H15038112   3.615   5.000   3.883 -0.7933 -0.0029  1.2855
  112MOL   H15138113   3.825   5.026   3.771  0.1315 -0.9386 -0.4596
  112MOL   H15238114   4.023   4.945   3.844  1.0337 -1.7025  0.5035
  112MOL   H15338115   4.025   4.786   4.045 -0.8956 -0.4392  0.9557
  112MOL   H15438116   3.814   4.757   4.181 -2.0167 -0.4784  0.4698
  112MOL   C15538117   3.514   4.641   4.168 -0.0661 -0.2771  0.3615
  112MOL   C15638118   3.354   4.625   4.161  0.3994 -0.2077 -0.3035
  112MOL   C15738119   3.282   4.700   4.050 -0.1464 -0.4215  0.7180
  112MOL   C15838120   3.246   4.832   4.071  0.5737 -0.2257 -0.6176
  112MOL   C15938121   3.172   4.904   3.982 -0.2483 -0.0736 -0.5266
  112MOL   C16038122   3.135   4.841   3.861  0.3426 -0.1742  0.7701
  112MOL   C16138123   3.192   4.715   3.830  0.2499  0.3951  0.2633
  112MOL   C16238124   3.259   4.641   3.926  0.1302  0.8108  0.3242
  112MOL   O16338125   3.341   4.482   4.157 -0.2675 -0.4931  0.4851
  112MOL   H16438126   3.544   4.554   4.227 -1.1186 -1.2614 -0.5293
  112MOL   H16538127   3.568   4.618   4.076  1.4467 -0.2237  1.2208
  112MOL   H16638128   3.307   4.654   4.255 -1.7046 -1.2489 -1.0052
  112MOL   H16738129   3.281   4.882   4.160  2.8983 -2.1794 -0.3957
  112MOL   H16838130   3.140   5.003   4.009  0.8177 -0.4574  2.2824
  112MOL   H16938131   3.069   4.885   3.788  0.6526 -0.7199  0.1581
  112MOL   H17038132   3.170   4.675   3.732  0.0542  1.6858 -0.2236
  112MOL   H17138133   3.299   4.543   3.908  2.8222  1.4884  2.2186
  112MOL   C17238134   3.226   4.427   4.218 -0.4052 -0.2386 -0.4890
  112MOL   C17338135   3.235   4.274   4.200 -0.0350 -0.3344  0.0349
  112MOL   C17438136   3.364   4.217   4.261 -0.3294 -0.4262 -0.1484
  112MOL   C17538137   3.486   4.201   4.187  0.8411  0.3671 -0.3098
  112MOL   C17638138   3.593   4.139   4.250 -0.3438  0.0517  0.1289
  112MOL   C17738139   3.585   4.104   4.387 -0.0243  0.1361 -0.6078
  112MOL   C17838140   3.468   4.126   4.458 -0.0591  1.2080 -0.6535
  112MOL   C17938141   3.357   4.176   4.402  0.2709  0.1946 -0.0375
  112MOL   O18038142   3.228   4.249   4.064  0.9123 -0.5699 -0.1405
  112MOL   H18138143   3.227   4.457   4.323  0.8423 -2.6317  0.2070
  112MOL   H18238144   3.134   4.458   4.168 -0.1536  1.8065  0.2346
  112MOL   H18338145   3.149   4.245   4.260  1.0065 -0.9645  1.2306
  112MOL   H18438146   3.491   4.239   4.086 -0.5440 -0.8313 -0.8473
  112MOL   H18538147   3.684   4.141   4.193 -0.5132  1.0176 -0.1250
  112MOL   H18638148   3.664   4.040   4.424 -0.0508  0.7865  0.5887
  112MOL   H18738149   3.459   4.104   4.564  1.9483 -0.5108 -0.8223
  112MOL   H18838150   3.260   4.191   4.447  0.2113  1.6555 -0.6107
  112MOL   C18938151   3.176   4.115   4.053  0.3382 -0.1571 -0.5547
  112MOL   C19038152   3.135   4.097   3.901  0.0628  0.4354 -0.4231
  112MOL   C19138153   3.013   4.184   3.867  0.0952 -0.0890  0.5453
  112MOL   C19238154   3.030   4.330   3.864  1.0084  0.6054  0.1778
  112MOL   C19338155   2.922   4.413   3.825 -0.1369 -0.3069 -1.3702
  112MOL   C19438156   2.804   4.352   3.786  1.0803  0.4295  0.6455
  112MOL   C19538157   2.776   4.216   3.819 -0.5322 -0.1953  0.2978
  112MOL   C19638158   2.889   4.128   3.844 -0.4009 -0.2341 -0.0035
  112MOL   O19738159   3.106   3.953   3.897 -0.5167 -0.1185  0.1338
  112MOL   H19838160   3.256   4.048   4.084 -0.4394 -1.1877 -0.7546
  112MOL   H19938161   3.087   4.102   4.113 -0.5494  4.1323 -0.7782
  112MOL   H20038162   3.223   4.131   3.845  0.6791 -0.4441 -0.0091
  112MOL   H20138163   3.129   4.374   3.870  0.7417  1.2387  0.0151
  112MOL   H20238164   2.937   4.519   3.814  0.6142  0.0425  2.5338
  112MOL   H20338165   2.732   4.418   3.740 -0.3188 -2.5781 -1.6136
  112MOL   H20438166   2.678   4.175   3.803 -1.4582  1.9876  0.2050
  112MOL   H20538167   2.882   4.022   3.862 -1.0772 -0.2664 -0.4355
  112MOL   C20638168   3.128   3.899   3.761 -0.9190  0.0765  0.5558
  112MOL   C20738169   3.185   3.758   3.761 -0.1301 -0.2664  0.4357
  112MOL   C20838170   3.106   3.665   3.857 -0.7148  1.2321 -0.1259
  112MOL   C20938171   2.989   3.595   3.818  0.5729 -0.1872 -0.5656
  112MOL   C21038172   2.926   3.516   3.911  0.1551  0.3390  0.1064
  112MOL   C21138173   2.972   3.504   4.045  0.3019  0.3440 -0.2373
  112MOL   C21238174   3.089   3.568   4.081  0.2062 -0.4833  0.2212
  112MOL   C21338175   3.161   3.649   3.988 -0.8616 -0.1518 -0.2620
  112MOL   O21438176   3.329   3.766   3.794 -0.0726  0.4198 -0.0876
  112MOL   H21538177   3.037   3.910   3.701 -0.6585 -0.0115  0.1407
  112MOL   H21638178   3.199   3.956   3.701  0.0873 -0.9490  0.7591
  112MOL   H21738179   3.179   3.722   3.658 -1.5406 -1.3107  0.8600
  112MOL   H21838180   2.955   3.605   3.716 -2.0539 -2.6406  0.0093
  112MOL   H21938181   2.841   3.456   3.884  0.4849 -0.7102  1.3637
  112MOL   H22038182   2.914   3.450   4.118  3.6811 -2.1332  0.6901
  112MOL   H22138183   3.129   3.549   4.180  0.8154 -2.3829 -0.3661
  112MOL   H22238184   3.250   3.705   4.013 -0.3654 -0.4908 -1.2247
  112MOL   C22338185   3.401   3.648   3.753  0.1728 -0.2144 -0.5756
  112MOL   C22438186   3.529   3.663   3.834  0.2232  0.7016  0.0763
  112MOL   C22538187   3.607   3.528   3.858  0.4034 -0.3326  0.0142
  112MOL   C22638188   3.568   3.431   3.952  0.1760  0.3418 -0.6838
  112MOL   C22738189   3.651   3.317   3.978 -0.7540 -0.8429  0.1324
  112MOL   C22838190   3.772   3.295   3.909 -0.0398 -0.4610 -0.5275
  112MOL   C22938191   3.803   3.384   3.805  0.1137 -0.4268  0.0392
  112MOL   C23038192   3.723   3.500   3.780 -0.0172  0.0211 -0.7334
  112MOL   O23138193   3.615   3.760   3.779  0.3176  0.4321  0.5306
  112MOL   H23238194   3.351   3.556   3.783 -0.5699 -0.0165 -1.1828
  112MOL   H23338195   3.414   3.652   3.645 -2.3369 -1.8028 -0.9976
  112MOL   H23438196   3.493   3.697   3.931 -0.3552 -1.5774  0.6928
  112MOL   H23538197   3.480   3.443   4.013  0.3010 -1.2298 -0.1693
  112MOL   H23638198   3.619   3.243   4.051 -0.6506 -1.7503 -0.7332
  112MOL   H23738199   3.836   3.209   3.922 -0.3335 -0.4369  1.2411
  112MOL   H23838200   3.881   3.359   3.734 -0.6068 -3.1835  0.1530
  112MOL   H23938201   3.748   3.559   3.694 -1.5184  1.4255 -0.2253
  112MOL   C24038202   3.705   3.820   3.872 -0.1978 -0.0218 -0.0673
  112MOL   C24138203   3.778   3.933   3.796  0.3346 -0.5927 -0.2444
  112MOL   C24238204   3.693   4.029   3.718 -0.1617 -0.2811 -0.2707
  112MOL   C24338205   3.615   4.127   3.781 -0.2344  0.5715  0.0177
  112MOL   C24438206   3.518   4.208   3.711  0.6623  0.3354  0.4515
  112MOL   C24538207   3.496   4.180   3.574  0.1636 -0.1735 -0.0930
  112MOL   C24638208   3.569   4.081   3.506 -0.1313  0.5054  0.3554
  112MOL   C24738209   3.664   4.009   3.582  0.6144 -1.0602 -0.4616
  112MOL   O24838210   3.862   3.997   3.889  0.1869  0.4523 -0.0753
  112MOL   H24938211   3.649   3.857   3.958 -2.4287 -0.2539 -1.3695
  112MOL   H25038212   3.773   3.741   3.904 -3.7325 -3.5212 -0.7666
  112MOL   H25138213   3.840   3.881   3.722  0.7852 -1.1030  0.4913
  112MOL   H25238214   3.632   4.156   3.884 -2.8891 -0.3986  0.7586
  112MOL   H25338215   3.458   4.280   3.764 -0.3168 -0.0694 -0.1010
  112MOL   H25438216   3.424   4.243   3.525 -0.2858  2.1753  3.3327
  112MOL   H25538217   3.554   4.066   3.400 -2.1315 -0.3821  0.7334
  112MOL   H25638218   3.725   3.931   3.538  0.6851 -2.3438  1.8653
  112MOL   C25738219   3.973   4.065   3.833 -0.7517  0.1395 -0.3450
  112MOL   C25838220   4.109   4.038   3.908  0.3716  0.8009  0.8687
  112MOL   C25938221   4.156   3.890   3.895  0.1041  0.2542  0.2919
  112MOL   C26038222   4.095   3.793   3.984 -0.1259 -0.0897  0.1387
  112MOL   C26138223   4.126   3.659   3.973  0.6439 -0.3621 -0.7964
  112MOL   C26238224   4.220   3.622   3.882 -0.1892  0.1711  0.1522
  112MOL   C26338225   4.273   3.711   3.781 -0.4553 -0.6088 -0.2132
  112MOL   C26438226   4.256   3.852   3.797  1.0510  0.1794 -0.3774
  112MOL   O26538227   4.072   4.075   4.046 -0.5105  0.3444 -0.4857
  112MOL   H26638228   3.948   4.170   3.842 -2.9325 -0.2404 -1.6289
  112MOL   H26738229   3.986   4.040   3.727 -0.8940  2.2620 -0.8746
  112MOL   H26838230   4.180   4.115   3.879 -1.3736  1.1207 -2.8257
  112MOL   H26938231   4.014   3.832   4.043  1.0337 -0.2710  1.8810
  112MOL   H27038232   4.085   3.582   4.037  0.6509  1.6891  1.7471
  112MOL   H27138233   4.251   3.520   3.870 -3.1325 -0.8011  0.4839
  112MOL   H27238234   4.332   3.679   3.697 -1.6950 -3.2979 -0.0790
  112MOL   H27338235   4.304   3.921   3.729  1.0415 -0.8867 -1.5039
  112MOL   C27438236   4.181   4.062   4.141 -0.0993 -0.2165 -0.0750
  112MOL   C27538237   4.146   4.043   4.293  0.2944  0.1855  0.1086
  112MOL   C27638238   4.042   3.932   4.305 -0.0641  0.6016 -0.3131
  112MOL   C27738239   4.086   3.808   4.360 -0.3549 -0.1610 -0.0104
  112MOL   C27838240   3.992   3.700   4.376  0.2737 -0.2051 -0.1913
  112MOL   C27938241   3.859   3.712   4.331  0.5871 -0.0213 -0.9115
  112MOL   C28038242   3.816   3.835   4.262  0.0584 -0.1550 -0.0014
  112MOL   C28138243   3.907   3.943   4.263  0.0837 -0.1543 -0.1985
  112MOL   O28238244   4.103   4.167   4.341 -0.4307  0.2367 -0.3590
  112MOL   H28338245   4.243   3.976   4.114  0.7896 -1.3208  4.9187
  112MOL   H28438246   4.241   4.152   4.133 -0.4602  0.0884  0.6073
  112MOL   H28538247   4.239   4.016   4.343 -0.7412  0.3554  2.1781
  112MOL   H28638248   4.185   3.800   4.402  0.6561  0.6466 -2.1404
  112MOL   H28738249   4.017   3.603   4.414 -0.1222 -0.3866 -0.3880
  112MOL   H28838250   3.797   3.625   4.342 -0.8459  1.1922  0.8716
  112MOL   H28938251   3.717   3.862   4.230  1.2453  1.0561 -2.8979
  112MOL   H29038252   3.890   4.035   4.209 -1.2909  0.5993  1.4445
  112MOL   C29138253   4.113   4.171   4.490  0.4008  0.1263 -0.3353
  112MOL   C29238254   4.104   4.324   4.524 -0.4235 -0.4131 -0.0501
  112MOL   C29338255   3.962   4.382   4.507 -0.0092 -0.2438 -0.2367
  112MOL   C29438256   3.862   4.333   4.586  0.0172 -0.9527 -0.3712
  112MOL   C29538257   3.732   4.393   4.579  0.4949 -0.0009 -0.1974
  112MOL   C29638258   3.703   4.490   4.481  0.3165  0.2095  0.4407
  112MOL   C29738259   3.812   4.552   4.421  0.3504 -0.0977 -0.3735
  112MOL   C29838260   3.942   4.496   4.425  0.3520 -0.4081 -0.5427
  112MOL   O29938261   4.142   4.330   4.657  0.2901  0.5354  0.0361
  112MOL   H30038262   4.213   4.133   4.514  0.5403 -0.0117 -1.1214
  112MOL   H30138263   4.029   4.108   4.519 -1.4451  1.4546 -2.5984
  112MOL   H30238264   4.176   4.377   4.462  0.2850 -1.2457  0.0574
  112MOL   H30338265   3.878   4.242   4.641 -1.1902 -2.5679 -2.6335
  112MOL   H30438266   3.657   4.345   4.640 -0.6155 -0.0960 -1.6079
  112MOL   H30538267   3.604   4.529   4.463 -0.2172 -1.3346 -0.0460
  112MOL   H30638268   3.797   4.628   4.346 -1.0588 -0.1730 -0.1730
  112MOL   H30738269   4.022   4.549   4.375  0.1862 -0.1156 -0.5030
  112MOL   C30838270   4.202   4.452   4.703  0.8583  0.2231 -0.0969
  112MOL   C30938271   4.185   4.459   4.855  0.0422 -0.4453  0.0264
  112MOL   C31038272   4.267   4.571   4.916 -0.5740  0.5303  0.3715
  112MOL   C31138273   4.405   4.539   4.953  0.3878 -0.2951 -0.7113
  112MOL   C31238274   4.470   4.631   5.039  0.2214 -0.0559 -0.0796
  112MOL   C31338275   4.416   4.756   5.070 -0.5683  0.6697  0.3481
  112MOL   C31438276   4.293   4.796   5.018 -0.6506  0.1038  0.7785
  112MOL   C31538277   4.211   4.700   4.953 -0.1384  0.2984 -0.3073
  112MOL   O31638278   4.048   4.474   4.893  0.1660 -0.5865 -0.5164
  112MOL   H31738279   4.158   4.545   4.666 -0.7037 -0.2560  0.5121
  112MOL   H31838280   4.306   4.444   4.671  0.9232  0.8623 -0.0534
  112MOL   H31938281   4.222   4.365   4.898  3.7678  0.8231 -0.2280
  112MOL   H32038282   4.444   4.440   4.932  0.7265 -0.6510  1.4055
  112MOL   H32138283   4.562   4.605   5.088 -0.1767  1.1113  1.3239
  112MOL   H32238284   4.468   4.830   5.129 -1.0376 -0.1044  1.7600
  112MOL   H32338285   4.258   4.891   5.054  0.2516 -0.1492  2.3752
  112MOL   H32438286   4.112   4.726   4.920 -0.4858 -1.7528 -1.0092
  112MOL   C32538287   4.008   4.420   5.017 -1.0841 -0.4856 -0.9805
  112MOL   C32638288   3.970   4.269   5.000  0.1696 -0.0837 -0.7873
  112MOL   C32738289   3.921   4.202   5.137  0.2206  0.2336  0.1584
  112MOL   C32838290   3.781   4.203   5.183 -0.1829 -0.4017  0.1251
  112MOL   C32938291   3.749   4.141   5.304  0.1451 -0.6990  0.0156
  112MOL   C33038292   3.848   4.087   5.393  0.7503  0.0238  1.1285
  112MOL   C33138293   3.983   4.092   5.347  0.3198  0.0470 -0.0681
  112MOL   C33238294   4.022   4.143   5.222 -0.0299 -0.2869  1.7177
  112MOL   O33338295   3.865   4.272   4.901 -0.0897 -0.4486  0.0808
  112MOL   H33438296   3.925   4.478   5.058  0.2936  1.2681 -0.6300
  112MOL   H33538297   4.082   4.440   5.094 -3.3071 -0.3558  1.1617
  112MOL   H33638298   4.047   4.210   4.951 -0.3140 -1.1897 -0.2457
  112MOL   H33738299   3.710   4.252   5.118  0.1386  1.6391  1.2482
  112MOL   H33838300   3.649   4.144   5.346  0.3250  1.2995  0.3276
  112MOL   H33938301   3.809   4.052   5.487 -1.0074  0.5768  0.6385
  112MOL   H34038302   4.057   4.037   5.404 -0.0203 -0.1159  0.2115
  112MOL   H34138303   4.128   4.134   5.205 -0.1444  1.1024  0.1277
  112MOL   H34238304   3.889   4.352   4.859  4.9311 -2.5641 -1.4266
  113MOL     C138305   6.131   4.434   5.748 -0.0099 -0.3285  0.1830
  113MOL     C238306   6.165   4.590   5.729 -0.1060  0.2656 -0.5155
  113MOL     C338307   6.187   4.655   5.863  0.4220  0.8071  0.2521
  113MOL     C438308   6.077   4.699   5.941  0.3793  0.2922 -0.1547
  113MOL     C538309   6.093   4.783   6.051 -0.4265 -0.0424 -0.9352
  113MOL     C638310   6.226   4.820   6.086  0.1329  0.3275 -0.2733
  113MOL     C738311   6.334   4.772   6.010 -0.1645 -0.2920  0.0532
  113MOL     C838312   6.317   4.691   5.900 -1.2063  0.6340 -0.4212
  113MOL     O938313   6.049   4.648   5.668 -0.0012 -0.1972 -0.5515
  113MOL    H1038314   6.037   4.430   5.804  0.4971  0.8314  1.1322
  113MOL    H1138315   6.122   4.403   5.644  0.2291  0.9590 -0.2385
  113MOL    H1238316   6.255   4.587   5.667  1.0945 -0.3611  1.2270
  113MOL    H1338317   5.976   4.680   5.909  0.6326  0.2709 -0.9775
  113MOL    H1438318   6.010   4.833   6.099  0.0263 -1.6437  1.6354
  113MOL    H1538319   6.240   4.888   6.168  0.6881 -1.7008  1.3602
  113MOL    H1638320   6.434   4.809   6.026  0.2445 -1.6920  0.8443
  113MOL    H1738321   6.406   4.661   5.846 -0.4506  2.1577 -0.0473
  113MOL    H1838322   6.207   4.378   5.802  1.0502  1.0947  0.2078
  113MOL    C1938323   6.060   4.779   5.610  0.1176  0.1238 -0.0561
  113MOL    C2038324   6.132   4.780   5.469 -0.2525 -0.1976 -0.4005
  113MOL    C2138325   6.102   4.660   5.383  0.0386 -0.2734  0.9592
  113MOL    C2238326   6.181   4.547   5.389  0.6984  0.3327 -0.1928
  113MOL    C2338327   6.154   4.444   5.298 -0.0687  0.0737  0.8280
  113MOL    C2438328   6.041   4.450   5.211 -0.5067  0.7998 -0.8806
  113MOL    C2538329   5.962   4.569   5.203 -0.2797 -0.2154 -0.1878
  113MOL    C2638330   5.996   4.681   5.285 -0.0887 -0.2473  0.1174
  113MOL    O2738331   6.275   4.792   5.483 -0.2492 -0.2037  0.1933
  113MOL    H2838332   5.956   4.798   5.582  0.6727 -0.6411 -2.7808
  113MOL    H2938333   6.090   4.864   5.670 -2.5950  0.5939  0.6995
  113MOL    H3038334   6.098   4.865   5.409 -0.1983 -0.2900 -0.5619
  113MOL    H3138335   6.264   4.535   5.457  0.8305 -1.3141 -0.6308
  113MOL    H3238336   6.212   4.353   5.301 -0.8025 -0.5002 -1.4455
  113MOL    H3338337   6.026   4.361   5.152  0.0536 -0.3314  0.6517
  113MOL    H3438338   5.879   4.566   5.133 -1.9203 -0.8617  1.7325
  113MOL    H3538339   5.927   4.764   5.276 -0.5164 -0.6386 -0.3021
  113MOL    C3638340   6.324   4.926   5.465  0.0217 -0.0218  0.2744
  113MOL    C3738341   6.484   4.914   5.442  0.4131  0.1839 -0.5808
  113MOL    C3838342   6.554   4.832   5.545 -0.0566 -0.7684 -0.0864
  113MOL    C3938343   6.601   4.891   5.661  0.9394  0.0440 -0.4604
  113MOL    C4038344   6.655   4.818   5.767 -0.6794 -0.3307  0.1223
  113MOL    C4138345   6.666   4.676   5.764  0.3873 -0.6989  0.1930
  113MOL    C4238346   6.621   4.615   5.641 -0.0359  0.2422 -0.2858
  113MOL    C4338347   6.563   4.689   5.536 -0.6581  0.0402  0.5170
  113MOL    O4438348   6.544   5.046   5.415  0.6086  0.4570  0.2869
  113MOL    H4538349   6.288   4.979   5.376 -0.0171  0.7911  0.7651
  113MOL    H4638350   6.300   4.989   5.551  1.6546  0.0853  0.6632
  113MOL    H4738351   6.480   4.866   5.344 -2.6010  0.3804 -0.6272
  113MOL    H4838352   6.567   4.994   5.664  1.5457  0.3015 -1.9402
  113MOL    H4938353   6.698   4.871   5.851 -1.1339 -0.9015  0.7249
  113MOL    H5038354   6.710   4.630   5.851  0.2250  1.8065  1.6563
  113MOL    H5138355   6.605   4.508   5.651 -0.8010  0.3740  0.0007
  113MOL    H5238356   6.531   4.635   5.448  1.7793 -1.4520  0.5065
  113MOL    C5338357   6.664   5.042   5.328  0.2202 -0.9856  0.1660
  113MOL    C5438358   6.650   5.079   5.186 -0.1093 -0.5858  0.1468
  113MOL    C5538359   6.526   5.018   5.118  0.8942  0.3075 -0.4107
  113MOL    C5638360   6.398   5.083   5.131  0.3121  0.8060 -0.5073
  113MOL    C5738361   6.284   5.027   5.073 -0.3121  0.4223 -0.6317
  113MOL    C5838362   6.300   4.910   4.996 -0.1942  0.2045 -0.6834
  113MOL    C5938363   6.427   4.840   4.981  0.3372  0.0187  0.3733
  113MOL    C6038364   6.540   4.898   5.039 -0.4058  0.1914 -1.0146
  113MOL    O6138365   6.646   5.225   5.186  0.0196  0.3173  0.2109
  113MOL    H6238366   6.744   5.096   5.379 -1.9868  1.2069  1.4138
  113MOL    H6338367   6.695   4.938   5.335 -1.7104 -1.6870 -1.2985
  113MOL    H6438368   6.745   5.060   5.136 -0.0989  0.2069 -0.1508
  113MOL    H6538369   6.404   5.169   5.196 -0.3477  0.9910 -0.6887
  113MOL    H6638370   6.191   5.072   5.103  0.5866  2.5717 -0.9547
  113MOL    H6738371   6.212   4.858   4.962 -0.9211 -0.0887  1.5821
  113MOL    H6838372   6.432   4.743   4.933  0.9572  0.2969 -0.1398
  113MOL    H6938373   6.638   4.857   5.019 -1.4629 -2.6295 -0.5864
  113MOL    C7038374   6.665   5.284   5.062  0.1180 -0.2105  0.1414
  113MOL    C7138375   6.626   5.430   5.071  0.8835  1.0623  0.4560
  113MOL    C7238376   6.471   5.435   5.107 -0.3128  0.0384  0.1148
  113MOL    C7338377   6.375   5.417   5.007  0.2994  0.7512 -0.7293
  113MOL    C7438378   6.240   5.425   5.041 -1.1827  0.4799  0.1098
  113MOL    C7538379   6.197   5.449   5.173 -0.1591  0.0158 -0.3126
  113MOL    C7638380   6.299   5.469   5.270  0.1681 -0.1773  0.9497
  113MOL    C7738381   6.435   5.473   5.237 -0.1834 -1.1377  0.3987
  113MOL    O7838382   6.649   5.481   4.937  0.1389 -0.6406  0.3255
  113MOL    H7938383   6.770   5.263   5.042  0.0754 -2.7756  2.1846
  113MOL    H8038384   6.600   5.235   4.990  3.2704 -1.6328 -1.8371
  113MOL    H8138385   6.683   5.491   5.141  0.0719  2.0430  0.2827
  113MOL    H8238386   6.394   5.386   4.906  1.0049  1.7774 -0.9259
  113MOL    H8338387   6.165   5.406   4.965  0.4653 -1.4078 -1.0981
  113MOL    H8438388   6.094   5.462   5.203  0.2658  2.7542  0.1681
  113MOL    H8538389   6.272   5.499   5.370 -0.9847  2.5942 -0.1358
  113MOL    H8638390   6.510   5.502   5.308 -1.8877 -0.2205  1.8749
  113MOL    C8738391   6.638   5.626   4.934 -0.2736  0.2188  0.0949
  113MOL    C8838392   6.721   5.665   4.809 -0.4030  0.0139  0.0878
  113MOL    C8938393   6.866   5.704   4.838  0.0125  0.1957 -0.0138
  113MOL    C9038394   6.895   5.814   4.916  0.1112  1.0393 -0.7095
  113MOL    C9138395   7.028   5.843   4.949  0.6069 -0.0337  0.0939
  113MOL    C9238396   7.139   5.784   4.888 -0.5066 -0.8932  0.4901
  113MOL    C9338397   7.105   5.677   4.805 -0.1025  0.5001 -0.3338
  113MOL    C9438398   6.973   5.631   4.786 -1.1993 -0.1793 -0.3751
  113MOL    O9538399   6.643   5.774   4.747  0.4073 -0.2267 -0.0738
  113MOL    H9638400   6.673   5.676   5.024  0.3618  0.6544 -0.3919
  113MOL    H9738401   6.532   5.649   4.929 -0.1336  1.5187  2.4548
  113MOL    H9838402   6.722   5.571   4.753  0.6030  0.1831 -0.1761
  113MOL    H9938403   6.810   5.870   4.953  1.0750  2.3228 -0.4038
  113MOL   H10038404   7.049   5.918   5.023  1.8145  0.1526 -0.4248
  113MOL   H10138405   7.242   5.800   4.915 -0.7537 -0.9140  1.4682
  113MOL   H10238406   7.189   5.622   4.766 -0.3435  0.6372 -1.0576
  113MOL   H10338407   6.952   5.542   4.729  0.0343  0.8469 -2.5201
  113MOL   C10438408   6.683   5.813   4.611  0.2707 -0.1640 -0.2831
  113MOL   C10538409   6.609   5.940   4.572 -0.4470  0.2505 -0.5184
  113MOL   C10638410   6.587   6.041   4.691 -0.1560  0.5493 -0.1162
  113MOL   C10738411   6.697   6.114   4.735  0.4426 -0.4619 -0.5782
  113MOL   C10838412   6.689   6.219   4.824  0.0596  0.1972 -0.3655
  113MOL   C10938413   6.564   6.252   4.880 -0.3729 -0.6211 -0.7515
  113MOL   C11038414   6.454   6.174   4.843 -0.3510 -0.1634  0.1110
  113MOL   C11138415   6.459   6.075   4.742  1.2231  0.0688 -0.0233
  113MOL   O11238416   6.691   5.996   4.466  0.4769  0.0874  0.1553
  113MOL   H11338417   6.787   5.843   4.621  0.0194  1.1105 -1.3597
  113MOL   H11438418   6.683   5.736   4.534 -2.0151 -1.8341  1.2869
  113MOL   H11538419   6.513   5.904   4.536 -1.2579  1.8929 -0.0487
  113MOL   H11638420   6.794   6.095   4.690 -0.3425 -1.7412 -1.7261
  113MOL   H11738421   6.780   6.270   4.852  0.4192  0.0293 -1.2130
  113MOL   H11838422   6.553   6.327   4.957  1.5879  0.4814 -1.5003
  113MOL   H11938423   6.355   6.195   4.881  0.0352 -0.0302  1.0302
  113MOL   H12038424   6.375   6.017   4.709  1.5742  0.4263 -1.6085
  113MOL   C12138425   6.620   6.087   4.391  0.3928 -0.2928 -0.5325
  113MOL   C12238426   6.673   6.102   4.242 -0.2762  0.0826  0.4431
  113MOL   C12338427   6.671   5.966   4.167  0.5457 -1.0194 -0.1406
  113MOL   C12438428   6.788   5.887   4.159  0.4785  0.0664 -0.3699
  113MOL   C12538429   6.783   5.770   4.089 -0.1125  0.2393  0.8321
  113MOL   C12638430   6.664   5.725   4.026 -0.6608  0.6516 -0.1010
  113MOL   C12738431   6.552   5.812   4.024 -0.5661  0.8735  0.7136
  113MOL   C12838432   6.551   5.930   4.104  0.2641  0.8340 -0.4292
  113MOL   O12938433   6.585   6.182   4.174  0.6912 -0.0353  0.0988
  113MOL   H13038434   6.647   6.179   4.444  0.6738 -0.0040 -1.1722
  113MOL   H13138435   6.511   6.077   4.390  0.2729 -0.2593  3.7689
  113MOL   H13238436   6.780   6.119   4.235 -0.3239 -0.1736 -1.2842
  113MOL   H13338437   6.877   5.920   4.210 -0.0751 -2.4380  2.3604
  113MOL   H13438438   6.866   5.701   4.093  0.0818  0.5509  2.1163
  113MOL   H13538439   6.667   5.633   3.969  1.1594  2.4095 -2.9981
  113MOL   H13638440   6.462   5.782   3.975 -0.2496 -0.1254  0.7302
  113MOL   H13738441   6.465   5.994   4.104 -0.2150  0.1910 -0.7746
  113MOL   C13838442   6.639   6.316   4.172  0.0207  0.1867 -0.6395
  113MOL   C13938443   6.581   6.389   4.053  0.6736 -0.3935 -0.2668
  113MOL   C14038444   6.612   6.316   3.925  0.0464  0.4747 -0.1445
  113MOL   C14138445   6.534   6.205   3.884  0.0708 -0.1323  0.8625
  113MOL   C14238446   6.576   6.122   3.776 -0.2552  0.5169  0.1233
  113MOL   C14338447   6.689   6.162   3.702 -0.2817 -0.3893  0.0863
  113MOL   C14438448   6.759   6.283   3.728  0.3450 -0.2814  0.3116
  113MOL   C14538449   6.723   6.353   3.845 -0.1099 -0.3697  0.6229
  113MOL   O14638450   6.443   6.404   4.064  0.2799  0.0977 -0.3536
  113MOL   H14738451   6.744   6.306   4.148 -0.2125 -1.9610 -0.8369
  113MOL   H14838452   6.619   6.367   4.266 -3.6429 -2.9584  0.4180
  113MOL   H14938453   6.625   6.487   4.035  1.4215 -0.6918 -0.0874
  113MOL   H15038454   6.455   6.164   3.945  0.6705 -0.2207  1.5773
  113MOL   H15138455   6.526   6.027   3.767 -0.8737  0.8161  0.3937
  113MOL   H15238456   6.730   6.105   3.620  1.7633  1.6907 -0.3975
  113MOL   H15338457   6.846   6.305   3.667  0.2372  0.5132  0.4400
  113MOL   H15438458   6.795   6.428   3.874  1.7737 -1.6221 -0.7138
  113MOL   C15538459   6.408   6.521   4.135  0.2059  0.4834 -0.1588
  113MOL   C15638460   6.285   6.580   4.061 -0.6451  0.1129  0.8353
  113MOL   C15738461   6.199   6.672   4.144 -0.2303 -0.5534  0.1524
  113MOL   C15838462   6.210   6.816   4.144 -0.2386  0.2643 -0.5331
  113MOL   C15938463   6.117   6.897   4.202  0.3179  0.1087 -0.3719
  113MOL   C16038464   6.023   6.839   4.291  0.2143  0.2506  0.4219
  113MOL   C16138465   6.019   6.698   4.309 -0.5422  0.3944 -0.2617
  113MOL   C16238466   6.110   6.615   4.242 -0.4001 -0.2961  0.3035
  113MOL   O16338467   6.343   6.650   3.953  0.2473 -0.1071  0.0793
  113MOL   H16438468   6.478   6.603   4.148 -0.0501  0.4680  1.5376
  113MOL   H16538469   6.376   6.490   4.235  1.0300  0.0024 -0.0323
  113MOL   H16638470   6.214   6.500   4.039 -0.9979  0.5682  0.2974
  113MOL   H16738471   6.280   6.856   4.072 -0.1680  0.2545 -0.4691
  113MOL   H16838472   6.112   7.003   4.186  1.5518  0.0910 -0.8526
  113MOL   H16938473   5.947   6.901   4.338  1.2910  0.7418  1.5391
  113MOL   H17038474   5.936   6.652   4.361  0.8955  0.7883  2.4697
  113MOL   H17138475   6.105   6.507   4.244  1.5033 -0.4053  0.7590
  113MOL   C17238476   6.360   6.585   3.832  0.1194 -0.0628  0.0313
  113MOL   C17338477   6.435   6.661   3.727  0.0257  0.4163 -0.3532
  113MOL   C17438478   6.587   6.681   3.755  0.0402 -0.9695 -0.5081
  113MOL   C17538479   6.635   6.723   3.879 -0.6013 -0.1259  0.1617
  113MOL   C17638480   6.775   6.735   3.892  0.1177  0.1650  0.6873
  113MOL   C17738481   6.866   6.702   3.791  0.1028 -0.5139 -0.5555
  113MOL   C17838482   6.815   6.650   3.674  0.7106  0.4553 -0.4582
  113MOL   C17938483   6.676   6.653   3.651 -0.0509  0.1210  0.6264
  113MOL   O18038484   6.373   6.786   3.706  0.0783  0.6996  0.6912
  113MOL   H18138485   6.418   6.494   3.850  1.5465  0.6657 -0.7599
  113MOL   H18238486   6.264   6.564   3.786  0.8289 -1.0732 -1.0203
  113MOL   H18338487   6.411   6.611   3.633  0.0287  3.2406 -1.9111
  113MOL   H18438488   6.569   6.751   3.960  0.8844 -1.5437  1.9145
  113MOL   H18538489   6.816   6.797   3.971  0.4711  2.8540 -1.5271
  113MOL   H18638490   6.973   6.709   3.801  0.0468 -3.1094  2.6616
  113MOL   H18738491   6.881   6.605   3.601 -0.3561 -1.4534 -0.2857
  113MOL   H18838492   6.639   6.628   3.553  0.9914 -0.4198  0.3548
  113MOL   C18938493   6.386   6.844   3.577 -0.2521 -0.0751  0.3064
  113MOL   C19038494   6.294   6.972   3.567 -0.2694 -0.4652  0.0141
  113MOL   C19138495   6.286   7.026   3.423 -0.5548 -0.5165  0.1637
  113MOL   C19238496   6.175   7.009   3.343 -0.2487 -0.7504 -0.1683
  113MOL   C19338497   6.188   7.028   3.199 -0.1293 -0.0249 -0.1121
  113MOL   C19438498   6.296   7.095   3.145 -0.5719 -0.6954  0.4867
  113MOL   C19538499   6.400   7.123   3.228 -0.1508  0.0257  0.2725
  113MOL   C19638500   6.399   7.089   3.363 -0.6187  0.0308  0.3260
  113MOL   O19738501   6.349   7.075   3.648  0.1164 -0.1731 -0.7500
  113MOL   H19838502   6.489   6.874   3.561  0.5397 -2.4390  0.7476
  113MOL   H19938503   6.366   6.774   3.496 -0.0777 -0.4332  0.5687
  113MOL   H20038504   6.196   6.955   3.611 -0.8362  0.7464 -0.7853
  113MOL   H20138505   6.086   6.969   3.391  0.4930  0.3793  2.2547
  113MOL   H20238506   6.108   7.008   3.129 -0.5335 -0.0503  0.3599
  113MOL   H20338507   6.305   7.101   3.038  0.1467  2.1941  0.6404
  113MOL   H20438508   6.486   7.172   3.185  0.2447 -0.2918  0.6946
  113MOL   H20538509   6.484   7.110   3.426 -0.2687 -1.3418  0.3355
  113MOL   C20638510   6.361   7.048   3.788 -0.1401 -0.5556 -0.4265
  113MOL   C20738511   6.351   7.184   3.865 -0.3289 -0.6880  0.5464
  113MOL   C20838512   6.465   7.208   3.962 -0.1143 -0.2992  1.1795
  113MOL   C20938513   6.581   7.279   3.923  0.2828  0.1920  0.3545
  113MOL   C21038514   6.664   7.338   4.027  0.2546  0.2367  0.1579
  113MOL   C21138515   6.632   7.310   4.166 -0.1833  0.2864 -0.0275
  113MOL   C21238516   6.523   7.233   4.195 -0.0188 -0.0660  0.0258
  113MOL   C21338517   6.439   7.185   4.098 -0.7411  0.2584  0.2661
  113MOL   O21438518   6.226   7.188   3.922  0.0803 -0.2531 -0.0548
  113MOL   H21538519   6.301   6.968   3.831 -0.2276 -1.2529 -1.8021
  113MOL   H21638520   6.464   7.013   3.787 -0.3874 -1.3075  0.2041
  113MOL   H21738521   6.357   7.251   3.779 -3.3628 -2.1543 -0.9199
  113MOL   H21838522   6.599   7.316   3.822 -1.6326 -0.1899 -0.1476
  113MOL   H21938523   6.746   7.402   3.998 -0.2714  1.2108  0.7840
  113MOL   H22038524   6.700   7.347   4.242  0.0803  1.3599 -0.7796
  113MOL   H22138525   6.494   7.216   4.298  2.2649 -1.6871  0.4583
  113MOL   H22238526   6.349   7.131   4.123  0.4023 -1.4826  0.6952
  113MOL   C22338527   6.152   7.297   3.866 -0.3798 -0.3880 -0.5106
  113MOL   C22438528   6.065   7.250   3.752  0.0254 -0.0183  0.3444
  113MOL   C22538529   5.944   7.181   3.807  0.0006  0.0189 -0.4367
  113MOL   C22638530   5.817   7.229   3.773  0.3520  0.6077 -0.5990
  113MOL   C22738531   5.709   7.162   3.825  0.1767 -0.3718  0.3208
  113MOL   C22838532   5.716   7.035   3.887 -0.1048 -0.0102  0.3967
  113MOL   C22938533   5.845   6.993   3.927 -0.4686 -0.0160 -0.6954
  113MOL   C23038534   5.958   7.068   3.889 -0.7801  0.0783  0.5003
  113MOL   O23138535   6.030   7.357   3.658 -0.1468 -0.1812 -0.0525
  113MOL   H23238536   6.088   7.336   3.945 -1.5315  2.1926 -2.6596
  113MOL   H23338537   6.212   7.378   3.827 -2.8879  1.5784 -0.4034
  113MOL   H23438538   6.119   7.168   3.705 -0.1317  0.1730 -0.1753
  113MOL   H23538539   5.804   7.310   3.703 -0.3243  0.1508 -1.0056
  113MOL   H23638540   5.607   7.192   3.803 -0.1764 -2.1917 -0.6884
  113MOL   H23738541   5.628   6.974   3.906 -0.4038  0.1521 -0.4440
  113MOL   H23838542   5.868   6.906   3.987  0.8284 -0.2178 -1.4638
  113MOL   H23938543   6.055   7.026   3.910 -0.5223  0.3566 -0.1264
  113MOL   C24038544   6.090   7.344   3.534  0.3922  0.1691  0.4407
  113MOL   C24138545   6.044   7.455   3.439  0.6801 -0.2779  0.4175
  113MOL   C24238546   6.058   7.601   3.500 -0.1997  0.5955 -0.5801
  113MOL   C24338547   5.957   7.654   3.585  0.4600  0.0826  0.8806
  113MOL   C24438548   5.956   7.786   3.634  0.0228  0.0752 -1.1608
  113MOL   C24538549   6.063   7.864   3.595  0.1543  0.3475  0.4189
  113MOL   C24638550   6.176   7.820   3.521  0.6747  0.5495  0.4598
  113MOL   C24738551   6.172   7.681   3.480  0.2666 -0.4920  0.4150
  113MOL   O24838552   6.091   7.448   3.305 -0.6081 -0.1839  0.3045
  113MOL   H24938553   6.199   7.355   3.535  0.2069  2.0798  0.3938
  113MOL   H25038554   6.063   7.246   3.493  1.1143 -0.6827  1.9523
  113MOL   H25138555   5.937   7.441   3.426  1.0283 -1.7295 -0.9995
  113MOL   H25238556   5.868   7.594   3.595  1.7339 -2.1554 -0.7388
  113MOL   H25338557   5.871   7.826   3.689  0.4427 -0.7350  0.1155
  113MOL   H25438558   6.069   7.969   3.622  1.0774  0.6120 -0.7993
  113MOL   H25538559   6.256   7.889   3.496  0.3442 -0.5067 -3.9096
  113MOL   H25638560   6.259   7.642   3.429  1.0858  1.2154  0.4486
  113MOL   C25738561   6.002   7.386   3.216  0.1821 -0.8037 -0.2758
  113MOL   C25838562   6.062   7.373   3.072  0.3071  0.3178  0.5154
  113MOL   C25938563   6.151   7.487   3.028 -0.6512 -0.7085 -0.5314
  113MOL   C26038564   6.103   7.577   2.932  0.6515 -0.3924 -0.0438
  113MOL   C26138565   6.184   7.679   2.890 -0.3454 -0.6938 -0.2870
  113MOL   C26238566   6.318   7.697   2.939 -0.1166  0.3305  0.0481
  113MOL   C26338567   6.373   7.604   3.025 -0.2417  0.4222 -0.6130
  113MOL   C26438568   6.287   7.504   3.080  0.3988  0.0122  0.8411
  113MOL   O26538569   5.958   7.353   2.978  0.1252  0.2197 -0.0939
  113MOL   H26638570   5.922   7.460   3.215 -0.1802 -1.1926 -3.2739
  113MOL   H26738571   5.974   7.287   3.252 -1.1728  0.0459  1.0787
  113MOL   H26838572   6.119   7.282   3.054  2.2338  1.6450 -0.2399
  113MOL   H26938573   6.002   7.563   2.895  0.2847  2.3184 -0.2130
  113MOL   H27038574   6.143   7.748   2.818 -0.5939  0.7088  1.1730
  113MOL   H27138575   6.376   7.775   2.892  1.4733 -0.4610  0.6628
  113MOL   H27238576   6.475   7.607   3.060 -0.3764  0.6065 -0.2290
  113MOL   H27338577   6.320   7.425   3.145  1.8176 -0.0883  0.0160
  113MOL   C27438578   5.868   7.243   3.000 -0.3787 -0.3387 -0.5802
  113MOL   C27538579   5.803   7.195   2.875 -0.0705  0.8012  0.0266
  113MOL   C27638580   5.909   7.159   2.770 -0.4511 -0.1013  0.1746
  113MOL   C27738581   5.989   7.263   2.709  0.3979 -0.2158 -0.2587
  113MOL   C27838582   6.090   7.233   2.615  0.4538 -0.0368 -0.3056
  113MOL   C27938583   6.123   7.097   2.600 -0.1405 -0.3674 -0.2006
  113MOL   C28038584   6.054   6.997   2.661 -0.4060 -1.0682  0.0336
  113MOL   C28138585   5.942   7.023   2.740  0.7950  0.2875 -0.1005
  113MOL   O28238586   5.727   7.303   2.825 -0.0483 -0.7902 -0.2022
  113MOL   H28338587   5.934   7.168   3.044  1.2602  2.7128  2.4879
  113MOL   H28438588   5.792   7.282   3.069 -1.7816 -3.6907 -0.1262
  113MOL   H28538589   5.732   7.118   2.905  1.2122 -0.2316  0.4432
  113MOL   H28638590   5.970   7.366   2.733  1.0705 -0.4072  1.1336
  113MOL   H28738591   6.144   7.314   2.568  0.2109 -0.0890 -0.6755
  113MOL   H28838592   6.211   7.066   2.546  0.0320  0.6100 -0.4966
  113MOL   H28938593   6.103   6.901   2.657 -0.0533 -0.8650 -0.8242
  113MOL   H29038594   5.889   6.942   2.788  2.0197 -0.1095  0.5957
  113MOL   C29138595   5.624   7.282   2.737  0.6278  0.0447 -0.2445
  113MOL   C29238596   5.482   7.277   2.805 -0.0581  0.1382 -0.0937
  113MOL   C29338597   5.382   7.269   2.691  0.2128  0.2319  0.0817
  113MOL   C29438598   5.275   7.364   2.683 -0.1092  0.1597  0.0266
  113MOL   C29538599   5.186   7.351   2.575  0.3868  0.0092 -0.8457
  113MOL   C29638600   5.186   7.240   2.489 -0.1097 -0.3838 -0.1830
  113MOL   C29738601   5.287   7.139   2.502 -0.1224  0.1413 -0.3772
  113MOL   C29838602   5.388   7.150   2.607  0.8398 -0.2123 -0.6310
  113MOL   O29938603   5.478   7.165   2.890  0.1223 -0.2386  0.1751
  113MOL   H30038604   5.643   7.195   2.675  0.3895  0.3535 -0.7572
  113MOL   H30138605   5.629   7.371   2.674  2.8349 -1.9015 -2.8885
  113MOL   H30238606   5.461   7.361   2.871 -0.9942 -1.0880  1.2020
  113MOL   H30338607   5.273   7.450   2.748  0.3281 -0.4709  0.8906
  113MOL   H30438608   5.103   7.420   2.562 -0.5279 -1.1067 -1.0097
  113MOL   H30538609   5.113   7.244   2.409 -2.7795 -1.3259  2.1266
  113MOL   H30638610   5.278   7.046   2.447 -0.8044 -0.9130  1.4660
  113MOL   H30738611   5.459   7.072   2.629 -0.7553 -1.2960  0.8144
  113MOL   C30838612   5.351   7.156   2.959 -0.6515 -0.1183  0.0473
  113MOL   C30938613   5.358   7.031   3.058 -0.5696 -0.3661 -0.2876
  113MOL   C31038614   5.244   7.027   3.152  0.5663  0.6004 -0.3123
  113MOL   C31138615   5.137   6.935   3.140 -0.1401 -0.3948 -0.3348
  113MOL   C31238616   5.038   6.943   3.237 -0.0731  0.4399 -0.6209
  113MOL   C31338617   5.038   7.033   3.341  0.1630 -1.2433  0.0549
  113MOL   C31438618   5.140   7.127   3.344  0.1305  0.0291  0.2826
  113MOL   C31538619   5.242   7.127   3.250  0.0794  0.0145 -0.4033
  113MOL   O31638620   5.367   6.906   2.993 -0.4178 -0.1658 -0.3086
  113MOL   H31738621   5.261   7.154   2.898  1.6484 -2.7253 -3.4021
  113MOL   H31838622   5.346   7.247   3.019  1.2756  1.3511 -1.9667
  113MOL   H31938623   5.443   7.047   3.125 -1.9795 -1.1475  1.7199
  113MOL   H32038624   5.141   6.866   3.056  1.9714 -0.8313  0.0822
  113MOL   H32138625   4.949   6.882   3.228 -0.0104 -0.1602  2.1257
  113MOL   H32238626   4.959   7.032   3.414  1.1273 -2.1632  1.1128
  113MOL   H32338627   5.149   7.197   3.426  1.4516 -0.4503  0.5635
  113MOL   H32438628   5.317   7.204   3.261  1.3617 -1.0878 -1.3178
  113MOL   C32538629   5.487   6.832   3.000  0.4123  0.1926  0.1683
  113MOL   C32638630   5.532   6.778   2.864  0.1612 -0.2643 -0.2569
  113MOL   C32738631   5.422   6.711   2.783  0.4853  0.0050 -0.2164
  113MOL   C32838632   5.326   6.790   2.719 -0.2654 -0.2430  0.7058
  113MOL   C32938633   5.231   6.733   2.632  0.2480 -0.9640 -0.3281
  113MOL   C33038634   5.240   6.594   2.603 -0.1095 -0.4634 -0.8756
  113MOL   C33138635   5.327   6.512   2.676  0.1579 -0.1511  0.2744
  113MOL   C33238636   5.414   6.567   2.764 -0.1462 -0.4291 -0.2026
  113MOL   O33338637   5.583   6.895   2.801  0.1880  0.4175 -0.1240
  113MOL   H33438638   5.468   6.750   3.069 -0.8121 -2.0346 -2.7482
  113MOL   H33538639   5.576   6.882   3.039  2.0710 -1.9398 -0.7853
  113MOL   H33638640   5.613   6.709   2.885  0.8953  0.7636  0.3103
  113MOL   H33738641   5.330   6.895   2.742 -0.9496  0.0244 -0.3830
  113MOL   H33838642   5.149   6.789   2.589  1.0223  2.7576  2.7059
  113MOL   H33938643   5.181   6.563   2.518  1.1885  1.0954 -2.3568
  113MOL   H34038644   5.333   6.407   2.649 -0.1414 -0.7425  2.4011
  113MOL   H34138645   5.483   6.500   2.815  0.3500  1.2077  1.3072
  113MOL   H34238646   5.523   6.966   2.822 -2.5425 -1.1068 -2.5130
  114MOL     C138647   5.998   2.686   3.392  0.2973 -0.4169 -0.0935
  114MOL     C238648   5.933   2.599   3.495  0.4016  0.6656 -0.1254
  114MOL     C338649   6.013   2.610   3.629 -0.3173  0.2671 -0.2036
  114MOL     C438650   6.105   2.509   3.677  0.6165 -0.3014 -1.1686
  114MOL     C538651   6.179   2.535   3.797 -0.6300 -0.0357  0.3051
  114MOL     C638652   6.173   2.663   3.857  0.0627  0.3325  0.4682
  114MOL     C738653   6.090   2.760   3.810 -0.2159 -0.1875  0.5129
  114MOL     C838654   6.019   2.736   3.691  0.7619 -0.8876  0.0951
  114MOL     O938655   5.939   2.463   3.447  0.3658  0.4546 -0.3284
  114MOL    H1038656   6.006   2.791   3.421  2.4893 -0.2444 -1.2612
  114MOL    H1138657   6.091   2.635   3.366 -0.5401 -1.4710 -1.0962
  114MOL    H1238658   5.831   2.632   3.512  1.1161  1.6004  2.5216
  114MOL    H1338659   6.115   2.413   3.629  1.8393  0.7983 -3.2060
  114MOL    H1438660   6.250   2.464   3.836 -1.0480 -1.3005 -1.1836
  114MOL    H1538661   6.233   2.678   3.945 -0.6187 -1.8075  1.3440
  114MOL    H1638662   6.085   2.860   3.852 -0.8822  1.2038 -2.6781
  114MOL    H1738663   5.960   2.817   3.652  1.3616  0.5680  2.1180
  114MOL    H1838664   5.937   2.665   3.303 -0.8631 -2.0533  1.0554
  114MOL    C1938665   5.804   2.411   3.429 -1.1705 -0.5260 -0.0530
  114MOL    C2038666   5.745   2.411   3.283 -0.1649 -0.3776 -0.0699
  114MOL    C2138667   5.858   2.370   3.193 -0.4015 -0.1373  0.7607
  114MOL    C2238668   5.904   2.240   3.188 -0.4034 -0.9492  0.0169
  114MOL    C2338669   5.994   2.192   3.093  0.9347  0.0751  0.0428
  114MOL    C2438670   6.047   2.287   3.002 -0.0254  0.1473 -0.3881
  114MOL    C2538671   6.008   2.421   3.008 -0.4278  1.1735 -0.5499
  114MOL    C2638672   5.915   2.461   3.102  0.3377  0.2481  0.0317
  114MOL    O2738673   5.695   2.544   3.262 -0.0085  0.2132 -0.0421
  114MOL    H2838674   5.826   2.305   3.441  0.4682 -0.3864 -1.5248
  114MOL    H2938675   5.735   2.440   3.507 -0.5335 -0.9773  0.6902
  114MOL    H3038676   5.663   2.339   3.275  0.9100 -1.6956  0.5761
  114MOL    H3138677   5.845   2.166   3.242  0.5500 -0.6829  1.4382
  114MOL    H3238678   6.016   2.086   3.095  0.8084  0.0635  1.5486
  114MOL    H3338679   6.113   2.255   2.923 -1.0942 -0.4241 -1.0708
  114MOL    H3438680   6.048   2.494   2.939  0.4921  0.3364 -0.9024
  114MOL    H3538681   5.882   2.563   3.088 -2.4833  0.0326  4.1164
  114MOL    C3638682   5.607   2.568   3.146 -1.0033  0.1996 -0.1831
  114MOL    C3738683   5.503   2.674   3.175  1.2101  0.6569 -0.1692
  114MOL    C3838684   5.394   2.675   3.057 -0.6057 -0.0079 -0.2408
  114MOL    C3938685   5.416   2.734   2.932 -0.0557  0.5858  0.0806
  114MOL    C4038686   5.321   2.731   2.828  0.9055 -0.0611 -0.4418
  114MOL    C4138687   5.200   2.655   2.853 -0.4658  0.8733 -0.2314
  114MOL    C4238688   5.180   2.596   2.975 -0.2947  1.0455 -0.3282
  114MOL    C4338689   5.281   2.603   3.081 -0.2435  0.0876  0.3674
  114MOL    O4438690   5.557   2.800   3.184 -0.2986 -0.2493  0.3691
  114MOL    H4538691   5.663   2.592   3.056 -0.0853 -0.8750  0.0970
  114MOL    H4638692   5.546   2.480   3.126 -1.2498  0.3798 -0.2368
  114MOL    H4738693   5.443   2.656   3.264 -1.4121 -0.6330 -2.1302
  114MOL    H4838694   5.514   2.775   2.910  1.2392 -2.7235 -0.5310
  114MOL    H4938695   5.340   2.781   2.734 -1.1856 -1.4914 -1.6476
  114MOL    H5038696   5.124   2.650   2.777 -0.9903  2.1839  0.1889
  114MOL    H5138697   5.090   2.538   2.993  0.2241  1.1918  3.1228
  114MOL    H5238698   5.255   2.568   3.180 -0.4332  1.9486  0.9863
  114MOL    C5338699   5.617   2.816   3.314 -0.1436  0.3966  0.6568
  114MOL    C5438700   5.681   2.953   3.326  0.4427 -0.1700  0.3084
  114MOL    C5538701   5.678   2.994   3.470 -0.3430 -0.8070 -0.0036
  114MOL    C5638702   5.802   3.007   3.543  0.2809 -0.0324  0.4565
  114MOL    C5738703   5.806   3.050   3.676  0.0521  0.4448  0.0422
  114MOL    C5838704   5.686   3.079   3.743  0.2274  0.1593 -0.8316
  114MOL    C5938705   5.566   3.065   3.671 -0.3188  0.2653 -0.3437
  114MOL    C6038706   5.561   3.014   3.540  0.2477 -0.4740  0.0176
  114MOL    O6138707   5.810   2.955   3.267  0.0524 -0.1470 -0.3151
  114MOL    H6238708   5.528   2.814   3.377 -2.3853 -1.5531 -2.4181
  114MOL    H6338709   5.699   2.749   3.340  1.1196  1.1190 -1.3229
  114MOL    H6438710   5.617   3.024   3.273  0.1947 -0.1904  0.5794
  114MOL    H6538711   5.895   3.000   3.489 -0.1600  0.2157 -0.3298
  114MOL    H6638712   5.899   3.041   3.729 -0.3147  0.7680  0.7452
  114MOL    H6738713   5.687   3.109   3.847  2.1971  0.1463 -0.8339
  114MOL    H6838714   5.479   3.094   3.727 -0.2195  1.6584 -0.9055
  114MOL    H6938715   5.470   2.997   3.484  0.8294 -0.2994 -1.0102
  114MOL    C7038716   5.811   2.902   3.133 -0.2144  0.3174 -0.0056
  114MOL    C7138717   5.950   2.918   3.062 -0.5041 -0.0937 -0.1484
  114MOL    C7238718   5.995   3.063   3.072  0.2884 -0.1193  0.1748
  114MOL    C7338719   6.052   3.118   3.190  0.1834  0.1002 -0.2695
  114MOL    C7438720   6.090   3.252   3.189 -0.6512  0.1290 -0.6310
  114MOL    C7538721   6.060   3.340   3.084 -0.8918  0.4772  0.1476
  114MOL    C7638722   5.989   3.291   2.974 -0.3979 -0.0673  0.3566
  114MOL    C7738723   5.964   3.154   2.966  0.2824  0.1222  0.0173
  114MOL    O7838724   5.926   2.881   2.928  0.6146  0.3617  0.4663
  114MOL    H7938725   5.792   2.794   3.130  1.3034  0.0058  0.8376
  114MOL    H8038726   5.735   2.950   3.072  0.5713 -1.5495 -2.5686
  114MOL    H8138727   6.014   2.854   3.123  0.3179  1.6291  0.8578
  114MOL    H8238728   6.076   3.063   3.280  0.1695  2.3718  1.1745
  114MOL    H8338729   6.147   3.291   3.272 -0.2461 -0.8175 -0.4569
  114MOL    H8438730   6.092   3.444   3.087  2.8275 -0.6324  2.1224
  114MOL    H8538731   5.965   3.359   2.894 -1.2800 -0.2942  0.4289
  114MOL    H8638732   5.915   3.111   2.880 -2.2681  0.5338  1.1901
  114MOL    C8738733   6.039   2.808   2.874 -0.0230  0.3562 -0.6126
  114MOL    C8838734   6.022   2.756   2.729  0.1533 -0.1003  0.4331
  114MOL    C8938735   5.886   2.686   2.703 -0.6355 -0.3430 -0.1795
  114MOL    C9038736   5.773   2.765   2.696  0.2149  0.1451 -0.1027
  114MOL    C9138737   5.642   2.709   2.693  0.0255 -0.7224 -0.1716
  114MOL    C9238738   5.630   2.571   2.695 -0.5291  0.0117  0.3268
  114MOL    C9338739   5.745   2.489   2.694 -0.0249 -0.1914  0.5931
  114MOL    C9438740   5.875   2.546   2.699  0.4605 -0.6989  0.1863
  114MOL    O9538741   6.133   2.677   2.678 -0.4916  0.1136 -0.0359
  114MOL    H9638742   6.076   2.726   2.936  0.0038  0.0506 -1.0336
  114MOL    H9738743   6.120   2.880   2.865 -0.0226  0.3224 -0.8658
  114MOL    H9838744   6.007   2.848   2.672 -1.1872  0.2742  1.3782
  114MOL    H9938745   5.790   2.872   2.704  3.1476 -0.2431 -0.7746
  114MOL   H10038746   5.551   2.767   2.685  1.5213  1.6299 -0.3758
  114MOL   H10138747   5.533   2.525   2.686 -0.0669 -1.1195  1.0100
  114MOL   H10238748   5.722   2.384   2.695 -0.6382 -0.0767 -0.4762
  114MOL   H10338749   5.964   2.485   2.701 -0.1044 -1.5820 -1.1744
  114MOL   C10438750   6.245   2.753   2.617 -1.1969 -0.1810  0.0832
  114MOL   C10538751   6.369   2.675   2.570  0.2831 -0.3934 -0.6967
  114MOL   C10638752   6.343   2.571   2.456  0.0257  0.0750 -0.9188
  114MOL   C10738753   6.334   2.612   2.321 -0.0961  0.8613  0.0571
  114MOL   C10838754   6.336   2.516   2.220  0.2651  0.5347  0.3136
  114MOL   C10938755   6.361   2.376   2.239 -0.3506 -0.1450  0.5052
  114MOL   C11038756   6.366   2.335   2.375 -0.2341 -0.0316 -0.1744
  114MOL   C11138757   6.368   2.434   2.480  0.0245  0.0487  0.2497
  114MOL   O11238758   6.461   2.770   2.530 -0.0475  0.0209  0.3391
  114MOL   H11338759   6.198   2.817   2.542 -2.1302  0.5971  1.3215
  114MOL   H11438760   6.281   2.812   2.700 -1.0844 -0.5594  0.3049
  114MOL   H11538761   6.396   2.619   2.660 -0.7338 -0.0242 -0.1447
  114MOL   H11638762   6.331   2.714   2.287  2.5338  0.6363 -0.9571
  114MOL   H11738763   6.319   2.544   2.117 -0.5056 -1.3050 -0.0725
  114MOL   H11838764   6.358   2.306   2.157 -2.2834 -0.6282  0.9725
  114MOL   H11938765   6.375   2.228   2.390 -0.2755  0.4457  3.8010
  114MOL   H12038766   6.381   2.405   2.583 -2.0783  0.2825  0.6023
  114MOL   C12138767   6.591   2.726   2.554  0.2152  0.0718  0.6487
  114MOL   C12238768   6.677   2.800   2.461 -0.0024 -0.7253 -0.1099
  114MOL   C12338769   6.664   2.775   2.312  0.4617  0.7186  0.5322
  114MOL   C12438770   6.699   2.648   2.265 -0.1090 -0.7623 -0.4402
  114MOL   C12538771   6.669   2.612   2.132 -0.1574  0.2351 -0.2651
  114MOL   C12638772   6.588   2.696   2.052  0.5636 -0.4043  0.1735
  114MOL   C12738773   6.551   2.823   2.096  0.5947 -0.0090 -0.0551
  114MOL   C12838774   6.594   2.861   2.224  0.0602  0.1258  0.4866
  114MOL   O12938775   6.664   2.941   2.494 -0.0782 -1.1255 -0.0651
  114MOL   H13038776   6.610   2.619   2.559 -1.6284 -0.3326 -0.5572
  114MOL   H13138777   6.622   2.760   2.653  1.7853 -0.9432  0.5139
  114MOL   H13238778   6.781   2.773   2.481  0.2750 -0.3453 -1.0401
  114MOL   H13338779   6.745   2.572   2.326 -0.3185  2.4134  3.8868
  114MOL   H13438780   6.703   2.514   2.103  0.5693  0.2476  0.5073
  114MOL   H13538781   6.573   2.671   1.948  0.9868 -2.1072  0.5074
  114MOL   H13638782   6.497   2.887   2.028 -0.8683 -0.9474  0.2061
  114MOL   H13738783   6.563   2.957   2.261 -1.2562 -0.2814  0.4951
  114MOL   C13838784   6.765   3.036   2.443  0.2048  0.2980 -0.0631
  114MOL   C13938785   6.721   3.182   2.487 -0.8543  0.5051 -0.0084
  114MOL   C14038786   6.817   3.286   2.456  0.0663  0.2143 -0.3804
  114MOL   C14138787   6.923   3.272   2.360 -0.6405  0.1039 -0.2152
  114MOL   C14238788   7.031   3.365   2.357 -0.1133 -0.0213  0.0365
  114MOL   C14338789   7.019   3.485   2.430 -0.3281  0.0754  0.1388
  114MOL   C14438790   6.914   3.501   2.520 -0.1338 -0.8515  0.6669
  114MOL   C14538791   6.819   3.399   2.542 -0.0622  0.7524 -0.1177
  114MOL   O14638792   6.604   3.221   2.418 -0.0408  0.0490 -0.0293
  114MOL   H14738793   6.771   3.044   2.335  0.2497  1.5992  0.0283
  114MOL   H14838794   6.865   3.010   2.479  0.8012  2.1006 -0.3544
  114MOL   H14938795   6.695   3.194   2.591  0.1865  1.9567  0.0990
  114MOL   H15038796   6.932   3.184   2.299 -1.5738  0.2542 -0.5888
  114MOL   H15138797   7.126   3.343   2.310  1.3987 -0.6357  3.2737
  114MOL   H15238798   7.104   3.552   2.426 -0.8352  0.8470  1.8271
  114MOL   H15338799   6.906   3.587   2.586  4.0221  0.3000 -0.2201
  114MOL   H15438800   6.738   3.419   2.612  0.1054  0.0933  0.2724
  114MOL   C15538801   6.480   3.203   2.487  0.6417  0.0937 -0.1360
  114MOL   C15638802   6.371   3.191   2.382  0.4206  0.2658 -0.1478
  114MOL   C15738803   6.235   3.166   2.451 -0.4635  0.6514 -0.0734
  114MOL   C15838804   6.168   3.044   2.434  0.0737  0.1805  0.4669
  114MOL   C15938805   6.039   3.025   2.490 -0.5117 -0.2218  0.0139
  114MOL   C16038806   5.984   3.124   2.575 -0.5732 -0.2051  0.4200
  114MOL   C16138807   6.059   3.242   2.602 -0.0034  0.0477 -0.2475
  114MOL   C16238808   6.184   3.265   2.537  0.1554 -0.0561  0.3276
  114MOL   O16338809   6.360   3.317   2.310 -0.2338 -0.1472 -0.5902
  114MOL   H16438810   6.449   3.285   2.551  2.4436  1.8465 -1.4573
  114MOL   H16538811   6.485   3.108   2.541  0.4108 -0.2680 -0.7383
  114MOL   H16638812   6.385   3.107   2.314  1.0005 -0.5772  0.9913
  114MOL   H16738813   6.218   2.970   2.374  0.2053  0.0498  0.7356
  114MOL   H16838814   5.981   2.935   2.479 -2.3147  1.0811 -1.4901
  114MOL   H16938815   5.887   3.109   2.621 -1.1215  0.3852 -0.5346
  114MOL   H17038816   6.022   3.319   2.668 -0.4211 -1.9579  1.9416
  114MOL   H17138817   6.230   3.362   2.548 -1.7177  1.0662 -1.4966
  114MOL   C17238818   6.323   3.299   2.174 -0.3743  0.4036  0.0571
  114MOL   C17338819   6.437   3.270   2.079  0.0821  0.0145  0.5234
  114MOL   C17438820   6.528   3.392   2.055  0.4006  0.0256  0.0914
  114MOL   C17538821   6.650   3.395   2.127 -0.0938  0.8376 -0.4986
  114MOL   C17638822   6.734   3.514   2.115  0.8459 -0.1403 -0.2821
  114MOL   C17738823   6.687   3.623   2.042 -0.1284  0.0047  0.0194
  114MOL   C17838824   6.563   3.612   1.971  0.2905  0.5258 -0.1730
  114MOL   C17938825   6.484   3.498   1.979  0.5607 -0.3029  0.9431
  114MOL   O18038826   6.382   3.207   1.964 -0.3618  0.1605  0.9779
  114MOL   H18138827   6.250   3.218   2.180  1.0829 -0.8552  1.5656
  114MOL   H18238828   6.260   3.383   2.145 -1.3624  0.0154  1.0384
  114MOL   H18338829   6.496   3.200   2.137 -0.0333 -0.9859 -0.5422
  114MOL   H18438830   6.672   3.309   2.188 -0.3708  0.1374 -1.3731
  114MOL   H18538831   6.817   3.519   2.183 -1.1151  0.3713  2.1453
  114MOL   H18638832   6.746   3.714   2.045 -0.4230  0.1604  1.5143
  114MOL   H18738833   6.530   3.702   1.921  1.4474  0.8099 -0.4466
  114MOL   H18838834   6.385   3.509   1.938  0.4891 -0.7812  0.9926
  114MOL   C18938835   6.465   3.160   1.869 -0.3035 -0.1094 -0.5862
  114MOL   C19038836   6.383   3.102   1.749  0.0702 -0.1192 -0.2360
  114MOL   C19138837   6.459   2.997   1.676 -0.0766 -0.3478 -0.1176
  114MOL   C19238838   6.447   2.864   1.717  0.0881  0.5134  0.0695
  114MOL   C19338839   6.523   2.762   1.648 -0.3673  0.0926 -0.7040
  114MOL   C19438840   6.603   2.796   1.543  0.1674  0.2803  0.6681
  114MOL   C19538841   6.615   2.924   1.496 -0.5758 -0.0339 -0.6515
  114MOL   C19638842   6.549   3.021   1.568  0.4934 -0.4007 -0.7429
  114MOL   O19738843   6.347   3.205   1.659 -0.1687 -0.1784 -0.0620
  114MOL   H19838844   6.535   3.234   1.831  0.8873 -1.0879 -0.3385
  114MOL   H19938845   6.528   3.082   1.911  0.9541  1.3093  0.2326
  114MOL   H20038846   6.292   3.051   1.780  1.8649 -2.7843  0.7859
  114MOL   H20138847   6.394   2.830   1.805  1.6866 -2.6420 -0.1266
  114MOL   H20238848   6.514   2.659   1.678  2.1492  0.6786  2.2768
  114MOL   H20338849   6.648   2.717   1.486 -3.3588 -0.6838 -0.9271
  114MOL   H20438850   6.676   2.945   1.409  1.3445  0.0855  0.6997
  114MOL   H20538851   6.555   3.121   1.527  0.5908 -0.5813 -1.1766
  114MOL   C20638852   6.248   3.295   1.711  0.1303  0.9470  0.0919
  114MOL   C20738853   6.220   3.400   1.612 -0.6455  0.3266 -0.2966
  114MOL   C20838854   6.350   3.447   1.543 -0.8452  0.6003  0.0118
  114MOL   C20938855   6.400   3.390   1.421 -0.0371  0.1759  0.2353
  114MOL   C21038856   6.500   3.462   1.349 -0.5686 -1.0181  0.5130
  114MOL   C21138857   6.554   3.581   1.388 -0.7836  0.0869  0.1585
  114MOL   C21238858   6.511   3.627   1.513 -0.0931  0.2569 -0.6283
  114MOL   C21338859   6.412   3.563   1.588 -0.5121 -0.2210 -0.1825
  114MOL   O21438860   6.164   3.513   1.685  0.4862 -0.2410  0.0187
  114MOL   H21538861   6.168   3.247   1.766  2.5333  0.0995  2.9930
  114MOL   H21638862   6.298   3.344   1.794  0.5286  0.2691  0.2574
  114MOL   H21738863   6.153   3.362   1.535 -2.1579  2.3510 -0.0295
  114MOL   H21838864   6.357   3.296   1.388  1.1621  0.5762 -2.6510
  114MOL   H21938865   6.534   3.418   1.257 -0.0484 -0.2968  0.3603
  114MOL   H22038866   6.633   3.631   1.333  0.7669 -0.1191  2.1563
  114MOL   H22138867   6.546   3.723   1.547  0.6775  0.3226 -1.5771
  114MOL   H22238868   6.389   3.608   1.684  0.4249 -1.0884  0.4647
  114MOL   C22338869   6.086   3.595   1.601 -0.1452 -0.2085  0.2783
  114MOL   C22438870   6.038   3.723   1.679  0.4225 -0.0431  0.3355
  114MOL   C22538871   6.164   3.803   1.709 -0.6108 -0.2342  0.0626
  114MOL   C22638872   6.223   3.803   1.841 -0.1658 -0.2482 -0.4358
  114MOL   C22738873   6.335   3.889   1.867  0.0055 -0.3427  0.3048
  114MOL   C22838874   6.383   3.973   1.770 -0.6025  0.2581  0.2092
  114MOL   C22938875   6.322   3.970   1.641 -0.1187 -0.1231 -0.2121
  114MOL   C23038876   6.213   3.885   1.609  0.2153 -0.9162  0.3111
  114MOL   O23138877   5.946   3.781   1.587 -0.0016 -0.3490 -0.6862
  114MOL   H23238878   6.142   3.623   1.512 -1.9245  2.4146 -0.0644
  114MOL   H23338879   6.003   3.532   1.569 -0.2948 -0.9347  2.0087
  114MOL   H23438880   5.982   3.706   1.771  2.4227  0.2139  1.6482
  114MOL   H23538881   6.179   3.746   1.921 -0.9399  0.1371 -0.5770
  114MOL   H23638882   6.381   3.900   1.964  3.2898  1.0073 -1.3358
  114MOL   H23738883   6.459   4.046   1.795  0.1788 -1.0550  1.7763
  114MOL   H23838884   6.359   4.042   1.569 -1.2781  0.0455 -0.6517
  114MOL   H23938885   6.170   3.896   1.511 -0.1437 -0.4250  0.5226
  114MOL   C24038886   5.877   3.893   1.648  0.1380  0.4190 -0.0694
  114MOL   C24138887   5.837   3.984   1.527  0.4551 -0.2972 -0.3243
  114MOL   C24238888   5.743   3.903   1.434 -0.4612 -1.1757  1.4638
  114MOL   C24338889   5.799   3.827   1.325 -0.7088 -0.0404  0.0336
  114MOL   C24438890   5.719   3.749   1.241  0.2062 -0.0702  1.1077
  114MOL   C24538891   5.583   3.744   1.268 -0.3450  0.3565 -0.4486
  114MOL   C24638892   5.530   3.828   1.368  0.2771  0.6343  0.1681
  114MOL   C24738893   5.603   3.910   1.449 -0.2128 -0.4325  0.2161
  114MOL   O24838894   5.764   4.100   1.575  0.4451  0.5006 -0.2586
  114MOL   H24938895   5.795   3.848   1.704  0.0471 -0.7765 -1.1219
  114MOL   H25038896   5.943   3.944   1.717  1.1865 -2.6722  1.3159
  114MOL   H25138897   5.925   4.017   1.472  1.7462 -1.8010  0.7591
  114MOL   H25238898   5.906   3.828   1.310 -0.5414 -0.4174  1.1044
  114MOL   H25338899   5.765   3.691   1.163 -2.3913 -2.1225  1.0348
  114MOL   H25438900   5.508   3.691   1.210  0.6235 -0.7254 -0.7319
  114MOL   H25538901   5.424   3.844   1.383 -0.0367  1.3804 -2.6112
  114MOL   H25638902   5.543   3.963   1.521  0.0038  0.8619 -0.5354
  114MOL   C25738903   5.841   4.213   1.608 -0.2869  0.2484  0.4533
  114MOL   C25838904   5.870   4.289   1.479  0.1111  0.3950 -0.7792
  114MOL   C25938905   5.758   4.282   1.379  1.1538  0.1532 -0.5378
  114MOL   C26038906   5.755   4.205   1.261  0.4514 -0.1081  0.4267
  114MOL   C26138907   5.651   4.209   1.166  0.3301  0.1840  0.4172
  114MOL   C26238908   5.536   4.285   1.186  0.7221  0.2444  0.2652
  114MOL   C26338909   5.543   4.369   1.303  0.2330  0.2657  0.2754
  114MOL   C26438910   5.647   4.364   1.399 -0.2036  0.7450  0.3209
  114MOL   O26538911   6.003   4.245   1.425 -0.2723  0.4279  0.7213
  114MOL   H26638912   5.926   4.175   1.665 -0.0437  1.7631  1.1218
  114MOL   H26738913   5.773   4.264   1.675 -1.4342  0.9302 -1.1958
  114MOL   H26838914   5.892   4.393   1.504  5.0826 -0.7759  0.2984
  114MOL   H26938915   5.843   4.150   1.232  0.4245 -0.5643  1.1814
  114MOL   H27038916   5.647   4.128   1.095 -0.3008  0.8275 -0.2900
  114MOL   H27138917   5.454   4.291   1.116  0.5383  1.3781  0.5641
  114MOL   H27238918   5.462   4.439   1.318  0.1912  0.0789  0.9048
  114MOL   H27338919   5.651   4.422   1.490  0.5398  2.1835 -0.6190
  114MOL   C27438920   6.056   4.341   1.338  0.0910  0.1364 -0.1297
  114MOL   C27538921   6.193   4.295   1.292 -0.4135 -0.2373  0.3836
  114MOL   C27638922   6.181   4.171   1.208 -0.6687  0.3174  0.3692
  114MOL   C27738923   6.186   4.176   1.063 -0.6763  0.5878  0.5592
  114MOL   C27838924   6.207   4.055   0.995  0.3776  0.4275  0.1450
  114MOL   C27938925   6.190   3.929   1.056  0.7253  0.1928 -0.9901
  114MOL   C28038926   6.166   3.924   1.200  0.3414  0.0060 -0.0887
  114MOL   C28138927   6.164   4.048   1.274  0.1124 -0.1801  0.0330
  114MOL   O28238928   6.280   4.272   1.406 -0.2903  0.4369  0.0901
  114MOL   H28338929   5.995   4.355   1.248  1.5175 -1.4208 -1.3678
  114MOL   H28438930   6.044   4.442   1.377  0.0141  0.3850 -0.7942
  114MOL   H28538931   6.225   4.370   1.219  0.5695 -1.3025 -0.2832
  114MOL   H28638932   6.201   4.271   1.013  0.0338 -0.0947 -0.5646
  114MOL   H28738933   6.232   4.072   0.891  0.8383  0.1111  0.2026
  114MOL   H28838934   6.207   3.839   0.998  0.6803 -1.5423  1.5424
  114MOL   H28938935   6.172   3.831   1.254  2.8392 -0.3231 -0.8800
  114MOL   H29038936   6.164   4.051   1.382  1.4363 -1.0753  0.0761
  114MOL   C29138937   6.314   4.396   1.472  0.7649  0.4013 -0.4867
  114MOL   C29238938   6.429   4.370   1.565 -0.1838 -0.9691 -0.6764
  114MOL   C29338939   6.573   4.395   1.510 -0.8749 -0.0796  0.0795
  114MOL   C29438940   6.603   4.355   1.377  0.1962  0.3317  0.0930
  114MOL   C29538941   6.736   4.365   1.331  0.6227 -0.3305 -0.3453
  114MOL   C29638942   6.837   4.416   1.410 -0.5680 -0.9453 -0.4486
  114MOL   C29738943   6.810   4.454   1.547  0.2587 -0.5354 -0.3164
  114MOL   C29838944   6.679   4.437   1.595  0.4839 -0.0351  0.0940
  114MOL   O29938945   6.413   4.428   1.689 -0.4327  0.2538 -0.1146
  114MOL   H30038946   6.222   4.419   1.525  1.5761  0.1641  1.0711
  114MOL   H30138947   6.351   4.479   1.411  2.3927  1.6658  2.1424
  114MOL   H30238948   6.435   4.263   1.584  1.0055 -0.7426  0.2998
  114MOL   H30338949   6.527   4.306   1.318  1.4206 -2.6589  0.8909
  114MOL   H30438950   6.753   4.331   1.230 -1.5398 -0.3047 -0.7445
  114MOL   H30538951   6.936   4.421   1.368 -1.4588 -1.4593 -2.7120
  114MOL   H30638952   6.882   4.500   1.614 -0.2228 -0.9857  0.5229
  114MOL   H30738953   6.658   4.463   1.698 -0.8096 -0.0131 -0.1698
  114MOL   C30838954   6.321   4.358   1.768 -0.3243  0.2430  0.7549
  114MOL   C30938955   6.248   4.453   1.864 -0.0112  0.9666 -0.4605
  114MOL   C31038956   6.148   4.542   1.790  0.3981  0.5228 -0.4273
  114MOL   C31138957   6.188   4.660   1.730 -0.1135  0.4634  0.0265
  114MOL   C31238958   6.102   4.738   1.652  0.7190 -0.2328 -0.5644
  114MOL   C31338959   5.963   4.698   1.638 -0.3624 -0.1406  0.7561
  114MOL   C31438960   5.925   4.578   1.695  0.1569 -0.3500  0.0075
  114MOL   C31538961   6.012   4.494   1.771  0.2883 -0.2689 -0.3253
  114MOL   O31638962   6.187   4.383   1.968 -0.8525 -0.1188  0.2811
  114MOL   H31738963   6.369   4.281   1.828 -0.5003  1.5882  2.7064
  114MOL   H31838964   6.247   4.313   1.702  1.7179 -2.1005  0.0156
  114MOL   H31938965   6.317   4.525   1.908  0.8335  0.3556 -0.7796
  114MOL   H32038966   6.291   4.691   1.738 -0.1807  0.8929 -0.7341
  114MOL   H32138967   6.147   4.826   1.608  0.9321 -0.0093  0.1115
  114MOL   H32238968   5.900   4.764   1.581 -0.8253 -0.3091  1.0734
  114MOL   H32338969   5.826   4.539   1.676 -0.0680 -0.2537  0.9342
  114MOL   H32438970   5.981   4.404   1.822 -0.3660 -1.2061 -2.3236
  114MOL   C32538971   6.173   4.456   2.084  0.3656 -0.0763 -0.9000
  114MOL   C32638972   6.074   4.378   2.170 -0.6913  0.2445 -0.3568
  114MOL   C32738973   5.921   4.385   2.128 -0.2067  0.0989 -0.2602
  114MOL   C32838974   5.839   4.492   2.174 -0.1755  0.3159 -0.0743
  114MOL   C32938975   5.710   4.508   2.126  0.3827  0.0823  0.0605
  114MOL   C33038976   5.644   4.402   2.055 -0.3414  0.4172  0.7480
  114MOL   C33138977   5.722   4.293   2.010 -0.8591  0.6552 -0.3171
  114MOL   C33238978   5.858   4.291   2.045  0.4582  0.0651  0.1103
  114MOL   O33338979   6.128   4.248   2.180  0.3128 -0.4166 -0.4599
  114MOL   H33438980   6.135   4.558   2.073 -0.6773 -0.6051 -2.5458
  114MOL   H33538981   6.269   4.450   2.134  0.5358 -0.0030 -1.2161
  114MOL   H33638982   6.081   4.419   2.270  0.4512 -1.2918  0.2220
  114MOL   H33738983   5.878   4.572   2.235 -1.3360 -0.0442  1.1656
  114MOL   H33838984   5.655   4.594   2.160  0.1342  0.0077 -0.1563
  114MOL   H33938985   5.538   4.406   2.035  0.3209  2.7504 -2.7698
  114MOL   H34038986   5.678   4.207   1.962  0.9852  0.2642 -1.3742
  114MOL   H34138987   5.919   4.207   2.013  0.0104 -0.3342  0.2956
  114MOL   H34238988   6.171   4.240   2.096  4.1981  0.1494  1.3959
  115MOL     C138989   7.162   0.519   7.822 -0.1497  0.0450 -0.2056
  115MOL     C238990   7.140   0.419   7.706 -0.2432 -0.1563 -0.2119
  115MOL     C338991   7.221   0.459   7.583 -0.5201  0.0503  0.2087
  115MOL     C438992   7.158   0.510   7.467  0.3738 -0.2057 -0.3773
  115MOL     C538993   7.235   0.551   7.356  0.3446 -0.0224  0.4150
  115MOL     C638994   7.378   0.530   7.363  0.7657  0.3016 -0.3378
  115MOL     C738995   7.438   0.476   7.477 -0.1222 -0.1429 -0.8843
  115MOL     C838996   7.360   0.450   7.590 -0.3297 -0.0298  0.2506
  115MOL     O938997   7.004   0.402   7.682  0.2211 -0.0845 -0.0712
  115MOL    H1038998   7.265   0.524   7.857 -0.1404 -1.1724 -0.0343
  115MOL    H1138999   7.138   0.621   7.793  1.3776  0.1339 -1.1943
  115MOL    H1239000   7.177   0.322   7.742 -0.4318 -1.4688 -3.3242
  115MOL    H1339001   7.052   0.528   7.459  0.0442 -1.4491  0.8724
  115MOL    H1439002   7.192   0.603   7.272 -0.1699  0.8581  1.2075
  115MOL    H1539003   7.433   0.565   7.277  0.1329  2.1215 -0.0228
  115MOL    H1639004   7.545   0.467   7.483  0.0093  1.9670  0.7792
  115MOL    H1739005   7.412   0.413   7.677 -1.4504  2.2586  1.9572
  115MOL    H1839006   7.089   0.493   7.899 -0.9540  1.3894 -0.4890
  115MOL    C1939007   6.976   0.285   7.611  0.3212  0.0762  0.2444
  115MOL    C2039008   6.823   0.296   7.596  0.0546  0.7994 -0.1974
  115MOL    C2139009   6.777   0.153   7.577  0.2773  0.2653  0.1681
  115MOL    C2239010   6.785   0.093   7.447  0.1154 -0.0537 -0.2784
  115MOL    C2339011   6.732   8.043   7.430  0.3085  0.4455  0.1796
  115MOL    C2439012   6.661   7.979   7.530 -0.1092  0.2004  0.0230
  115MOL    C2539013   6.649   8.037   7.656  0.8359 -0.1273  0.2911
  115MOL    C2639014   6.703   0.091   7.679  0.5774 -0.7557 -0.4612
  115MOL    O2739015   6.796   0.367   7.479  0.7377 -0.6452  0.2399
  115MOL    H2839016   7.028   0.286   7.515  0.3125  0.1037  0.2405
  115MOL    H2939017   7.006   0.190   7.656 -0.2911 -0.7801 -1.1301
  115MOL    H3039018   6.772   0.332   7.685  0.2991  1.4126 -0.2975
  115MOL    H3139019   6.844   0.140   7.370  0.3185 -0.7994 -0.5805
  115MOL    H3239020   6.755   7.987   7.340 -1.4044  0.7426 -0.4665
  115MOL    H3339021   6.610   7.886   7.512 -0.0230 -0.3279  2.3513
  115MOL    H3439022   6.590   7.996   7.737 -2.6304 -0.0167 -2.0864
  115MOL    H3539023   6.685   0.141   7.773 -0.4180 -0.5403 -0.7614
  115MOL    C3639024   6.670   0.428   7.472  0.5766  0.2544  0.6725
  115MOL    C3739025   6.638   0.468   7.326  0.6842  0.1355  0.0195
  115MOL    C3839026   6.680   0.612   7.310  0.6098 -0.2280 -0.4169
  115MOL    C3939027   6.810   0.648   7.277 -0.5238 -0.0845  0.0537
  115MOL    C4039028   6.841   0.786   7.246 -0.4818 -0.1125 -0.5672
  115MOL    C4139029   6.740   0.882   7.243 -0.0085  0.2000 -0.0913
  115MOL    C4239030   6.613   0.847   7.282  0.1733  0.4172 -0.6888
  115MOL    C4339031   6.580   0.712   7.313 -0.2454 -0.1961  0.8844
  115MOL    O4439032   6.501   0.450   7.318 -0.0215 -0.1050  0.3553
  115MOL    H4539033   6.595   0.352   7.495 -0.9472  0.8302 -2.2381
  115MOL    H4639034   6.666   0.511   7.543  0.0966 -0.1380  1.1081
  115MOL    H4739035   6.691   0.405   7.254 -1.3535  0.1765 -1.5503
  115MOL    H4839036   6.887   0.573   7.286 -1.1571 -0.9571 -1.5995
  115MOL    H4939037   6.942   0.812   7.218 -0.3594 -1.4153 -1.3873
  115MOL    H5039038   6.760   0.983   7.212 -0.7249  1.7198  4.1489
  115MOL    H5139039   6.534   0.920   7.287 -0.1741 -0.0653  1.0952
  115MOL    H5239040   6.481   0.691   7.350 -0.0025  2.1681  3.1036
  115MOL    C5339041   6.450   0.445   7.180  0.0959 -0.0593  0.2029
  115MOL    C5439042   6.363   0.323   7.152 -0.5945 -0.0914 -0.2534
  115MOL    C5539043   6.287   0.343   7.019  0.1820 -0.0953  0.0334
  115MOL    C5639044   6.194   0.446   7.002 -0.6088 -0.6448  0.1136
  115MOL    C5739045   6.130   0.452   6.876 -0.3174  0.0178  0.0890
  115MOL    C5839046   6.147   0.360   6.778  0.1948 -0.0806  0.2905
  115MOL    C5939047   6.239   0.257   6.798  0.1824 -0.0755  0.1334
  115MOL    C6039048   6.313   0.251   6.913  0.0924 -0.0825  0.5946
  115MOL    O6139049   6.434   0.198   7.144 -0.0073 -0.1250  0.3840
  115MOL    H6239050   6.388   0.535   7.174 -1.6160 -1.1744  0.8548
  115MOL    H6339051   6.524   0.453   7.100 -0.2765 -0.6022 -0.2008
  115MOL    H6439052   6.285   0.315   7.228 -0.4324 -1.7461 -0.2420
  115MOL    H6539053   6.174   0.522   7.076 -0.8208  1.3181 -1.9227
  115MOL    H6639054   6.063   0.533   6.852 -1.4910 -1.3904 -1.5640
  115MOL    H6739055   6.108   0.370   6.677 -1.7210  1.1276  1.1252
  115MOL    H6839056   6.270   0.182   6.726 -0.7319  0.2328 -0.5890
  115MOL    H6939057   6.397   0.184   6.911  1.2502  1.3635  0.3822
  115MOL    C7039058   6.460   0.145   7.274 -0.4575 -0.1976  0.0243
  115MOL    C7139059   6.365   0.032   7.297 -0.0298 -0.5672  0.2188
  115MOL    C7239060   6.315   8.041   7.172  0.3282 -0.2695  0.3379
  115MOL    C7339061   6.398   7.943   7.108 -0.0852 -0.6185  0.5938
  115MOL    C7439062   6.369   7.889   6.983 -0.4499 -0.2260 -0.0547
  115MOL    C7539063   6.249   7.928   6.923  0.1041 -0.6754  0.3624
  115MOL    C7639064   6.169   8.029   6.977  0.4127  0.3236 -0.3595
  115MOL    C7739065   6.199   0.004   7.102 -1.0783 -0.2071  0.4927
  115MOL    O7839066   6.264   0.074   7.388  0.0687 -0.5287  0.4646
  115MOL    H7939067   6.557   0.094   7.270 -0.4317 -0.3529  2.0111
  115MOL    H8039068   6.467   0.211   7.361 -2.1507  1.1868 -0.8757
  115MOL    H8139069   6.420   8.041   7.360  1.2338 -0.4422 -0.7228
  115MOL    H8239070   6.485   7.923   7.168  0.6976  0.3116 -0.2132
  115MOL    H8339071   6.440   7.826   6.932 -0.1519 -0.9194  1.2100
  115MOL    H8439072   6.227   7.895   6.823 -2.7753  0.1604  0.6829
  115MOL    H8539073   6.073   8.052   6.933 -0.4360 -0.6944  0.9441
  115MOL    H8639074   6.146   0.083   7.154 -2.5436 -0.2596 -0.8696
  115MOL    C8739075   6.183   8.042   7.443  0.2700 -0.7345  0.7129
  115MOL    C8839076   6.081   8.067   7.559  0.0797 -0.1753 -0.0761
  115MOL    C8939077   5.948   0.062   7.520 -0.2082 -0.3469  0.0120
  115MOL    C9039078   5.948   0.160   7.420 -0.1155 -0.1620 -0.1258
  115MOL    C9139079   5.828   0.230   7.391  0.1565 -0.3689 -0.4883
  115MOL    C9239080   5.722   0.222   7.483 -0.8385 -0.2062 -0.0498
  115MOL    C9339081   5.727   0.127   7.591  0.3365 -0.2926 -0.2460
  115MOL    C9439082   5.838   0.049   7.601  0.9514  0.0023  0.7072
  115MOL    O9539083   6.138   0.016   7.691 -0.1736  0.1823  0.2060
  115MOL    H9639084   6.259   7.973   7.479  1.2890 -0.3023 -0.5724
  115MOL    H9739085   6.137   7.991   7.359 -0.0129  1.0407 -0.2362
  115MOL    H9839086   6.040   7.968   7.578 -2.1518 -0.0172 -3.6358
  115MOL    H9939087   6.037   0.180   7.362 -1.0185 -1.1106 -1.9120
  115MOL   H10039088   5.830   0.292   7.303 -0.9167 -1.0091 -0.9683
  115MOL   H10139089   5.639   0.291   7.480 -0.0302  0.7445 -1.6655
  115MOL   H10239090   5.646   0.109   7.661  1.3055  0.3549  1.0574
  115MOL   H10339091   5.841   8.054   7.678 -1.4043  1.0727  1.8856
  115MOL   C10439092   6.211   0.139   7.694 -0.2647 -0.2391 -0.8886
  115MOL   C10539093   6.244   0.192   7.838  0.4755 -0.7693  0.0585
  115MOL   C10639094   6.355   0.121   7.916  0.1504  1.0129 -1.2209
  115MOL   C10739095   6.410   0.187   8.033  0.6273  0.0219 -0.2592
  115MOL   C10839096   6.515   0.136   0.032  0.2296 -0.6832  0.4571
  115MOL   C10939097   6.550   0.006   8.079  0.0087 -0.3957  0.2183
  115MOL   C11039098   6.487   8.010   7.979  0.7821  0.4301  0.0704
  115MOL   C11139099   6.391   8.064   7.895  0.0103 -0.2732 -0.2246
  115MOL   O11239100   6.258   0.331   7.834 -0.3394  0.1949 -0.3078
  115MOL   H11339101   6.297   0.126   7.628  0.3784  0.8776 -0.2861
  115MOL   H11439102   6.147   0.213   7.648 -1.1048  1.3607  2.6838
  115MOL   H11539103   6.155   0.183   7.899 -0.1769  0.6642 -0.6421
  115MOL   H11639104   6.372   0.287   8.050 -2.0861 -0.7748 -1.3352
  115MOL   H11739105   6.561   0.191   0.112  0.3167  0.4471 -0.3637
  115MOL   H11839106   6.621   8.035   0.062 -1.6419 -1.0864  1.5485
  115MOL   H11939107   6.521   7.908   7.971  0.2975  0.4015 -1.9769
  115MOL   H12039108   6.354   8.011   7.808  0.2212 -0.6365 -0.0970
  115MOL   C12139109   6.373   0.385   7.775  0.6360  0.1695 -0.1003
  115MOL   C12239110   6.355   0.528   7.725  0.1164 -0.0396 -0.2769
  115MOL   C12339111   6.229   0.532   7.634 -0.1364  0.2975 -0.4714
  115MOL   C12439112   6.108   0.586   7.683 -0.3850 -0.6162  0.0219
  115MOL   C12539113   5.987   0.574   7.613  0.2948 -0.2143 -0.2561
  115MOL   C12639114   5.991   0.513   7.489  0.0748  0.5501 -0.3699
  115MOL   C12739115   6.107   0.456   7.440  0.0050 -0.3521  0.3518
  115MOL   C12839116   6.226   0.469   7.511  0.2466  0.6292  0.2777
  115MOL   O12939117   6.341   0.613   7.845  0.5543  0.3924  0.9059
  115MOL   H13039118   6.394   0.329   7.684 -2.2131 -1.9317  0.4922
  115MOL   H13139119   6.463   0.370   7.835  1.1411  2.2017 -0.3089
  115MOL   H13239120   6.435   0.571   7.666 -0.0919 -1.4042 -1.5727
  115MOL   H13339121   6.100   0.631   7.780 -0.7172 -0.8962  0.1266
  115MOL   H13439122   5.892   0.611   7.648  0.3145  0.8127 -1.2653
  115MOL   H13539123   5.896   0.495   7.442 -0.1134 -0.2493  0.3254
  115MOL   H13639124   6.098   0.402   7.347 -0.0090  0.1766  0.0458
  115MOL   H13739125   6.316   0.423   7.473  1.5333  1.7543  1.8766
  115MOL   C13839126   6.354   0.754   7.821 -0.3016 -0.0443 -0.5165
  115MOL   C13939127   6.484   0.810   7.882 -0.4796 -0.4901  0.1745
  115MOL   C14039128   6.612   0.767   7.805 -0.1556 -0.4747  0.4231
  115MOL   C14139129   6.689   0.656   7.849 -0.2757 -0.1757  0.4527
  115MOL   C14239130   6.804   0.604   7.787 -0.1350  0.0694  0.3922
  115MOL   C14339131   6.850   0.663   7.671 -0.2755  0.8413  0.2270
  115MOL   C14439132   6.776   0.776   7.621 -0.5162 -0.8739 -0.4500
  115MOL   C14539133   6.660   0.829   7.686  0.3921 -1.0772  0.1956
  115MOL   O14639134   6.470   0.951   7.873  0.1618 -0.6869 -0.4389
  115MOL   H14739135   6.267   0.791   7.874 -2.0164 -0.7868 -2.7000
  115MOL   H14839136   6.327   0.785   7.720 -0.5826  1.4891  0.0226
  115MOL   H14939137   6.506   0.775   7.983  0.5590 -1.4455 -0.3790
  115MOL   H15039138   6.649   0.599   7.932 -1.8918  1.3267  0.7489
  115MOL   H15139139   6.856   0.518   7.826  1.7865 -0.0987 -2.4203
  115MOL   H15239140   6.936   0.626   7.616  0.0656  0.2597  1.1265
  115MOL   H15339141   6.811   0.835   7.538 -1.7379 -1.7515 -1.5913
  115MOL   H15439142   6.606   0.914   7.647  0.2249 -1.3205 -0.1048
  115MOL   C15539143   6.400   1.011   7.980  0.1275  0.2345  0.5545
  115MOL   C15639144   6.332   1.140   7.926 -0.0997  0.1868 -0.0671
  115MOL   C15739145   6.227   1.102   7.816  0.4781  0.3598  0.4508
  115MOL   C15839146   6.088   1.069   7.839  0.4284 -0.6505  0.2959
  115MOL   C15939147   6.001   1.021   7.736  0.2051 -0.6251  0.0878
  115MOL   C16039148   6.052   1.015   7.606 -0.0567 -0.2857 -0.0798
  115MOL   C16139149   6.190   1.051   7.578  0.2852  0.4106 -0.9396
  115MOL   C16239150   6.272   1.097   7.682 -0.3741 -0.1712 -0.4041
  115MOL   O16339151   6.277   1.210   8.038  0.0289  0.1003  0.5814
  115MOL   H16439152   6.480   1.039   8.048  0.6046 -0.7591  0.4264
  115MOL   H16539153   6.328   0.946   8.031 -2.2121  0.9588 -1.6855
  115MOL   H16639154   6.414   1.194   7.879  0.1502  0.5320  0.7503
  115MOL   H16739155   6.054   1.089   7.940  1.7369  3.1389  0.0739
  115MOL   H16839156   5.903   0.988   7.769  0.9122 -3.3350 -0.3949
  115MOL   H16939157   5.992   0.989   7.520 -2.8447  0.4205  1.5941
  115MOL   H17039158   6.226   1.048   7.476  1.0777  0.3834 -0.6594
  115MOL   H17139159   6.375   1.113   7.654 -0.6303  1.1506 -0.6518
  115MOL   C17239160   6.265   1.352   8.007  0.2633  0.0880  0.6439
  115MOL   C17339161   6.200   1.438   0.035  0.6291  0.1269  0.5476
  115MOL   C17439162   6.280   1.457   0.163  0.2945  0.2546  0.0633
  115MOL   C17539163   6.225   1.424   0.283  0.3681  0.0887 -0.1658
  115MOL   C17639164   6.291   1.448   0.409  0.5025  0.8317 -0.0278
  115MOL   C17739165   6.418   1.510   0.406  0.7920  0.1626  0.2852
  115MOL   C17839166   6.471   1.557   0.284 -0.4971 -0.2718 -0.3674
  115MOL   C17939167   6.403   1.540   0.161  0.1956  0.8579 -0.1751
  115MOL   O18039168   6.068   1.384   0.062  0.1417  0.4858 -0.0746
  115MOL   H18139169   6.366   1.386   7.983  0.7946 -2.4406 -0.9421
  115MOL   H18239170   6.198   1.369   7.923 -0.6922  0.0681  1.4016
  115MOL   H18339171   6.197   1.542   0.004  1.2110  0.2552  0.8964
  115MOL   H18439172   6.131   1.370   0.283  0.9588 -0.9721 -1.1145
  115MOL   H18539173   6.245   1.405   0.497  2.0643 -0.2338  0.2807
  115MOL   H18639174   6.478   1.522   0.495  2.2969  1.7552 -0.9019
  115MOL   H18739175   6.569   1.600   0.271 -1.1098  0.8715 -1.3180
  115MOL   H18839176   6.438   1.585   0.069  0.2525  0.1803 -0.4938
  115MOL   C18939177   5.970   1.486   0.053  0.5269 -0.5666 -0.2057
  115MOL   C19039178   5.823   1.459   0.097 -0.2358  0.5735 -0.2083
  115MOL   C19139179   5.756   1.346   0.033 -0.4653 -0.0879  0.4643
  115MOL   C19239180   5.673   1.361   7.996  0.8549  0.3240 -0.2738
  115MOL   C19339181   5.621   1.248   7.932 -0.8804  0.3170 -0.8019
  115MOL   C19439182   5.649   1.114   7.976  0.1977 -0.5256  1.0551
  115MOL   C19539183   5.729   1.098   0.013 -0.2998 -0.4434  0.2163
  115MOL   C19639184   5.779   1.207   0.076 -0.4014 -0.2852 -0.5888
  115MOL   O19739185   5.753   1.584   0.084 -0.2362 -0.3045  0.0208
  115MOL   H19839186   6.012   1.572   0.104  2.4651 -2.0586  0.7701
  115MOL   H19939187   5.968   1.511   8.027  0.4659 -1.4975 -0.4266
  115MOL   H20039188   5.820   1.436   0.204 -1.1566  0.3480 -0.2851
  115MOL   H20139189   5.647   1.460   7.960 -0.2950  0.6591  1.3766
  115MOL   H20239190   5.554   1.265   7.849 -0.2167  1.0679 -1.1928
  115MOL   H20339191   5.601   1.029   7.931 -1.1579  0.8366 -0.1562
  115MOL   H20439192   5.751   1.003   0.059  2.4569  1.0990  2.1839
  115MOL   H20539193   5.847   1.196   0.160  0.8172 -0.8425 -1.6351
  115MOL   C20639194   5.775   1.691   0.170  1.0309  0.3795 -0.4735
  115MOL   C20739195   5.663   1.807   0.142  0.2721  0.0122  0.0878
  115MOL   C20839196   5.692   1.867   0.007  0.8555  0.4606  0.3205
  115MOL   C20939197   5.774   1.981   0.000  0.7616 -0.0464  0.2562
  115MOL   C21039198   5.788   2.047   7.955  0.3102 -0.2246 -0.0919
  115MOL   C21139199   5.724   2.002   7.833 -0.5898 -1.2316 -0.2276
  115MOL   C21239200   5.639   1.893   7.846 -0.3186  0.4263  0.0121
  115MOL   C21339201   5.629   1.821   7.968 -0.1574  0.0660  0.1771
  115MOL   O21439202   5.655   1.908   0.241 -0.2257  0.4719  0.5604
  115MOL   H21539203   5.762   1.656   0.273 -2.0934 -2.6729 -1.7740
  115MOL   H21639204   5.877   1.729   0.166  1.2961 -0.1712  0.8220
  115MOL   H21739205   5.567   1.756   0.132  0.4357  0.0270 -1.5821
  115MOL   H21839206   5.814   2.024   0.090 -0.5415  0.2819  0.6982
  115MOL   H21939207   5.853   2.134   7.957  0.6244 -0.4723  0.7435
  115MOL   H22039208   5.728   2.067   7.747 -0.1126  0.1566  0.8153
  115MOL   H22139209   5.591   1.849   7.760 -0.2599 -1.9400  1.1533
  115MOL   H22239210   5.570   1.731   7.968  0.3889 -0.3308 -2.3216
  115MOL   C22339211   5.534   1.984   0.226 -0.4654 -0.1309  0.3306
  115MOL   C22439212   5.508   2.057   0.358 -0.1764  0.1244 -0.3956
  115MOL   C22539213   5.437   2.195   0.328  0.0063  0.1630  0.4931
  115MOL   C22639214   5.514   2.303   0.282  0.4581  0.6017 -0.4310
  115MOL   C22739215   5.440   2.421   0.259  0.3288  0.1069  0.5693
  115MOL   C22839216   5.303   2.437   0.262  0.7301 -0.0464 -0.0072
  115MOL   C22939217   5.229   2.323   0.308  0.0307 -0.6745  0.0747
  115MOL   C23039218   5.301   2.210   0.344  1.2389  0.1260  0.2765
  115MOL   O23139219   5.435   1.982   0.445  0.2846 -0.2814  0.2001
  115MOL   H23239220   5.536   2.056   0.144 -1.0613 -1.2416 -0.6732
  115MOL   H23339221   5.446   1.924   0.205  0.3383 -1.5019  0.7482
  115MOL   H23439222   5.604   2.079   0.405  0.9509  0.8567 -2.9197
  115MOL   H23539223   5.621   2.292   0.274  0.6337 -0.1506  2.3402
  115MOL   H23639224   5.495   2.508   0.227 -1.3777  0.3285 -1.8672
  115MOL   H23739225   5.252   2.524   0.225  0.2692 -0.1404  0.3970
  115MOL   H23839226   5.121   2.326   0.308  0.0183 -1.1168  0.1079
  115MOL   H23939227   5.243   2.124   0.374 -0.1697  1.8695  2.6831
  115MOL   C24039228   5.492   1.854   0.490  0.6143 -0.0864  0.8409
  115MOL   C24139229   5.405   1.798   0.608  0.2067 -0.7070 -0.2065
  115MOL   C24239230   5.248   1.799   0.591  0.4231 -0.2833 -0.2913
  115MOL   C24339231   5.180   1.700   0.514  0.2131  0.2916  0.0676
  115MOL   C24439232   5.041   1.715   0.497  0.0420 -0.5337  0.1850
  115MOL   C24539233   4.969   1.812   0.569  0.9876 -0.4191 -0.4550
  115MOL   C24639234   5.041   1.909   0.645 -0.5641 -0.3665  0.3937
  115MOL   C24739235   5.179   1.904   0.658  0.2590 -0.4654  0.0145
  115MOL   O24839236   5.454   1.666   0.600  0.3466  0.8101 -0.2365
  115MOL   H24939237   5.503   1.791   0.402 -1.9623  2.4120 -1.3981
  115MOL   H25039238   5.597   1.868   0.514  0.6986  0.5263  0.1530
  115MOL   H25139239   5.429   1.832   0.709  1.5543 -2.1470 -0.0160
  115MOL   H25239240   5.231   1.620   0.462  1.7799  0.5955  1.1145
  115MOL   H25339241   4.986   1.639   0.443 -1.8514  0.1439  1.1184
  115MOL   H25439242   4.861   1.812   0.577  0.8539 -2.4059 -1.8546
  115MOL   H25539243   4.989   1.991   0.691  1.0517  1.5031 -1.0277
  115MOL   H25639244   5.239   1.973   0.714  1.4581 -1.7171  0.3115
  115MOL   C25739245   5.427   1.575   0.704 -0.6149  0.0334 -0.0246
  115MOL   C25839246   5.468   1.436   0.646 -0.3910  0.1586 -0.5871
  115MOL   C25939247   5.603   1.418   0.576  0.0669  0.8335  0.7286
  115MOL   C26039248   5.621   1.308   0.490  0.5054  0.0661 -0.3240
  115MOL   C26139249   5.741   1.284   0.435 -0.0035 -0.1189  0.1638
  115MOL   C26239250   5.856   1.363   0.460  0.5885  0.6381 -0.6570
  115MOL   C26339251   5.838   1.473   0.543 -0.1464 -0.1911 -0.0326
  115MOL   C26439252   5.713   1.500   0.604  0.7476 -0.4081  0.2909
  115MOL   O26539253   5.361   1.394   0.565  0.3495  0.2106  0.1724
  115MOL   H26639254   5.326   1.579   0.745 -0.4998 -0.0324  0.2650
  115MOL   H26739255   5.494   1.601   0.786  1.7918  1.9653 -2.4805
  115MOL   H26839256   5.462   1.363   0.726 -0.8142  1.6675  0.7819
  115MOL   H26939257   5.532   1.260   0.454  0.6789 -0.6316  0.1691
  115MOL   H27039258   5.741   1.211   0.354  0.1836  0.5685 -0.4624
  115MOL   H27139259   5.950   1.343   0.410  1.0391  4.4823 -1.5165
  115MOL   H27239260   5.920   1.542   0.560  0.0768 -0.9589  2.1992
  115MOL   H27339261   5.713   1.583   0.673 -1.0719  0.1426 -0.3367
  115MOL   C27439262   5.240   1.349   0.633 -0.2009 -0.4355  0.9526
  115MOL   C27539263   5.217   1.198   0.616  0.2284  0.4921  0.3605
  115MOL   C27639264   5.074   1.160   0.652 -0.5329 -0.2229 -0.2272
  115MOL   C27739265   5.043   1.091   0.775 -0.2349 -0.2426 -1.3537
  115MOL   C27839266   4.911   1.066   0.808  0.1632  0.7330 -0.2249
  115MOL   C27939267   4.809   1.096   0.720 -0.4067 -0.9546 -0.1364
  115MOL   C28039268   4.837   1.157   0.596  0.6926  1.0324 -0.4942
  115MOL   C28139269   4.970   1.186   0.564  0.1239  0.5423 -1.2769
  115MOL   O28239270   5.322   1.133   0.693 -0.2319  0.2149 -0.6307
  115MOL   H28339271   5.222   1.376   0.737 -2.1874  0.4186  0.4252
  115MOL   H28439272   5.161   1.393   0.572 -0.5826 -0.5551  1.3577
  115MOL   H28539273   5.247   1.179   0.513 -0.8063 -1.6498  0.4341
  115MOL   H28639274   5.120   1.055   0.842  0.6265  0.9200 -1.6912
  115MOL   H28739275   4.880   1.016   0.898  1.1822 -2.0599 -1.3593
  115MOL   H28839276   4.704   1.079   0.743 -0.6990  0.9468 -0.0137
  115MOL   H28939277   4.754   1.187   0.534  0.1173 -1.6055 -1.0356
  115MOL   H29039278   4.994   1.221   0.465 -2.2806  0.2837 -1.9938
  115MOL   C29139279   5.366   1.008   0.630 -0.2049  0.2286 -0.0156
  115MOL   C29239280   5.448   0.922   0.730  0.3230 -0.2944 -0.7097
  115MOL   C29339281   5.591   0.963   0.764 -0.5588  0.1982  0.8173
  115MOL   C29439282   5.679   0.863   0.803  0.4003  0.2566  0.4390
  115MOL   C29539283   5.813   0.884   0.817 -0.4010 -0.2173 -0.1898
  115MOL   C29639284   5.862   1.021   0.813  0.1245  0.1099  0.3663
  115MOL   C29739285   5.778   1.130   0.784  0.3893  0.3224 -0.2459
  115MOL   C29839286   5.646   1.096   0.747 -0.4935 -0.2102 -0.2617
  115MOL   O29939287   5.376   0.930   0.851 -0.2320  0.0082 -0.5885
  115MOL   H30039288   5.436   1.034   0.551 -2.5516  0.1631 -2.2166
  115MOL   H30139289   5.281   0.953   0.587  0.6304 -1.4269  0.4099
  115MOL   H30239290   5.448   0.823   0.685 -1.1364 -1.0392  0.9086
  115MOL   H30339291   5.634   0.766   0.818  1.0811  0.0427  1.1144
  115MOL   H30439292   5.878   0.802   0.843  0.0346 -0.2579 -1.3799
  115MOL   H30539293   5.966   1.049   0.826 -0.3174  1.7377  0.5382
  115MOL   H30639294   5.815   1.231   0.790  1.6275 -0.1941  1.3144
  115MOL   H30739295   5.591   1.177   0.700 -0.4423  0.5827  1.0334
  115MOL   C30839296   5.324   0.804   0.895 -0.0753 -0.0053 -0.8769
  115MOL   C30939297   5.280   0.818   1.043 -0.3040  0.1103  0.1849
  115MOL   C31039298   5.153   0.736   1.070  0.3758  0.4646 -0.0853
  115MOL   C31139299   5.148   0.618   1.148  0.4040  0.2293 -0.4041
  115MOL   C31239300   5.020   0.565   1.171  0.3632 -0.1782  0.4143
  115MOL   C31339301   4.899   0.621   1.129  0.1714 -0.8257 -0.4814
  115MOL   C31439302   4.906   0.737   1.056  0.0922 -0.3999  1.3546
  115MOL   C31539303   5.038   0.798   1.027  0.0505  0.3555  0.0758
  115MOL   O31639304   5.383   0.764   1.119 -0.3556  0.2447  0.0014
  115MOL   H31739305   5.387   0.718   0.873 -1.1032 -0.3849 -2.4256
  115MOL   H31839306   5.233   0.781   0.840  0.7979  0.1655 -2.3999
  115MOL   H31939307   5.262   0.919   1.078 -0.7656  0.2203 -0.3528
  115MOL   H32039308   5.233   0.569   1.194  0.1147  0.8589  0.8161
  115MOL   H32139309   5.022   0.468   1.219 -0.0085 -1.4621 -2.0749
  115MOL   H32239310   4.808   0.572   1.159  1.0548 -0.4541  3.1015
  115MOL   H32339311   4.813   0.784   1.028  0.8779  0.4516  0.1218
  115MOL   H32439312   5.044   0.892   0.974 -0.9081 -0.9032 -2.3791
  115MOL   C32539313   5.499   0.851   1.126  0.3292  0.1087 -0.4569
  115MOL   C32639314   5.620   0.769   1.184  0.5609 -0.0897  0.0408
  115MOL   C32739315   5.602   0.699   1.320  0.8340 -0.5114  0.3621
  115MOL   C32839316   5.615   0.775   1.430 -0.4088  0.1209 -0.3455
  115MOL   C32939317   5.602   0.716   1.559  0.2644  0.0580  0.0122
  115MOL   C33039318   5.579   0.582   1.573 -0.1788 -0.0773  0.0736
  115MOL   C33139319   5.557   0.505   1.457 -0.5607  0.0387 -0.9726
  115MOL   C33239320   5.563   0.565   1.335  0.3610 -0.4351  0.2676
  115MOL   O33339321   5.663   0.675   1.090  0.2930  0.1237  0.6573
  115MOL   H33439322   5.476   0.942   1.183 -0.8100  0.1988 -1.0456
  115MOL   H33539323   5.526   0.886   1.026 -0.4391 -2.0067 -1.4390
  115MOL   H33639324   5.704   0.838   1.184 -0.7530  1.6062 -2.2240
  115MOL   H33739325   5.615   0.880   1.408 -2.7251  0.4633  1.0513
  115MOL   H33839326   5.613   0.768   1.653 -1.3347 -2.0977  1.4392
  115MOL   H33939327   5.576   0.539   1.672  2.1094 -0.2203  0.1022
  115MOL   H34039328   5.552   0.398   1.462 -0.3937 -0.0628 -2.6904
  115MOL   H34139329   5.544   0.506   1.247 -0.0477 -1.4294  1.0118
  115MOL   H34239330   5.620   0.597   1.120 -1.2586  0.6014 -0.2859
  116MOL     C139331   0.755   3.246   6.806  0.4687 -0.5188 -0.4814
  116MOL     C239332   0.875   3.155   6.844 -0.0515 -0.6047  0.0446
  116MOL     C339333   0.975   3.143   6.725 -0.5748 -0.2274 -0.1228
  116MOL     C439334   1.106   3.184   6.744 -0.6834 -0.0580 -0.1207
  116MOL     C539335   1.197   3.168   6.638 -0.4622  0.9227 -0.3706
  116MOL     C639336   1.153   3.106   6.517  0.8062 -0.0866  0.0280
  116MOL     C739337   1.012   3.079   6.495 -0.0703 -0.5877  0.1805
  116MOL     C839338   0.921   3.092   6.602 -0.3241 -0.0459  0.1392
  116MOL     O939339   0.821   3.035   6.902  0.5622 -0.0920 -0.1087
  116MOL    H1039340   0.800   3.343   6.788  0.9602 -0.4932  0.8568
  116MOL    H1139341   0.705   3.212   6.715  0.4850 -0.6598 -0.4379
  116MOL    H1239342   0.935   3.201   6.922  0.8411 -0.6492 -0.5980
  116MOL    H1339343   1.143   3.237   6.830 -1.1866 -1.5629  1.0325
  116MOL    H1439344   1.295   3.213   6.639  0.4596 -0.9752 -1.4368
  116MOL    H1539345   1.197   3.121   6.419  0.2009 -0.0290 -0.2403
  116MOL    H1639346   0.983   3.046   6.396 -0.5170 -0.1764  0.1712
  116MOL    H1739347   0.816   3.080   6.580  0.4066 -1.7290 -2.6111
  116MOL    H1839348   0.676   3.256   6.880 -0.2237 -1.3045 -1.1005
  116MOL    C1939349   0.911   2.937   6.945  0.1961  0.1022 -0.1836
  116MOL    C2039350   0.934   2.954   7.095  0.8139  0.6947 -0.0813
  116MOL    C2139351   0.802   2.945   7.180 -0.3141  1.1024 -0.7163
  116MOL    C2239352   0.750   2.819   7.200  0.0228 -0.3433  0.4252
  116MOL    C2339353   0.632   2.809   7.277 -0.3071  0.5196 -0.2357
  116MOL    C2439354   0.571   2.926   7.333 -0.6368  0.4814 -0.4330
  116MOL    C2539355   0.632   3.052   7.314 -0.2588 -1.1774 -0.2169
  116MOL    C2639356   0.746   3.062   7.234 -0.5918 -0.0940  0.7952
  116MOL    O2739357   1.022   3.061   7.116 -0.4736 -0.3227  0.5226
  116MOL    H2839358   0.873   2.837   6.922  1.3576 -0.2423 -0.6146
  116MOL    H2939359   1.004   2.936   6.888  0.1328 -1.3479 -0.2852
  116MOL    H3039360   0.988   2.862   7.119  1.5399  1.0049 -0.5461
  116MOL    H3139361   0.799   2.733   7.157 -1.0511 -0.6548 -0.1770
  116MOL    H3239362   0.597   2.713   7.310 -1.9437  0.9710 -0.6157
  116MOL    H3339363   0.483   2.919   7.395  0.7526  2.1707  1.7802
  116MOL    H3439364   0.600   3.151   7.343 -1.2233 -1.0970 -1.4650
  116MOL    H3539365   0.786   3.158   7.204 -1.1571 -0.0499  0.1800
  116MOL    C3639366   1.082   3.067   7.244  0.4585  0.3849 -0.6312
  116MOL    C3739367   1.191   3.173   7.260  0.1294 -0.0332 -0.1027
  116MOL    C3839368   1.146   3.313   7.295  0.8164  0.1721  0.2359
  116MOL    C3939369   1.233   3.389   7.378  0.1630 -0.1279 -0.1991
  116MOL    C4039370   1.196   3.514   7.429 -0.2557  0.1021 -0.6092
  116MOL    C4139371   1.070   3.568   7.406 -0.7156  0.0505 -0.4545
  116MOL    C4239372   0.989   3.501   7.316 -0.1415  0.3115 -0.4700
  116MOL    C4339373   1.016   3.369   7.270  0.4137 -0.0780 -0.1732
  116MOL    O4439374   1.260   3.165   7.131 -0.1106 -0.4176 -0.1479
  116MOL    H4539375   1.011   3.072   7.327  3.7431 -0.5519  2.3708
  116MOL    H4639376   1.127   2.968   7.257 -0.2514 -0.0166 -1.1859
  116MOL    H4739377   1.262   3.145   7.338  0.7351 -0.8048 -0.9178
  116MOL    H4839378   1.325   3.341   7.407 -1.6906 -3.0523  0.9904
  116MOL    H4939379   1.276   3.566   7.479  0.0960 -0.6277 -0.4034
  116MOL    H5039380   1.048   3.659   7.459  3.7642  0.0117  1.6760
  116MOL    H5139381   0.899   3.553   7.287 -0.6383 -1.1012 -1.5712
  116MOL    H5239382   0.951   3.316   7.202  0.9589  1.1211 -1.6682
  116MOL    C5339383   1.399   3.170   7.137 -0.0981  0.1320 -0.6920
  116MOL    C5439384   1.456   3.151   6.996  0.1712 -0.3702  0.3063
  116MOL    C5539385   1.599   3.211   6.977 -0.1188 -0.7568 -0.9556
  116MOL    C5639386   1.616   3.337   6.923  0.1730  0.0458  0.2056
  116MOL    C5739387   1.747   3.389   6.903  0.4545 -0.1661  0.5229
  116MOL    C5839388   1.863   3.310   6.934  0.4225 -0.6287  0.0745
  116MOL    C5939389   1.850   3.187   6.999  0.2286 -0.1843 -0.0902
  116MOL    C6039390   1.715   3.141   7.026 -0.3065  0.7241  0.3864
  116MOL    O6139391   1.470   3.011   6.977  0.0860 -0.0883  0.3477
  116MOL    H6239392   1.438   3.266   7.170  0.5165  0.3986 -2.1647
  116MOL    H6339393   1.428   3.085   7.199 -0.1824  0.2132 -0.5426
  116MOL    H6439394   1.392   3.192   6.918  1.2687 -2.1125 -1.5818
  116MOL    H6539395   1.533   3.398   6.891 -0.8832 -0.3844  1.9984
  116MOL    H6639396   1.759   3.475   6.839 -0.5188 -0.0971  0.4242
  116MOL    H6739397   1.956   3.353   6.898  1.5020 -1.8242  1.3651
  116MOL    H6839398   1.935   3.128   7.030  0.3641 -0.1100 -0.3209
  116MOL    H6939399   1.712   3.041   7.068  2.4076 -0.4023 -1.9928
  116MOL    C7039400   1.352   2.932   6.994 -0.1917 -0.4857  0.0255
  116MOL    C7139401   1.356   2.801   6.910 -0.1720 -0.2214 -0.5312
  116MOL    C7239402   1.229   2.715   6.922 -0.1707  0.0396 -0.6879
  116MOL    C7339403   1.149   2.691   6.810  0.2836 -0.1498  0.0677
  116MOL    C7439404   1.031   2.619   6.826  1.1363 -0.4101 -0.6290
  116MOL    C7539405   0.995   2.560   6.949 -0.5017  0.5397  0.0553
  116MOL    C7639406   1.083   2.578   7.057 -0.0606  1.1468  0.4095
  116MOL    C7739407   1.204   2.649   7.046  0.2501  1.0402  0.5042
  116MOL    O7839408   1.470   2.733   6.957 -0.2624  0.2562 -0.2236
  116MOL    H7939409   1.335   2.912   7.100  2.1477  0.5384  0.6421
  116MOL    H8039410   1.270   2.989   6.951  0.8559  0.0814 -1.2773
  116MOL    H8139411   1.375   2.816   6.803  1.6043 -0.6338 -0.2880
  116MOL    H8239412   1.163   2.743   6.717 -3.2029  3.7187  1.5301
  116MOL    H8339413   0.965   2.605   6.741 -0.0400 -2.3709  0.5668
  116MOL    H8439414   0.912   2.492   6.954 -1.3475  1.5248 -0.3677
  116MOL    H8539415   1.078   2.531   7.154  1.2967 -0.1164 -0.1137
  116MOL    H8639416   1.268   2.649   7.133  1.4982 -1.7190 -0.3499
  116MOL    C8739417   1.507   2.617   6.888 -0.2101  0.7283  0.1560
  116MOL    C8839418   1.638   2.551   6.938 -0.3764  1.3703  0.3113
  116MOL    C8939419   1.741   2.651   6.980  0.1335 -0.2210 -0.3090
  116MOL    C9039420   1.767   2.771   6.905  0.1747  0.2866 -0.4837
  116MOL    C9139421   1.885   2.850   6.928  0.4728 -0.0916 -0.2711
  116MOL    C9239422   1.965   2.820   7.041  0.0196 -0.2751 -0.9867
  116MOL    C9339423   1.942   2.710   7.123 -0.3167  0.0343  0.3009
  116MOL    C9439424   1.830   2.624   7.090 -0.1992  0.0019  0.4663
  116MOL    O9539425   1.696   2.456   6.851  0.0703  0.2270 -0.2353
  116MOL    H9639426   1.523   2.651   6.786  1.8584 -1.2474 -0.2089
  116MOL    H9739427   1.424   2.545   6.890  1.4503 -1.3357 -2.2156
  116MOL    H9839428   1.611   2.493   7.027  0.0896 -1.7738 -1.5161
  116MOL    H9939429   1.712   2.792   6.814 -0.2955 -1.1240 -0.5364
  116MOL   H10039430   1.900   2.938   6.868 -1.0803 -0.2884 -0.9683
  116MOL   H10139431   2.045   2.886   7.070 -2.6360  2.2369  0.8916
  116MOL   H10239432   2.017   2.690   7.199  0.0355 -1.9973 -0.5459
  116MOL   H10339433   1.811   2.531   7.141 -0.2993 -1.1203 -1.5622
  116MOL   C10439434   1.622   2.338   6.812 -0.4324  0.7312 -0.1571
  116MOL   C10539435   1.727   2.237   6.754  0.2143  0.2765 -0.2792
  116MOL   C10639436   1.787   2.281   6.618  0.4556 -0.1624  0.1504
  116MOL   C10739437   1.901   2.362   6.617  0.4208  0.0681  0.3112
  116MOL   C10839438   1.982   2.375   6.499  0.4513  0.0437  0.1004
  116MOL   C10939439   1.938   2.323   6.380  0.5177 -0.0128 -0.2359
  116MOL   C11039440   1.818   2.250   6.378 -0.8404  0.0180  0.4222
  116MOL   C11139441   1.741   2.234   6.491  0.1090 -0.0603 -0.2185
  116MOL   O11239442   1.838   2.222   6.839  0.1815  0.0897  0.8705
  116MOL   H11339443   1.588   2.278   6.897 -0.8749 -0.0950 -0.9146
  116MOL   H11439444   1.560   2.358   6.725 -1.6241 -0.4695  0.4082
  116MOL   H11539445   1.674   2.142   6.741  0.1224  0.7496 -3.6973
  116MOL   H11639446   1.940   2.396   6.712 -1.5887 -0.8327  1.4907
  116MOL   H11739447   2.071   2.435   6.511  0.8582 -0.4618 -0.3986
  116MOL   H11839448   1.996   2.331   6.289  1.0728 -2.1027 -0.0869
  116MOL   H11939449   1.785   2.209   6.283  0.2250 -0.4343  0.2363
  116MOL   H12039450   1.652   2.175   6.474 -1.4562  1.8883  0.9856
  116MOL   C12139451   1.914   2.102   6.812 -0.2148  0.2683  0.2364
  116MOL   C12239452   1.897   2.016   6.936 -0.6051 -0.1610  0.6182
  116MOL   C12339453   1.750   1.986   6.958 -0.7358  0.4583 -0.2392
  116MOL   C12439454   1.671   2.062   7.043  0.5001  0.5036  0.1202
  116MOL   C12539455   1.527   2.042   7.051  0.6438  0.4655  0.0480
  116MOL   C12639456   1.466   1.942   6.978 -0.0669 -0.5685  0.4992
  116MOL   C12739457   1.553   1.859   6.908  0.0763  0.4699  0.3496
  116MOL   C12839458   1.691   1.882   6.894  0.8995  0.0081  0.3758
  116MOL   O12939459   1.981   1.903   6.920 -0.0987  0.3704  0.3863
  116MOL   H13039460   2.018   2.134   6.805 -0.2669  0.5588  0.7965
  116MOL   H13139461   1.891   2.040   6.725  1.0417 -0.2291  0.2424
  116MOL   H13239462   1.928   2.068   7.027  0.7063 -4.7044  2.8808
  116MOL   H13339463   1.722   2.145   7.089  1.1670 -0.4460  1.0922
  116MOL   H13439464   1.460   2.102   7.111 -3.7038 -2.1168 -2.0270
  116MOL   H13539465   1.360   1.923   6.986  0.0161 -2.0319 -1.6523
  116MOL   H13639466   1.502   1.776   6.861  0.7029  0.7259 -0.8061
  116MOL   H13739467   1.757   1.822   6.834 -0.3430 -0.9107 -0.1041
  116MOL   C13839468   1.982   1.812   7.029 -0.5039 -0.0260  0.8254
  116MOL   C13939469   2.110   1.731   7.011  0.0851  0.0902 -0.4437
  116MOL   C14039470   2.240   1.787   7.066 -0.0704  0.5432 -0.0594
  116MOL   C14139471   2.326   1.862   6.982 -0.0217 -0.3317 -0.1834
  116MOL   C14239472   2.448   1.913   7.020  0.4523  1.2204  0.4023
  116MOL   C14339473   2.484   1.888   7.153 -0.2301  0.1926 -0.5559
  116MOL   C14439474   2.395   1.825   7.250  0.2140  0.0690 -0.2702
  116MOL   C14539475   2.278   1.763   7.201 -0.4078 -0.3614 -0.7578
  116MOL   O14639476   2.081   1.602   7.068  0.1815 -0.4635  0.2088
  116MOL   H14739477   1.895   1.749   7.013  1.2445 -2.3550  0.3066
  116MOL   H14839478   1.989   1.866   7.124 -0.6677  3.5044 -1.0923
  116MOL   H14939479   2.129   1.725   6.903  0.8386  1.8685 -0.4166
  116MOL   H15039480   2.290   1.880   6.882 -1.2504 -0.1118  0.2885
  116MOL   H15139481   2.516   1.958   6.949  0.4751 -0.2244 -0.5263
  116MOL   H15239482   2.576   1.928   7.192  0.4842 -2.7123  0.9295
  116MOL   H15339483   2.424   1.816   7.353  0.8571  1.0482 -0.3576
  116MOL   H15439484   2.215   1.710   7.270  1.1880  0.5227  1.4264
  116MOL   C15539485   2.157   1.498   7.021  0.4859  0.4450  0.2804
  116MOL   C15639486   2.101   1.440   6.897 -0.5429  1.1833  0.1252
  116MOL   C15739487   1.947   1.411   6.904 -0.7917  0.0398 -0.4963
  116MOL   C15839488   1.858   1.504   6.850  0.0088 -0.8352 -0.2303
  116MOL   C15939489   1.721   1.491   6.870 -0.3587 -0.1873 -0.1022
  116MOL   C16039490   1.668   1.396   6.950 -0.8277  0.5458 -1.1786
  116MOL   C16139491   1.756   1.301   7.005 -0.2905  0.1717  0.1954
  116MOL   C16239492   1.901   1.307   6.987  0.4253 -0.0695  0.1287
  116MOL   O16339493   2.144   1.504   6.776 -0.0519 -0.3438  0.7043
  116MOL   H16439494   2.149   1.424   7.101 -0.3724 -0.7354 -0.8817
  116MOL   H16539495   2.262   1.525   7.020 -0.0717  2.7122 -1.2552
  116MOL   H16639496   2.139   1.338   6.889 -3.3773  0.0749  0.2483
  116MOL   H16739497   1.891   1.589   6.792 -1.1835 -0.3037 -0.1469
  116MOL   H16839498   1.661   1.559   6.811  0.1367  0.7351  0.4638
  116MOL   H16939499   1.561   1.399   6.965 -0.5348  0.0140  1.1927
  116MOL   H17039500   1.724   1.228   7.078  0.7594 -0.6636 -0.1615
  116MOL   H17139501   1.969   1.238   7.034  0.3552  0.5008  1.0693
  116MOL   C17239502   2.277   1.479   6.733  0.1846  0.3040 -0.2302
  116MOL   C17339503   2.310   1.542   6.596 -0.2938  0.1496  0.2792
  116MOL   C17439504   2.321   1.696   6.603  0.0667  0.7480  0.5432
  116MOL   C17539505   2.443   1.764   6.612 -0.2789 -0.5495  0.3225
  116MOL   C17639506   2.444   1.905   6.631 -0.2103 -0.2829  0.5556
  116MOL   C17739507   2.317   1.973   6.639  0.5301  0.2036 -0.0382
  116MOL   C17839508   2.198   1.904   6.644  0.1054  0.0068 -0.2292
  116MOL   C17939509   2.198   1.764   6.632 -0.4006  0.6115 -0.2217
  116MOL   O18039510   2.200   1.500   6.524  0.4348 -0.5334  0.7075
  116MOL   H18139511   2.341   1.515   6.814 -0.5173 -2.2067  1.4745
  116MOL   H18239512   2.282   1.370   6.732  1.0324  0.3303  0.1658
  116MOL   H18339513   2.404   1.504   6.555  0.5540 -0.8701  3.0297
  116MOL   H18439514   2.538   1.713   6.611  0.3358  0.5861 -0.5625
  116MOL   H18539515   2.536   1.961   6.634 -0.8552  1.0722 -2.3718
  116MOL   H18639516   2.318   2.080   6.657 -0.0312  0.5508 -1.9344
  116MOL   H18739517   2.105   1.958   6.642 -2.0188 -3.5035  0.1860
  116MOL   H18839518   2.107   1.706   6.629 -1.0075  1.5456  0.0527
  116MOL   C18939519   2.214   1.530   6.386  0.3002  0.1894 -0.1352
  116MOL   C19039520   2.080   1.547   6.311 -0.1124  0.1653  0.2876
  116MOL   C19139521   1.992   1.652   6.385  0.1268 -0.0242  0.3340
  116MOL   C19239522   2.007   1.790   6.351  0.8011 -0.0018 -0.0903
  116MOL   C19339523   1.933   1.891   6.415  0.5985 -0.1921  0.2254
  116MOL   C19439524   1.831   1.851   6.504 -0.1399  0.2707 -1.2200
  116MOL   C19539525   1.816   1.719   6.534  1.0025 -0.2097  0.9646
  116MOL   C19639526   1.894   1.620   6.476  0.1426 -0.9090  0.2008
  116MOL   O19739527   2.024   1.415   6.312  0.1895  0.1804  0.4912
  116MOL   H19839528   2.264   1.627   6.377  1.8077 -0.6441 -0.8933
  116MOL   H19939529   2.273   1.453   6.337  0.3362  0.3660 -0.3700
  116MOL   H20039530   2.089   1.572   6.205 -0.4749 -0.9212 -0.0136
  116MOL   H20139531   2.091   1.813   6.287  0.6624 -1.8125 -0.9599
  116MOL   H20239532   1.958   1.993   6.389  0.4850 -0.3565 -0.5230
  116MOL   H20339533   1.782   1.932   6.556  0.6974  0.0035  0.0210
  116MOL   H20439534   1.739   1.691   6.604 -1.0956 -0.7605 -1.4828
  116MOL   H20539535   1.870   1.519   6.507  2.0723 -1.2167  0.7318
  116MOL   C20639536   1.927   1.385   6.215  0.0509  0.0782 -0.0513
  116MOL   C20739537   1.857   1.247   6.240 -0.2486 -0.9039 -0.0675
  116MOL   C20839538   1.809   1.211   6.383  0.3377  0.1547 -0.0403
  116MOL   C20939539   1.680   1.165   6.402  0.2283  0.2538 -0.6860
  116MOL   C21039540   1.649   1.118   6.531 -0.1078 -0.4067  0.8098
  116MOL   C21139541   1.733   1.132   6.634  0.7471 -0.0740 -0.8451
  116MOL   C21239542   1.856   1.194   6.624 -0.6733 -0.1143 -0.0490
  116MOL   C21339543   1.893   1.229   6.497  0.2403 -0.3196  0.4462
  116MOL   O21439544   1.911   1.144   6.159  0.0630 -0.2371 -0.7380
  116MOL   H21539545   1.842   1.453   6.217 -0.8658 -0.9889 -1.8285
  116MOL   H21639546   1.969   1.390   6.115  1.4955 -4.7462  0.2060
  116MOL   H21739547   1.759   1.272   6.200 -0.1527 -1.9235 -0.9315
  116MOL   H21839548   1.604   1.160   6.326  0.5900  0.9224 -1.0926
  116MOL   H21939549   1.549   1.077   6.545 -0.6344  0.2007 -1.0001
  116MOL   H22039550   1.703   1.079   6.723 -0.9125 -0.2248 -1.4817
  116MOL   H22139551   1.920   1.187   6.710 -1.8248 -1.0696  0.7525
  116MOL   H22239552   1.993   1.268   6.482  0.5515 -0.7053  1.4490
  116MOL   C22339553   2.006   1.063   6.212 -0.2307 -0.3533  0.0692
  116MOL   C22439554   2.078   0.988   6.092 -0.0761  0.8938  0.2700
  116MOL   C22539555   2.013   0.869   6.030  0.5731  0.1907 -0.5474
  116MOL   C22639556   2.086   0.758   5.973 -0.0564 -0.2058 -0.4937
  116MOL   C22739557   2.016   0.646   5.920  0.7316 -0.2030 -0.5685
  116MOL   C22839558   1.879   0.653   5.891  0.0260  0.0508 -0.0121
  116MOL   C22939559   1.798   0.757   5.953  0.6966  0.9998  0.9246
  116MOL   C23039560   1.867   0.860   6.025  0.1787  0.0844  0.3535
  116MOL   O23139561   2.115   1.087   5.998 -0.1853 -0.4838  0.0605
  116MOL   H23239562   2.085   1.115   6.267 -0.1890  0.7549 -1.0000
  116MOL   H23339563   1.954   1.001   6.285 -0.3904  0.0970  0.3399
  116MOL   H23439564   2.173   0.949   6.128 -0.9396 -0.7813  0.7795
  116MOL   H23539565   2.193   0.756   5.961  0.0452  1.2882  0.0471
  116MOL   H23639566   2.078   0.567   5.878  1.3913  0.4332 -0.7984
  116MOL   H23739567   1.830   0.572   5.840 -1.2468  2.4070 -2.7069
  116MOL   H23839568   1.691   0.749   5.940  1.0190 -1.5141 -0.4716
  116MOL   H23939569   1.817   0.952   6.053 -2.0655 -0.7371 -0.8832
  116MOL   C24039570   2.214   1.180   6.024  0.2409  0.1082  1.0443
  116MOL   C24139571   2.260   1.251   5.888  0.2412 -0.1223 -0.2338
  116MOL   C24239572   2.328   1.386   5.921  0.1305 -0.2124 -0.3580
  116MOL   C24339573   2.472   1.410   5.898  0.6778 -0.2208  0.3691
  116MOL   C24439574   2.526   1.543   5.919  0.0113 -0.1232 -0.2676
  116MOL   C24539575   2.445   1.639   5.973 -0.5504  0.3341 -0.3859
  116MOL   C24639576   2.309   1.619   6.010  0.2941 -0.3999 -0.7167
  116MOL   C24739577   2.255   1.496   5.972  1.3506 -0.0436  0.3924
  116MOL   O24839578   2.355   1.155   5.826  0.1483 -0.7164  0.3276
  116MOL   H24939579   2.169   1.254   6.091 -1.2020  2.2222 -2.1143
  116MOL   H25039580   2.299   1.133   6.072  0.6053  1.1265  1.4204
  116MOL   H25139581   2.173   1.272   5.825  0.9216 -1.8519 -1.7887
  116MOL   H25239582   2.531   1.329   5.857 -0.7807 -1.2942  0.3565
  116MOL   H25339583   2.626   1.568   5.887  0.9902 -0.3361  2.4918
  116MOL   H25439584   2.481   1.740   5.989  0.4964 -0.2833  1.3559
  116MOL   H25539585   2.247   1.696   6.052  0.5279 -1.3372  1.4437
  116MOL   H25639586   2.151   1.486   5.997  2.1828 -0.7872  3.9288
  116MOL   C25739587   2.291   1.038   5.768 -0.3194 -0.3832 -0.1114
  116MOL   C25839588   2.379   0.991   5.654 -0.2519 -0.8970  0.2729
  116MOL   C25939589   2.380   1.083   5.528 -0.3864 -0.2108  0.6140
  116MOL   C26039590   2.317   1.063   5.407  0.1997 -0.0742 -0.8260
  116MOL   C26139591   2.320   1.159   5.306 -0.2299  0.0369  0.0666
  116MOL   C26239592   2.365   1.287   5.330 -0.0979  0.2181 -1.1265
  116MOL   C26339593   2.444   1.307   5.444  1.1283 -0.2417 -0.9295
  116MOL   C26439594   2.456   1.202   5.539  0.5132  0.7755  0.0711
  116MOL   O26539595   2.337   0.857   5.621  0.0922 -0.3911  0.4496
  116MOL   H26639596   2.190   1.050   5.727  1.0896  2.0080 -3.0769
  116MOL   H26739597   2.287   0.968   5.851 -1.7971  0.8299  0.8826
  116MOL   H26839598   2.475   1.000   5.705  0.1358  0.1768 -0.6182
  116MOL   H26939599   2.265   0.972   5.382 -1.7291  0.2759  1.7283
  116MOL   H27039600   2.265   1.141   5.215  1.9933  0.8847 -1.4878
  116MOL   H27139601   2.359   1.354   5.246 -2.1252 -0.8760 -1.8689
  116MOL   H27239602   2.500   1.397   5.464  0.8473 -0.0322 -1.1029
  116MOL   H27339603   2.509   1.216   5.632  0.5061  1.2468  0.0059
  116MOL   C27439604   2.435   0.789   5.549  0.0192  1.2323  0.2739
  116MOL   C27539605   2.562   0.738   5.626  0.1352 -0.2521  0.2870
  116MOL   C27639606   2.520   0.678   5.758 -0.1839 -0.4885 -0.7995
  116MOL   C27739607   2.567   0.739   5.878 -0.1754  0.0691  0.0688
  116MOL   C27839608   2.513   0.693   5.996 -0.4443 -0.3167  0.1494
  116MOL   C27939609   2.417   0.587   6.009  0.1903  0.1995 -1.3311
  116MOL   C28039610   2.380   0.527   5.889  0.3855 -0.0920  0.3189
  116MOL   C28139611   2.427   0.580   5.763  0.3767  0.4312  0.0589
  116MOL   O28239612   2.651   0.849   5.642  0.1584 -0.0790  0.0488
  116MOL   H28339613   2.383   0.707   5.500 -2.2402  2.0883  1.1755
  116MOL   H28439614   2.466   0.848   5.462  1.2372  1.2384  0.7157
  116MOL   H28539615   2.591   0.659   5.556  1.9831  1.0731 -0.4817
  116MOL   H28639616   2.640   0.819   5.884 -1.4882  1.4918 -2.1363
  116MOL   H28739617   2.542   0.757   6.078  0.6373 -1.1779  0.4521
  116MOL   H28839618   2.379   0.575   6.109 -0.1344  0.4376 -1.4247
  116MOL   H28939619   2.308   0.447   5.886  0.2137 -0.0023  1.9443
  116MOL   H29039620   2.381   0.545   5.672 -1.8213  0.5965  1.0566
  116MOL   C29139621   2.791   0.809   5.636 -0.4309 -0.2920  0.7540
  116MOL   C29239622   2.886   0.929   5.632  0.4078 -0.2415 -0.2714
  116MOL   C29339623   2.889   0.994   5.498  0.7069  0.2447  0.1026
  116MOL   C29439624   3.010   0.993   5.423 -0.5714 -0.2455  0.7462
  116MOL   C29539625   3.020   1.063   5.302  0.0828  0.5607 -0.3203
  116MOL   C29639626   2.900   1.118   5.254 -0.1393  0.3044  0.2855
  116MOL   C29739627   2.775   1.106   5.318  0.2381  0.2292  0.1734
  116MOL   C29839628   2.769   1.050   5.443 -0.2713 -1.3914 -0.2480
  116MOL   O29939629   2.854   1.019   5.733 -0.5137  0.1488 -0.5769
  116MOL   H30039630   2.808   0.749   5.547  1.9024  1.2623  0.1214
  116MOL   H30139631   2.823   0.754   5.725  0.1960  0.6193  1.1063
  116MOL   H30239632   2.986   0.889   5.650 -0.0692 -0.5575  1.8443
  116MOL   H30339633   3.102   0.950   5.457  0.8631  1.3199 -1.0380
  116MOL   H30439634   3.114   1.080   5.252 -0.1936  2.2203 -0.2840
  116MOL   H30539635   2.918   1.176   5.164 -0.1093  0.0049  0.0986
  116MOL   H30639636   2.689   1.157   5.278 -0.8634 -1.9243 -0.2984
  116MOL   H30739637   2.675   1.051   5.496  0.1520 -1.4190  0.5075
  116MOL   C30839638   2.955   1.115   5.774 -0.4292 -0.7000 -0.2222
  116MOL   C30939639   2.892   1.210   5.881  0.4814  0.4273  0.1661
  116MOL   C31039640   2.815   1.133   5.985  0.4709 -0.7254  0.0853
  116MOL   C31139641   2.683   1.102   5.950  0.3576 -0.0576  0.1806
  116MOL   C31239642   2.597   1.046   6.045 -0.4753 -0.0952 -0.1073
  116MOL   C31339643   2.647   1.004   6.174 -0.3461 -0.0069 -0.2341
  116MOL   C31439644   2.788   1.025   6.205  0.2025  0.4964  0.1637
  116MOL   C31539645   2.869   1.087   6.108 -0.2609 -0.4691 -0.2722
  116MOL   O31639646   2.998   1.282   5.935 -1.1184  0.0626  0.4940
  116MOL   H31739647   2.984   1.174   5.687 -1.4347 -1.7534 -1.2844
  116MOL   H31839648   3.038   1.059   5.818  0.1619  0.4526  0.1536
  116MOL   H31939649   2.828   1.275   5.822 -2.8113 -1.3578  1.6240
  116MOL   H32039650   2.632   1.130   5.859  0.6934  0.5529  0.1768
  116MOL   H32139651   2.495   1.026   6.016 -0.8951  0.6495  0.8213
  116MOL   H32239652   2.595   0.948   6.250  0.1837 -0.4139 -0.1607
  116MOL   H32339653   2.830   1.002   6.302 -0.5000 -0.8380  0.1530
  116MOL   H32439654   2.975   1.088   6.130 -0.4036  0.4273  0.3884
  116MOL   C32539655   2.965   1.397   6.012 -0.7551  0.0199 -0.2705
  116MOL   C32639656   3.088   1.438   6.085 -0.3347  0.5817  0.9475
  116MOL   C32739657   3.133   1.328   6.186  0.6355  0.1355 -0.8271
  116MOL   C32839658   3.256   1.255   6.173  0.0121 -0.0706  0.8319
  116MOL   C32939659   3.277   1.143   6.261 -0.2924 -0.3080 -0.3204
  116MOL   C33039660   3.185   1.114   6.362 -0.0660 -0.2287  0.3255
  116MOL   C33139661   3.067   1.182   6.377  1.1261  0.4593 -0.2894
  116MOL   C33239662   3.042   1.285   6.284  0.6069 -0.2455 -0.4472
  116MOL   O33339663   3.188   1.463   5.991  0.1552  0.0297 -0.0168
  116MOL   H33439664   2.884   1.391   6.084 -1.5676 -0.7652 -1.2364
  116MOL   H33539665   2.943   1.470   5.934  3.3284 -0.6043 -2.1340
  116MOL   H33639666   3.069   1.529   6.142 -1.3787  0.1897  1.2519
  116MOL   H33739667   3.326   1.284   6.096 -3.0059  2.7433 -0.9869
  116MOL   H33839668   3.377   1.105   6.249 -0.7264 -0.9696 -2.0667
  116MOL   H33939669   3.208   1.031   6.426 -0.9994  0.2792  1.3270
  116MOL   H34039670   3.000   1.150   6.455 -0.0271 -1.2900 -1.9437
  116MOL   H34139671   2.944   1.329   6.296  1.5291  1.4255  1.1579
  116MOL   H34239672   3.185   1.379   5.948 -1.0669  0.0563  0.0102
  117MOL     C139673   6.954   3.786   2.255  0.5137  0.0942  0.5420
  117MOL     C239674   6.984   3.937   2.242  0.3550  0.4220 -0.0284
  117MOL     C339675   6.863   4.013   2.185 -0.4573 -0.1783  0.2043
  117MOL     C439676   6.762   4.068   2.273 -0.0255 -0.8426 -0.6119
  117MOL     C539677   6.647   4.129   2.221 -0.2832 -0.4438 -0.1780
  117MOL     C639678   6.633   4.136   2.085  0.4631 -0.2457 -0.2312
  117MOL     C739679   6.733   4.093   1.996 -0.7616 -0.2114  0.0315
  117MOL     C839680   6.845   4.028   2.043 -0.2395 -0.1793 -0.6573
  117MOL     O939681   7.101   3.946   2.160 -0.2764 -0.1846 -0.8100
  117MOL    H1039682   7.041   3.742   2.303 -0.4999 -0.5982  1.7892
  117MOL    H1139683   6.871   3.757   2.320  0.1075  0.0289 -0.0063
  117MOL    H1239684   6.998   3.974   2.343  1.0381 -2.6469  1.0517
  117MOL    H1339685   6.782   4.048   2.377  2.4540 -1.2284 -1.1463
  117MOL    H1439686   6.574   4.171   2.289 -0.0174  0.8525 -0.6819
  117MOL    H1539687   6.545   4.181   2.041 -0.2272 -1.5568 -0.2170
  117MOL    H1639688   6.714   4.102   1.890 -1.3521 -3.5166 -0.2139
  117MOL    H1739689   6.911   3.980   1.972  1.5165  2.9930 -1.2698
  117MOL    H1839690   6.932   3.750   2.155  1.2887  1.2517 -0.0669
  117MOL    C1939691   7.183   4.065   2.183  0.1499  0.4668  0.3265
  117MOL    C2039692   7.295   4.060   2.080 -0.4245 -0.6375  0.0548
  117MOL    C2139693   7.406   4.162   2.121  0.2817 -0.2115 -0.1079
  117MOL    C2239694   7.492   4.130   2.228 -0.1415  0.2125 -0.4607
  117MOL    C2339695   7.581   4.223   2.269 -0.7783 -0.3971  0.9019
  117MOL    C2439696   7.607   4.341   2.199 -0.2684  0.7877 -0.3177
  117MOL    C2539697   7.518   4.377   2.093 -0.3522 -0.0072  0.1296
  117MOL    C2639698   7.410   4.287   2.058  0.4411  0.2190 -0.2281
  117MOL    O2739699   7.234   4.099   1.956 -0.1127  0.1717 -0.3464
  117MOL    H2839700   7.125   4.157   2.172 -0.2279  0.2292  0.3069
  117MOL    H2939701   7.226   4.053   2.282 -1.9399 -0.6355  1.1415
  117MOL    H3039702   7.334   3.960   2.064 -1.6212 -1.2304  0.8136
  117MOL    H3139703   7.470   4.038   2.280 -1.1962  1.5945  1.6395
  117MOL    H3239704   7.650   4.194   2.347  1.8634  1.1155 -0.7772
  117MOL    H3339705   7.695   4.397   2.227 -0.3308 -0.4206  2.4843
  117MOL    H3439706   7.531   4.468   2.035 -0.9031  1.7918  2.7653
  117MOL    H3539707   7.344   4.312   1.976 -2.5397 -0.5052  1.8855
  117MOL    C3639708   7.206   3.985   1.872  0.8469  0.1935 -0.0411
  117MOL    C3739709   7.157   4.016   1.732 -0.3634 -0.2342 -0.2306
  117MOL    C3839710   7.251   4.115   1.664  0.1919  0.1216 -0.0897
  117MOL    C3939711   7.347   4.085   1.563  0.1645 -0.3006 -0.2818
  117MOL    C4039712   7.430   4.184   1.501  0.0270  0.6337  0.0172
  117MOL    C4139713   7.403   4.311   1.541  0.1657  0.2227 -0.1670
  117MOL    C4239714   7.309   4.349   1.640 -0.0444  0.0754 -0.1570
  117MOL    C4339715   7.231   4.251   1.704  0.6222  0.1540  0.8170
  117MOL    O4439716   7.014   4.040   1.733  0.4902 -0.2522 -0.1845
  117MOL    H4539717   7.297   3.925   1.859  1.9421  1.5974  0.9136
  117MOL    H4639718   7.136   3.915   1.916  1.8644 -0.7136  0.1574
  117MOL    H4739719   7.171   3.921   1.680  1.7917 -1.8283  3.0729
  117MOL    H4839720   7.366   3.982   1.538  0.0140  0.2036 -2.5217
  117MOL    H4939721   7.507   4.155   1.430 -0.0105 -0.7920  0.5329
  117MOL    H5039722   7.455   4.390   1.488  2.0001 -0.6370  0.3184
  117MOL    H5139723   7.289   4.453   1.663 -2.1029 -0.1680 -0.7063
  117MOL    H5239724   7.163   4.289   1.779 -0.0233  1.1698 -0.2573
  117MOL    C5339725   6.953   4.041   1.609 -0.2668  0.3185  0.0095
  117MOL    C5439726   6.856   3.927   1.583 -0.1707 -0.5588  0.3646
  117MOL    C5539727   6.770   3.941   1.455 -0.7921 -0.1647  0.1467
  117MOL    C5639728   6.826   3.907   1.330  0.0787  0.2190  0.5325
  117MOL    C5739729   6.749   3.925   1.213  0.2955 -0.2142 -0.3072
  117MOL    C5839730   6.618   3.980   1.221 -0.1024  0.5330 -0.9990
  117MOL    C5939731   6.569   4.017   1.348  0.1135 -0.0794 -0.4200
  117MOL    C6039732   6.646   3.996   1.461  0.1995 -0.5368 -0.2017
  117MOL    O6139733   6.928   3.800   1.582  0.0949 -0.2521 -0.2187
  117MOL    H6239734   6.895   4.132   1.627  1.1233  1.7107 -2.2432
  117MOL    H6339735   7.020   4.073   1.530  0.3596  0.6083  0.6509
  117MOL    H6439736   6.774   3.922   1.654  0.6361 -0.3346  1.3247
  117MOL    H6539737   6.926   3.867   1.326 -0.6174 -1.5018 -0.6314
  117MOL    H6639738   6.781   3.893   1.115  0.7236 -0.4878 -0.0773
  117MOL    H6739739   6.565   4.003   1.131  0.1637 -0.5932 -1.4483
  117MOL    H6839740   6.479   4.076   1.343  0.7167  0.8368 -0.6488
  117MOL    H6939741   6.604   4.028   1.556 -0.3230 -1.7510 -0.0223
  117MOL    C7039742   6.848   3.680   1.595  0.1040 -0.9782  0.2744
  117MOL    C7139743   6.945   3.561   1.595 -0.5966  0.0086  0.0989
  117MOL    C7239744   7.062   3.592   1.686  0.0221  0.4616 -0.5399
  117MOL    C7339745   7.033   3.620   1.819  0.3791 -0.4561 -0.9475
  117MOL    C7439746   7.132   3.641   1.916  1.1798  1.0051 -0.2301
  117MOL    C7539747   7.266   3.649   1.873  0.0367  0.0067  0.4833
  117MOL    C7639748   7.296   3.629   1.736 -0.2471 -0.0263  0.1088
  117MOL    C7739749   7.197   3.603   1.641 -0.9969  0.0805 -0.2220
  117MOL    O7839750   6.991   3.535   1.461 -0.1194  0.1977 -0.2025
  117MOL    H7939751   6.799   3.695   1.691  0.9744 -0.8409  0.7044
  117MOL    H8039752   6.770   3.686   1.519  2.0821  0.7513 -1.7271
  117MOL    H8139753   6.891   3.475   1.633  0.5544 -0.8274 -0.1280
  117MOL    H8239754   6.930   3.607   1.849  0.3171  0.7973 -0.6043
  117MOL    H8339755   7.100   3.651   2.019 -0.3805  0.0297 -0.6054
  117MOL    H8439756   7.353   3.660   1.936 -0.2779  1.4169  0.6922
  117MOL    H8539757   7.398   3.629   1.702  0.7049 -1.0067  2.8178
  117MOL    H8639758   7.222   3.590   1.537  0.8601 -0.7898  0.3039
  117MOL    C8739759   6.894   3.484   1.372  0.3898 -0.3549  0.1350
  117MOL    C8839760   6.926   3.345   1.326 -0.1594  0.2614  0.3171
  117MOL    C8939761   6.810   3.287   1.245 -0.0961 -0.5315  0.0160
  117MOL    C9039762   6.746   3.172   1.288  0.0503 -0.2089  0.7526
  117MOL    C9139763   6.646   3.116   1.202  0.1271  0.4078 -0.6919
  117MOL    C9239764   6.609   3.172   1.080 -0.0375 -0.1451  0.1719
  117MOL    C9339765   6.660   3.298   1.050 -0.0217  0.3628  0.5824
  117MOL    C9439766   6.766   3.351   1.124  0.3539 -0.5647  0.2383
  117MOL    O9539767   6.955   3.281   1.449  0.1780  0.1166 -0.0559
  117MOL    H9639768   6.885   3.549   1.284  1.9222  0.0841  0.2787
  117MOL    H9739769   6.797   3.479   1.419 -0.2016 -1.3548 -1.1429
  117MOL    H9839770   7.008   3.344   1.254 -1.4949 -1.2887 -1.2200
  117MOL    H9939771   6.780   3.117   1.375  3.0399 -1.3810 -1.0646
  117MOL   H10039772   6.597   3.020   1.210  0.1678  0.3817 -0.7574
  117MOL   H10139773   6.527   3.128   1.025  0.7962 -0.4080 -0.8805
  117MOL   H10239774   6.622   3.347   0.962  0.0471  0.8250  0.8080
  117MOL   H10339775   6.821   3.437   1.089  0.8837 -0.2849  1.6896
  117MOL   C10439776   7.055   3.175   1.451 -0.0364 -0.4325 -0.1596
  117MOL   C10539777   7.066   3.095   1.577  0.7863  0.5555 -0.1994
  117MOL   C10639778   7.066   3.178   1.708  0.6059  0.2738 -0.6892
  117MOL   C10739779   6.952   3.175   1.787 -0.0683 -0.7768  0.2427
  117MOL   C10839780   6.948   3.253   1.908  0.4098 -0.3186  0.0641
  117MOL   C10939781   7.069   3.308   1.953 -0.2383  0.6028  0.1906
  117MOL   C11039782   7.186   3.290   1.879 -0.7803  0.1376 -0.4289
  117MOL   C11139783   7.186   3.234   1.752 -0.0580  0.4046 -0.5313
  117MOL   O11239784   6.962   2.992   1.569 -0.1465  0.7636  0.1188
  117MOL   H11339785   7.047   3.105   1.368  0.5417 -2.6264  1.5778
  117MOL   H11439786   7.152   3.219   1.432 -0.2318 -0.7276 -1.9506
  117MOL   H11539787   7.160   3.041   1.570  0.7991  0.6718 -0.8987
  117MOL   H11639788   6.866   3.120   1.753 -0.2529 -1.0128  1.0781
  117MOL   H11739789   6.852   3.268   1.956  0.6525  2.3919 -0.2237
  117MOL   H11839790   7.079   3.371   2.040  0.8544  3.3179 -1.8025
  117MOL   H11939791   7.278   3.337   1.909  1.1009 -2.1846 -2.3875
  117MOL   H12039792   7.275   3.229   1.691  0.9242 -0.8347  0.9856
  117MOL   C12139793   6.990   2.884   1.646  0.4719  0.5785 -0.2662
  117MOL   C12239794   7.064   2.774   1.566  0.2769  0.0120 -0.1008
  117MOL   C12339795   6.993   2.724   1.445  1.0296 -0.1455 -0.3304
  117MOL   C12439796   6.915   2.603   1.440 -0.1120 -0.4528  0.5478
  117MOL   C12539797   6.860   2.553   1.314  0.3333  0.0760 -0.4460
  117MOL   C12639798   6.872   2.640   1.199  0.0419 -0.0669 -0.4188
  117MOL   C12739799   6.941   2.761   1.205 -0.1899 -0.0389 -0.2414
  117MOL   C12839800   7.007   2.801   1.326  0.3564  0.3619  0.1388
  117MOL   O12939801   7.197   2.809   1.542 -0.6132  0.1496 -0.2231
  117MOL   H13039802   6.889   2.855   1.675  1.2000 -1.6793  0.1430
  117MOL   H13139803   7.049   2.907   1.735  0.4630 -1.0234  0.1769
  117MOL   H13239804   7.062   2.685   1.629 -0.5454  1.3211  1.7509
  117MOL   H13339805   6.893   2.546   1.529  0.4608  1.7980  2.2014
  117MOL   H13439806   6.814   2.456   1.306  0.3149  0.0068  0.5051
  117MOL   H13539807   6.829   2.617   1.102 -0.2939  1.0479 -0.5376
  117MOL   H13639808   6.936   2.833   1.125  0.0697  0.6157  0.3216
  117MOL   H13739809   7.078   2.882   1.320  1.0099 -0.2608 -0.6456
  117MOL   C13839810   7.290   2.692   1.548 -0.0082  0.7799 -0.1648
  117MOL   C13939811   7.342   2.658   1.691  0.2582 -0.1299  0.2518
  117MOL   C14039812   7.421   2.779   1.738  0.5297 -0.6272 -0.0674
  117MOL   C14139813   7.357   2.876   1.821  0.2064  0.7135  0.3578
  117MOL   C14239814   7.425   2.992   1.853  0.0270  0.0264  0.0535
  117MOL   C14339815   7.545   3.028   1.795 -0.2797  0.0710  0.6002
  117MOL   C14439816   7.607   2.931   1.707  0.3998 -0.3782 -0.3538
  117MOL   C14539817   7.542   2.816   1.672  0.4898  0.7554  0.0974
  117MOL   O14639818   7.243   2.614   1.788  0.3636 -0.1901 -0.9207
  117MOL   H14739819   7.376   2.699   1.482 -0.2495 -0.3759 -0.6197
  117MOL   H14839820   7.225   2.620   1.498  1.2316 -0.2707 -0.2750
  117MOL   H14939821   7.408   2.574   1.670  0.2568 -0.4369  1.4464
  117MOL   H15039822   7.261   2.869   1.870 -0.1995 -0.2067 -0.5434
  117MOL   H15139823   7.379   3.055   1.928 -0.7038 -0.1028 -0.2722
  117MOL   H15239824   7.591   3.124   1.813  0.4056 -0.3296  1.0027
  117MOL   H15339825   7.699   2.970   1.667 -0.0412  2.6233  1.3825
  117MOL   H15439826   7.591   2.749   1.602 -0.0055 -2.0214  2.2851
  117MOL   C15539827   7.278   2.536   1.900  0.0730 -0.6248 -0.7426
  117MOL   C15639828   7.162   2.541   2.000  0.0879  0.3782 -0.2905
  117MOL   C15739829   7.110   2.680   2.051 -0.0921 -0.2177 -0.0067
  117MOL   C15839830   7.022   2.751   1.974  0.0124  0.1651  0.3848
  117MOL   C15939831   6.970   2.878   2.007 -0.1995  0.4992  1.0543
  117MOL   C16039832   7.012   2.932   2.130  0.1073 -0.2554 -0.0320
  117MOL   C16139833   7.109   2.868   2.214 -0.5807  0.3009  1.2143
  117MOL   C16239834   7.149   2.746   2.173 -0.7047 -0.1894 -0.5712
  117MOL   O16339835   7.069   2.450   1.936  0.5434  0.1914  0.2000
  117MOL   H16439836   7.369   2.574   1.945 -0.6990  1.0252 -0.5602
  117MOL   H16539837   7.305   2.432   1.880  2.0167  0.0830 -1.9540
  117MOL   H16639838   7.211   2.514   2.093  1.9596 -1.8483 -1.8613
  117MOL   H16739839   6.985   2.717   1.878 -0.3317  0.4642  0.4099
  117MOL   H16839840   6.905   2.923   1.933  2.5921  0.2070 -1.6786
  117MOL   H16939841   6.965   3.027   2.153  2.9654  0.6698  2.3323
  117MOL   H17039842   7.140   2.900   2.312  2.4560 -1.4606  0.8741
  117MOL   H17139843   7.229   2.697   2.227 -1.0148  0.5868  0.5949
  117MOL   C17239844   6.989   2.384   2.036  0.1730  0.0811  1.1137
  117MOL   C17339845   6.926   2.253   1.974 -0.1401  0.0505 -0.3758
  117MOL   C17439846   6.849   2.269   1.850 -0.3352  0.6047 -0.4829
  117MOL   C17539847   6.785   2.389   1.813 -0.5687  0.2020 -0.1245
  117MOL   C17639848   6.705   2.398   1.701 -0.8250  0.1653  0.2197
  117MOL   C17739849   6.692   2.294   1.611 -0.3342  0.1152 -0.2485
  117MOL   C17839850   6.747   2.174   1.648  0.7674 -0.6749  0.2292
  117MOL   C17939851   6.829   2.161   1.761  0.1402  0.3790 -0.4944
  117MOL   O18039852   6.861   2.169   2.070  0.0302 -0.1372  0.2628
  117MOL   H18139853   7.046   2.353   2.123  1.5720  0.0052  0.1749
  117MOL   H18239854   6.913   2.460   2.055  0.5519  0.8582 -0.3885
  117MOL   H18339855   7.009   2.184   1.958 -0.4351 -0.7417  1.3749
  117MOL   H18439856   6.798   2.484   1.863  3.7055 -0.6476  0.6035
  117MOL   H18539857   6.658   2.492   1.677 -1.2692  0.7645  3.1958
  117MOL   H18639858   6.640   2.306   1.516  0.9916 -1.1004 -1.1348
  117MOL   H18739859   6.721   2.086   1.591 -2.5453 -1.5822  2.9296
  117MOL   H18839860   6.862   2.064   1.795  1.4291  0.9267 -0.1659
  117MOL   C18939861   6.731   2.205   2.124  0.6406 -0.2604 -0.2476
  117MOL   C19039862   6.640   2.085   2.154 -0.1742  0.3292  0.3088
  117MOL   C19139863   6.666   2.007   2.279 -0.0525  0.7554 -0.0257
  117MOL   C19239864   6.796   1.963   2.321  0.1282  0.1781 -0.0837
  117MOL   C19339865   6.809   1.900   2.443 -0.2821 -0.0464 -0.0923
  117MOL   C19439866   6.699   1.859   2.522 -0.2964  0.1458  0.2481
  117MOL   C19539867   6.572   1.893   2.478 -0.0205  1.1051 -0.4247
  117MOL   C19639868   6.555   1.982   2.367  0.8950  0.0541 -0.1807
  117MOL   O19739869   6.652   2.004   2.034  0.1843 -0.1217 -0.7512
  117MOL   H19839870   6.742   2.269   2.211  2.4280 -1.1550  0.2099
  117MOL   H19939871   6.675   2.276   2.063  0.4076  0.7111  1.0891
  117MOL   H20039872   6.539   2.125   2.159  0.1966  1.3899 -0.3542
  117MOL   H20139873   6.881   1.986   2.258  0.3606  0.6464  0.4003
  117MOL   H20239874   6.911   1.879   2.469  0.3353 -0.2049 -2.4808
  117MOL   H20339875   6.708   1.793   2.607 -0.8278 -3.4822 -2.3939
  117MOL   H20439876   6.487   1.863   2.537  0.8382 -0.7070 -0.0656
  117MOL   H20539877   6.460   2.030   2.348  0.6919  0.5448  1.9054
  117MOL   C20639878   6.573   1.888   2.028  0.4860  0.3537  0.4283
  117MOL   C20739879   6.496   1.864   1.891 -0.0004  0.5408  0.3122
  117MOL   C20839880   6.379   1.959   1.884 -0.9831 -0.2384 -0.2329
  117MOL   C20939881   6.247   1.924   1.925  0.4654  0.4785  0.6573
  117MOL   C21039882   6.144   2.027   1.928 -0.6157 -0.1035  0.5923
  117MOL   C21139883   6.168   2.157   1.885  0.3401 -0.4508 -0.0989
  117MOL   C21239884   6.298   2.180   1.835  0.8591  0.3663  0.3452
  117MOL   C21339885   6.399   2.083   1.829  0.1640 -0.4825  0.0804
  117MOL   O21439886   6.462   1.722   1.884 -0.2154 -0.6836  0.1400
  117MOL   H21539887   6.650   1.812   2.040 -1.5820 -1.8424  0.1583
  117MOL   H21639888   6.500   1.876   2.108  0.3295  0.9857  0.3792
  117MOL   H21739889   6.558   1.891   1.806 -1.4842  1.2095 -0.5823
  117MOL   H21839890   6.211   1.828   1.958  0.0605  0.5276  0.3723
  117MOL   H21939891   6.047   1.990   1.958 -0.6153 -1.3760 -0.8896
  117MOL   H22039892   6.103   2.243   1.891 -0.2169 -0.8447 -0.4268
  117MOL   H22139893   6.315   2.278   1.792 -0.1528 -0.3722 -1.8006
  117MOL   H22239894   6.497   2.109   1.792 -0.3085  0.0463 -0.8104
  117MOL   C22339895   6.437   1.668   1.756 -0.3990  0.3596  0.0214
  117MOL   C22439896   6.484   1.521   1.737  1.0687 -0.5641  0.5148
  117MOL   C22539897   6.418   1.453   1.621 -0.3942 -0.1660  0.1039
  117MOL   C22639898   6.491   1.440   1.500 -0.4896 -0.2129 -0.3678
  117MOL   C22739899   6.435   1.377   1.390 -0.1348 -0.2549 -0.8171
  117MOL   C22839900   6.303   1.325   1.406 -0.3990  0.4336 -0.7287
  117MOL   C22939901   6.236   1.328   1.530 -0.0692 -0.4034 -0.1161
  117MOL   C23039902   6.285   1.403   1.637  0.5293  0.0252 -0.1121
  117MOL   O23139903   6.625   1.526   1.729  0.1383 -0.1387 -0.2639
  117MOL   H23239904   6.328   1.669   1.749 -0.6700 -2.4146  2.3821
  117MOL   H23339905   6.476   1.727   1.674  0.0373 -0.2601 -0.2232
  117MOL   H23439906   6.454   1.483   1.834  1.9311  0.8138  1.3354
  117MOL   H23539907   6.593   1.473   1.489 -1.1312  3.4443  3.4513
  117MOL   H23639908   6.485   1.363   1.296  0.2317 -1.3569 -0.4617
  117MOL   H23739909   6.252   1.282   1.321  0.0942  0.1363 -0.8812
  117MOL   H23839910   6.141   1.277   1.536  0.0891 -0.9438 -2.0050
  117MOL   H23939911   6.216   1.423   1.717 -2.2652 -2.1448 -1.8941
  117MOL   C24039912   6.694   1.399   1.752  0.3617  0.1272  0.3119
  117MOL   C24139913   6.693   1.334   1.891  0.9316  0.4108  0.3122
  117MOL   C24239914   6.732   1.426   2.003  0.2053  0.1375 -0.3950
  117MOL   C24339915   6.650   1.523   2.066 -0.3801 -0.3267 -0.6027
  117MOL   C24439916   6.701   1.604   2.169  0.0824 -0.3875 -0.3174
  117MOL   C24539917   6.839   1.584   2.206  0.6695 -0.5291 -0.3189
  117MOL   C24639918   6.921   1.492   2.141 -0.1594  0.3527 -0.1345
  117MOL   C24739919   6.868   1.415   2.041 -0.2259 -0.4819 -0.4792
  117MOL   O24839920   6.567   1.270   1.902  0.2783 -0.3254  0.7142
  117MOL   H24939921   6.665   1.322   1.681  2.8823 -0.6235  0.0484
  117MOL   H25039922   6.797   1.428   1.729  0.1434  1.5864  1.0730
  117MOL   H25139923   6.773   1.261   1.885  2.0342  1.6056  0.3845
  117MOL   H25239924   6.551   1.551   2.033 -0.8805  2.1488  2.8427
  117MOL   H25339925   6.642   1.681   2.216  0.6103 -1.5398  2.2769
  117MOL   H25439926   6.884   1.637   2.288 -2.1010  0.3996  0.6798
  117MOL   H25539927   7.022   1.470   2.173 -0.2753  0.2233  0.1484
  117MOL   H25639928   6.933   1.342   1.995 -0.5974 -0.4171 -1.1220
  117MOL   C25739929   6.542   1.200   2.022  0.2358 -0.3144 -0.4773
  117MOL   C25839930   6.446   1.082   1.987 -0.8207 -0.0997 -0.0281
  117MOL   C25939931   6.518   0.983   1.889  0.4860  0.4488  0.4040
  117MOL   C26039932   6.579   0.866   1.940  1.1563  0.2492 -0.3557
  117MOL   C26139933   6.660   0.790   1.854 -0.2553  0.4388 -0.5350
  117MOL   C26239934   6.685   0.829   1.721 -0.2688 -0.0455 -0.0431
  117MOL   C26339935   6.625   0.947   1.675 -0.8195  0.7383 -0.2183
  117MOL   C26439936   6.543   1.023   1.756  0.1993 -0.0621  0.1129
  117MOL   O26539937   6.323   1.141   1.943 -0.2538 -0.3333 -0.8069
  117MOL   H26639938   6.493   1.265   2.094 -0.4430 -1.1837 -0.1352
  117MOL   H26739939   6.632   1.161   2.069 -0.1932 -1.9509 -0.9607
  117MOL   H26839940   6.420   1.039   2.084 -1.3917  0.0873 -0.0960
  117MOL   H26939941   6.569   0.836   2.044  1.4730 -0.9926 -0.6797
  117MOL   H27039942   6.702   0.702   1.901  1.5477  1.7876  0.4087
  117MOL   H27139943   6.726   0.759   1.649 -0.6945 -0.8960  0.5340
  117MOL   H27239944   6.637   0.968   1.569  1.0627 -1.2114 -0.4266
  117MOL   H27339945   6.500   1.118   1.726  0.6259 -0.1666 -0.8629
  117MOL   C27439946   6.206   1.068   1.974  0.4699 -0.2448 -0.7504
  117MOL   C27539947   6.133   1.147   2.087 -0.2273  0.0779 -1.2656
  117MOL   C27639948   6.104   1.298   2.068  0.3355  0.4026 -0.2963
  117MOL   C27739949   6.205   1.389   2.115  0.6082  0.3570 -0.6741
  117MOL   C27839950   6.183   1.530   2.094 -0.0803  0.8008  0.1748
  117MOL   C27939951   6.060   1.579   2.034  0.0831  0.2036  0.5430
  117MOL   C28039952   5.958   1.487   2.003  0.0985 -0.1952 -0.3633
  117MOL   C28139953   5.988   1.348   2.008 -0.4083 -0.3915 -1.0624
  117MOL   O28239954   6.217   1.116   2.195  0.5035  0.4542 -0.3707
  117MOL   H28339955   6.151   1.066   1.880 -2.3257 -0.5383  0.8552
  117MOL   H28439956   6.227   0.965   2.003  0.0884 -0.2291 -0.4249
  117MOL   H28539957   6.038   1.094   2.096 -0.0141 -0.3846 -1.7046
  117MOL   H28639958   6.301   1.356   2.152  0.1918 -0.9625 -0.7635
  117MOL   H28739959   6.261   1.598   2.126  1.9554 -1.2220 -0.3454
  117MOL   H28839960   6.049   1.684   2.013  0.4636 -0.1120 -1.2862
  117MOL   H28939961   5.861   1.516   1.967  0.2478  2.1626  0.9740
  117MOL   H29039962   5.908   1.282   1.980 -1.0329 -1.0327  2.0850
  117MOL   C29139963   6.159   1.134   2.323  0.8515  0.3967 -0.2667
  117MOL   C29239964   6.263   1.122   2.424 -0.4462  0.5485 -0.9223
  117MOL   C29339965   6.358   1.238   2.422  0.1722  0.0383  0.0136
  117MOL   C29439966   6.313   1.358   2.475 -0.1106 -0.4055  0.0503
  117MOL   C29539967   6.404   1.468   2.476 -0.0134 -0.1309 -0.0633
  117MOL   C29639968   6.537   1.454   2.430  0.3427  0.0139 -0.1332
  117MOL   C29739969   6.580   1.329   2.384 -0.0820  0.4985  0.4330
  117MOL   C29839970   6.486   1.229   2.370  0.8164  1.2941 -0.5867
  117MOL   O29939971   6.197   1.105   2.550  0.0533 -0.2006  0.2022
  117MOL   H30039972   6.071   1.069   2.326 -0.2955  2.0334  2.0612
  117MOL   H30139973   6.122   1.236   2.328  0.4083  0.2249 -0.0271
  117MOL   H30239974   6.326   1.034   2.405 -1.3778 -0.6385  1.2853
  117MOL   H30339975   6.218   1.363   2.525 -0.0990  1.2961 -0.0682
  117MOL   H30439976   6.380   1.562   2.524  0.2090 -0.9052  1.6290
  117MOL   H30539977   6.612   1.531   2.431  0.1652  0.1911 -0.8714
  117MOL   H30639978   6.682   1.313   2.353 -0.9245 -0.4866 -1.9501
  117MOL   H30739979   6.517   1.138   2.320 -0.5188  0.2544  0.4301
  117MOL   C30839980   6.281   1.074   2.665 -0.4111  0.0233  0.0078
  117MOL   C30939981   6.203   1.068   2.798  0.7454 -0.0422  0.0491
  117MOL   C31039982   6.282   0.991   2.904 -0.0653  0.6474 -0.6122
  117MOL   C31139983   6.333   0.858   2.882 -0.4627  0.1308  0.0818
  117MOL   C31239984   6.390   0.788   2.985 -0.2210 -0.0414 -0.1898
  117MOL   C31339985   6.398   0.846   3.113  0.5655  0.9627 -0.0658
  117MOL   C31439986   6.351   0.980   3.140 -0.5342  0.2082  0.2089
  117MOL   C31539987   6.293   1.049   3.033  0.7439  0.2844  0.0693
  117MOL   O31639988   6.179   1.202   2.832 -0.4729  0.1212  0.1425
  117MOL   H31739989   6.350   1.158   2.671  0.0204 -0.0519 -3.2030
  117MOL   H31839990   6.321   0.977   2.634 -2.4183  0.2828 -3.7377
  117MOL   H31939991   6.113   1.007   2.791  0.5224  0.1552  1.0253
  117MOL   H32039992   6.322   0.795   2.795  2.6153 -1.3005  0.6585
  117MOL   H32139993   6.438   0.692   2.979  2.9865  1.5231 -0.7536
  117MOL   H32239994   6.437   0.791   3.197  1.6470  1.5297 -0.1913
  117MOL   H32339995   6.340   1.026   3.236  1.2060  0.0300  0.5108
  117MOL   H32439996   6.257   1.146   3.064  0.7735  0.6873 -1.1329
  117MOL   C32539997   6.045   1.246   2.808 -0.2478 -0.4628  0.2235
  117MOL   C32639998   6.040   1.394   2.850  0.2534  0.0852 -0.5662
  117MOL   C32739999   6.079   1.415   2.998  0.3445  0.6254  0.6251
  117MOL   C32840000   6.208   1.453   3.033 -0.1108 -0.2561  1.0530
  117MOL   C32940001   6.240   1.479   3.164 -0.3606 -0.2072 -0.0753
  117MOL   C33040002   6.137   1.468   3.266  0.2376 -0.3602  0.2888
  117MOL   C33140003   6.014   1.427   3.233  0.5337 -0.1459  0.2121
  117MOL   C33240004   5.981   1.405   3.094 -0.3606 -0.7263  0.3626
  117MOL   O33340005   6.111   1.473   2.765 -0.0539  0.3209  0.0127
  117MOL   H33440006   5.977   1.186   2.869  0.7212 -1.2660  0.5419
  117MOL   H33540007   6.018   1.224   2.705 -0.7658  2.3629 -0.2951
  117MOL   H33640008   5.933   1.415   2.839  0.5982  2.8945  1.1043
  117MOL   H33740009   6.282   1.458   2.953 -2.2717 -0.2893 -0.9983
  117MOL   H33840010   6.341   1.510   3.186  0.3397 -1.1210 -1.8886
  117MOL   H33940011   6.152   1.500   3.368 -0.0067  0.7822 -0.0375
  117MOL   H34040012   5.942   1.423   3.313 -0.9822 -0.8943 -1.1665
  117MOL   H34140013   5.883   1.367   3.070 -0.1015 -0.8030 -0.5908
  117MOL   H34240014   6.193   1.425   2.760 -1.2361 -1.6142 -2.3181
  118MOL     C140015   4.815   2.710   6.499 -1.1646  0.3140  0.7222
  118MOL     C240016   4.716   2.648   6.606 -0.7273  0.2903 -0.3168
  118MOL     C340017   4.622   2.763   6.659 -0.2488  0.5717 -0.3639
  118MOL     C440018   4.679   2.864   6.739  0.1116 -0.4411 -0.3095
  118MOL     C540019   4.605   2.977   6.768  0.2771  0.0880 -0.6365
  118MOL     C640020   4.474   2.988   6.728 -0.3853 -0.6136 -0.2476
  118MOL     C740021   4.412   2.894   6.645 -1.1435 -0.1688 -0.4066
  118MOL     C840022   4.486   2.773   6.624  1.0926 -0.4097  0.0324
  118MOL     O940023   4.806   2.602   6.715 -0.2190 -0.1607 -0.0372
  118MOL    H1040024   4.884   2.634   6.461 -0.7824 -0.0833  2.1664
  118MOL    H1140025   4.766   2.760   6.416 -0.6914  1.3373  1.0532
  118MOL    H1240026   4.672   2.558   6.564 -0.6417  0.2907 -0.4068
  118MOL    H1340027   4.785   2.858   6.758  0.1892 -0.8936 -0.8536
  118MOL    H1440028   4.654   3.050   6.830  1.9930 -0.6854 -1.0334
  118MOL    H1540029   4.411   3.073   6.751  0.6736  0.2645 -0.5196
  118MOL    H1640030   4.305   2.902   6.630 -1.2381 -2.0856 -0.8864
  118MOL    H1740031   4.431   2.696   6.573  1.9135 -1.1957  0.3202
  118MOL    H1840032   4.889   2.779   6.541 -0.3830 -0.2207  0.2317
  118MOL    C1940033   4.748   2.530   6.825  0.2363 -0.2279  0.3450
  118MOL    C2040034   4.731   2.382   6.801  0.0912  0.5152 -0.6494
  118MOL    C2140035   4.861   2.314   6.755 -1.1016  0.1688  0.3415
  118MOL    C2240036   4.910   2.330   6.626  0.2528  0.6359  0.2207
  118MOL    C2340037   5.028   2.272   6.591  0.0284 -0.8609  0.4846
  118MOL    C2440038   5.096   2.192   6.688  0.4751 -0.2444 -0.5271
  118MOL    C2540039   5.047   2.176   6.815  0.3504 -0.2180  0.4010
  118MOL    C2640040   4.925   2.235   6.847 -0.2411 -0.0542 -0.2548
  118MOL    O2740041   4.619   2.353   6.714  0.2817  0.0252  0.7107
  118MOL    H2840042   4.816   2.545   6.908 -0.2535  0.8606  0.5638
  118MOL    H2940043   4.653   2.575   6.854  0.2492 -1.1430  1.8159
  118MOL    H3040044   4.700   2.347   6.900  0.0071 -1.2386 -1.2713
  118MOL    H3140045   4.852   2.392   6.559  0.0021 -0.2925 -0.4287
  118MOL    H3240046   5.068   2.279   6.491 -1.5602 -1.0280 -0.1759
  118MOL    H3340047   5.180   2.129   6.660  0.9626  0.0726  0.2243
  118MOL    H3440048   5.094   2.107   6.885  0.4707 -1.4789 -0.8974
  118MOL    H3540049   4.874   2.232   6.942 -1.3410 -0.5488 -0.8453
  118MOL    C3640050   4.548   2.227   6.739 -0.3132  0.3802  0.3314
  118MOL    C3740051   4.428   2.261   6.841 -0.1934 -0.4998 -0.2318
  118MOL    C3840052   4.322   2.349   6.780  0.6184  0.3225  0.6860
  118MOL    C3940053   4.317   2.486   6.795  0.3929  0.2027 -0.3580
  118MOL    C4040054   4.235   2.571   6.725  0.4032  0.0548  0.0217
  118MOL    C4140055   4.143   2.506   6.641  0.4697  0.3275  0.7639
  118MOL    C4240056   4.147   2.364   6.616 -0.2308 -0.0452  0.1047
  118MOL    C4340057   4.238   2.285   6.697 -0.2256  0.3860  0.2709
  118MOL    O4440058   4.474   2.309   6.960  0.0003  0.0824 -0.4207
  118MOL    H4540059   4.512   2.190   6.642 -0.7136  3.5323 -0.7609
  118MOL    H4640060   4.612   2.144   6.770 -0.6645 -0.7490 -1.8215
  118MOL    H4740061   4.378   2.170   6.875 -0.1997  0.2021  1.7088
  118MOL    H4840062   4.385   2.528   6.868 -0.2130  1.3577 -0.4586
  118MOL    H4940063   4.220   2.676   6.746 -0.6594  0.6903 -3.5483
  118MOL    H5040064   4.062   2.562   6.597  0.8731  1.2935  1.2156
  118MOL    H5140065   4.079   2.313   6.550  1.2423 -1.3506 -0.4345
  118MOL    H5240066   4.240   2.179   6.677 -1.9911  0.6239 -1.3349
  118MOL    C5340067   4.374   2.301   7.068 -0.3963 -0.0158  0.2639
  118MOL    C5440068   4.424   2.370   7.194 -0.4135 -0.3867 -0.4633
  118MOL    C5540069   4.482   2.505   7.161 -0.4151 -0.4089 -0.3769
  118MOL    C5640070   4.400   2.611   7.111 -0.8181 -0.1379 -0.2215
  118MOL    C5740071   4.451   2.735   7.082 -0.0638  0.2155  0.5340
  118MOL    C5840072   4.593   2.763   7.103 -0.0474 -0.5187  0.5673
  118MOL    C5940073   4.677   2.665   7.160  0.7616 -0.1610 -0.1074
  118MOL    C6040074   4.615   2.536   7.190 -0.1725 -0.1367 -0.2570
  118MOL    O6140075   4.331   2.359   7.302 -0.0863  0.2413  0.4758
  118MOL    H6240076   4.274   2.334   7.039 -1.6577 -2.7711  1.3054
  118MOL    H6340077   4.355   2.196   7.089 -0.3442 -0.6768 -2.8323
  118MOL    H6440078   4.504   2.303   7.225 -0.0712  0.7009  1.0651
  118MOL    H6540079   4.297   2.588   7.090 -0.3108 -0.8400 -1.9754
  118MOL    H6640080   4.379   2.801   7.037  0.8153 -1.0426 -2.8154
  118MOL    H6740081   4.634   2.855   7.065  0.9832 -0.2960  2.1766
  118MOL    H6840082   4.781   2.693   7.165  0.8808 -0.3551 -1.2944
  118MOL    H6940083   4.686   2.463   7.228  1.1539  1.0222 -0.4821
  118MOL    C7040084   4.358   2.434   7.423 -0.1322  0.2938 -0.1934
  118MOL    C7140085   4.264   2.406   7.535 -0.4305  0.3520  0.5763
  118MOL    C7240086   4.155   2.508   7.537  0.5490 -0.1341  0.3889
  118MOL    C7340087   4.164   2.626   7.608  0.5287  0.0580 -0.1555
  118MOL    C7440088   4.062   2.721   7.610 -0.5892  1.0614  0.1878
  118MOL    C7540089   3.948   2.702   7.533 -0.7759 -0.3075 -0.4339
  118MOL    C7640090   3.934   2.592   7.450  0.3498  0.2447  0.3620
  118MOL    C7740091   4.035   2.494   7.455  0.2503 -0.0620  0.2300
  118MOL    O7840092   4.334   2.404   7.661 -0.1012 -0.3011  0.0258
  118MOL    H7940093   4.460   2.418   7.459 -0.7461 -1.9758  0.6039
  118MOL    H8040094   4.355   2.540   7.399 -1.4531  0.6814  1.5937
  118MOL    H8140095   4.217   2.310   7.516  0.5259 -0.0998  0.4647
  118MOL    H8240096   4.254   2.646   7.664 -0.6391  2.2024  1.0216
  118MOL    H8340097   4.078   2.812   7.666  2.0720  0.7183  0.0563
  118MOL    H8440098   3.869   2.777   7.537 -0.0512  0.5395 -1.6791
  118MOL    H8540099   3.847   2.577   7.388  0.7242  3.2719 -1.0103
  118MOL    H8640100   4.022   2.403   7.399  1.5568  1.2451 -2.3327
  118MOL    C8740101   4.415   2.290   7.688 -0.0233 -0.0400 -0.2854
  118MOL    C8840102   4.450   2.300   7.834 -0.5269 -0.0172  0.9376
  118MOL    C8940103   4.557   2.195   7.866  0.2175  0.7697  0.6240
  118MOL    C9040104   4.517   2.058   7.890 -0.4720  0.1598  0.3239
  118MOL    C9140105   4.619   1.963   7.911  1.0200 -0.0710  0.2415
  118MOL    C9240106   4.752   2.002   7.905  0.0723 -0.0783 -0.2950
  118MOL    C9340107   4.788   2.137   7.879 -0.1803  0.4015 -0.5339
  118MOL    C9440108   4.692   2.235   7.851 -0.2050 -0.0187 -0.6358
  118MOL    O9540109   4.327   2.273   7.901 -0.1860 -0.3601 -0.4332
  118MOL    H9640110   4.501   2.303   7.622 -0.8618  0.1146 -1.3614
  118MOL    H9740111   4.358   2.199   7.668 -1.8815  1.0121  0.0509
  118MOL    H9840112   4.471   2.405   7.853  3.8052 -0.6161  0.1849
  118MOL    H9940113   4.413   2.031   7.903 -0.3703 -0.8182 -0.8020
  118MOL   H10040114   4.597   1.860   7.938  3.6745 -0.6346  0.3746
  118MOL   H10140115   4.834   1.939   7.938  0.0389 -1.6042 -2.9634
  118MOL   H10240116   4.892   2.164   7.864  0.8398 -2.7341  0.4241
  118MOL   H10340117   4.710   2.337   7.823  0.1541 -0.4364 -1.9553
  118MOL   C10440118   4.333   2.305   8.043 -0.4321 -0.3671  0.1552
  118MOL   C10540119   4.330   2.455   8.075  0.1515 -0.3482 -0.3694
  118MOL   C10640120   4.273   2.493   0.129  0.5284  0.7318 -0.0316
  118MOL   C10740121   4.198   2.613   0.135 -0.1766  0.5183  0.2413
  118MOL   C10840122   4.136   2.648   0.255 -0.3248 -0.5138  0.4841
  118MOL   C10940123   4.145   2.565   0.372 -0.2692 -0.1530  0.0790
  118MOL   C11040124   4.234   2.453   0.364  0.2474 -0.7811 -0.3707
  118MOL   C11140125   4.285   2.407   0.238 -0.0703 -1.2278 -0.3122
  118MOL   O11240126   4.462   2.508   8.061 -0.0862  0.1757 -0.5350
  118MOL   H11340127   4.240   2.264   0.001 -1.3896 -0.4285 -2.2046
  118MOL   H11440128   4.409   2.253   0.022  0.3737 -1.0933 -1.4847
  118MOL   H11540129   4.271   2.496   7.993 -0.8907 -1.6039 -0.2495
  118MOL   H11640130   4.186   2.673   0.045 -1.7145  0.1894  0.2154
  118MOL   H11740131   4.076   2.737   0.259  0.8226  0.2549  1.0792
  118MOL   H11840132   4.109   2.593   0.471 -0.4861 -0.2972  0.0418
  118MOL   H11940133   4.234   2.389   0.451  0.6194 -0.1737  0.0796
  118MOL   H12040134   4.329   2.310   0.223 -2.0068 -1.8405 -2.3919
  118MOL   C12140135   4.477   2.646   8.021  0.2011 -0.4368  0.1929
  118MOL   C12240136   4.622   2.684   7.975  1.0192 -0.1004  0.4425
  118MOL   C12340137   4.736   2.671   0.003 -0.5326 -0.6115  0.3730
  118MOL   C12440138   4.771   2.777   0.079 -0.7655  0.4957  0.0670
  118MOL   C12540139   4.868   2.763   0.181 -0.1130 -0.6451 -0.0619
  118MOL   C12640140   4.933   2.640   0.186 -0.1741  0.0888  0.4267
  118MOL   C12740141   4.905   2.526   0.106  0.3041 -0.1886  0.6501
  118MOL   C12840142   4.799   2.541   0.016  0.5279 -0.0754 -0.0835
  118MOL   O12940143   4.651   2.605   7.855 -0.0496  0.1494 -0.3243
  118MOL   H13040144   4.442   2.712   0.021  1.3216 -0.2101  0.4993
  118MOL   H13140145   4.415   2.645   7.931  1.4383 -0.8571 -0.6655
  118MOL   H13240146   4.612   2.786   7.936 -1.3933 -1.1770 -1.9327
  118MOL   H13340147   4.714   2.867   0.063 -0.9007  0.1921 -1.2266
  118MOL   H13440148   4.891   2.844   0.248 -1.6222 -0.6883  0.5269
  118MOL   H13540149   5.013   2.633   0.258  0.9411 -2.2234 -0.9920
  118MOL   H13640150   4.953   2.430   0.111  1.0560  0.2241  1.4088
  118MOL   H13740151   4.765   2.467   8.025 -0.2013 -1.3975  1.6146
  118MOL   C13840152   4.781   2.614   7.795 -0.0017 -0.1076  0.3098
  118MOL   C13940153   4.769   2.587   7.639  0.5579  0.4933  0.2436
  118MOL   C14040154   4.686   2.686   7.569  0.2735  0.0656 -0.7831
  118MOL   C14140155   4.543   2.685   7.585 -0.0479 -0.2593  0.5329
  118MOL   C14240156   4.466   2.769   7.498  0.6823  1.0546 -0.0783
  118MOL   C14340157   4.526   2.849   7.410 -0.3889 -0.1370  0.5208
  118MOL   C14440158   4.663   2.857   7.403 -0.2766  0.3674  0.3359
  118MOL   C14540159   4.744   2.780   7.488  0.2207 -0.1143  0.5771
  118MOL   O14640160   4.896   2.568   7.583  0.0327  0.6402  0.3645
  118MOL   H14740161   4.839   2.538   7.847 -0.0997 -1.2729 -1.2477
  118MOL   H14840162   4.822   2.714   7.811 -3.0034  1.0774  0.8827
  118MOL   H14940163   4.707   2.502   7.611  1.6779 -0.2835  0.1345
  118MOL   H15040164   4.489   2.616   7.648  2.6236 -3.3300 -0.3589
  118MOL   H15140165   4.359   2.759   7.493  0.5543  2.4263 -0.2989
  118MOL   H15240166   4.473   2.911   7.339  0.2258  0.7584  0.8171
  118MOL   H15340167   4.709   2.922   7.329  3.2867  0.5583  2.5751
  118MOL   H15440168   4.850   2.773   7.467  0.5216 -0.4647  2.0981
  118MOL   C15540169   4.923   2.426   7.587 -0.1190  0.1745  0.0091
  118MOL   C15640170   5.074   2.406   7.579 -0.5552 -0.4726  0.0470
  118MOL   C15740171   5.129   2.454   7.715  0.1369 -0.2917  0.4659
  118MOL   C15840172   5.178   2.585   7.732 -0.4299 -0.2156  0.6522
  118MOL   C15940173   5.230   2.632   7.860 -0.0899 -0.2152 -0.2243
  118MOL   C16040174   5.218   2.547   7.969 -0.1608 -0.2006  0.4238
  118MOL   C16140175   5.164   2.422   7.952  0.6168 -0.0361  0.2746
  118MOL   C16240176   5.114   2.370   7.826 -0.4325 -0.2116  0.4049
  118MOL   O16340177   5.106   2.262   7.561 -0.1536 -0.5451  0.2714
  118MOL   H16440178   4.863   2.380   7.509 -0.2458 -0.4729  0.4855
  118MOL   H16540179   4.891   2.373   7.677  0.3008  2.7315  1.7390
  118MOL   H16640180   5.120   2.468   7.503  1.3174 -1.7950  0.0850
  118MOL   H16740181   5.189   2.647   7.644  2.8616  0.5268  1.4942
  118MOL   H16840182   5.288   2.722   7.872  0.9661 -0.9901  0.5317
  118MOL   H16940183   5.249   2.576   8.068 -0.3271  1.4352  0.0090
  118MOL   H17040184   5.158   2.355   8.037  0.5340 -1.6660 -0.9955
  118MOL   H17140185   5.081   2.268   7.811 -3.8285  1.1875 -2.3284
  118MOL   C17240186   5.239   2.238   7.529  0.5735 -0.4033  0.5737
  118MOL   C17340187   5.272   2.094   7.564 -0.1305 -0.0974  0.2406
  118MOL   C17440188   5.273   2.080   7.716 -0.4508 -0.0712  0.0131
  118MOL   C17540189   5.156   2.035   7.776 -0.2345  0.5257 -0.3460
  118MOL   C17640190   5.160   2.010   7.917 -0.5313 -0.4961  0.8934
  118MOL   C17740191   5.278   2.031   7.991 -0.6025  0.2360  0.3399
  118MOL   C17840192   5.386   2.087   7.920  0.3162 -0.3092  0.1230
  118MOL   C17940193   5.392   2.107   7.789 -0.0152 -0.1809 -0.0843
  118MOL   O18040194   5.398   2.074   7.523  0.3639  0.2480 -0.1788
  118MOL   H18140195   5.247   2.249   7.421  1.2230 -3.3443  0.2738
  118MOL   H18240196   5.310   2.307   7.573  2.7440 -1.4454 -1.2081
  118MOL   H18340197   5.199   2.029   7.515  1.1872 -1.0828 -0.4307
  118MOL   H18440198   5.066   2.031   7.717  0.1845 -0.2254 -0.9426
  118MOL   H18540199   5.065   1.981   7.960 -0.2746 -0.1852  1.6840
  118MOL   H18640200   5.281   2.023   0.019 -1.4671 -0.3273  0.3261
  118MOL   H18740201   5.480   2.108   7.968  0.6947 -1.1914 -0.2273
  118MOL   H18840202   5.474   2.155   7.737  0.3780 -1.9156 -1.0982
  118MOL   C18940203   5.420   1.971   7.430  0.3190 -0.8394  0.2342
  118MOL   C19040204   5.534   2.011   7.333 -0.0401 -0.1963  0.4154
  118MOL   C19140205   5.659   2.060   7.410 -1.3740 -0.0784  0.7587
  118MOL   C19240206   5.691   2.201   7.433  0.5464  1.1611  0.6946
  118MOL   C19340207   5.816   2.233   7.481 -0.1384  0.4309  0.2381
  118MOL   C19440208   5.906   2.128   7.532  0.1584  0.7682 -0.2999
  118MOL   C19540209   5.873   1.991   7.521 -0.9750 -0.3944  0.1936
  118MOL   C19640210   5.757   1.960   7.442 -0.4818 -0.6799 -0.3380
  118MOL   O19740211   5.488   2.112   7.240  0.4839 -0.0274  0.5846
  118MOL   H19840212   5.441   1.875   7.478  0.2083 -1.1006 -0.2312
  118MOL   H19940213   5.330   1.931   7.382 -0.3823 -2.6128  2.9221
  118MOL   H20040214   5.562   1.928   7.268  0.1289 -0.8447  1.3014
  118MOL   H20140215   5.630   2.281   7.393 -0.8062  1.6072  3.4799
  118MOL   H20240216   5.841   2.336   7.499  2.2753 -0.1136  0.1769
  118MOL   H20340217   6.003   2.155   7.570  0.6771  1.1501 -1.8489
  118MOL   H20440218   5.953   1.919   7.534  1.6003  2.5963  1.4734
  118MOL   H20540219   5.734   1.855   7.427  0.9335 -0.7561 -2.0750
  118MOL   C20640220   5.394   2.069   7.139  0.3516 -0.7508  0.5491
  118MOL   C20740221   5.378   2.186   7.038  0.1216 -0.6589 -0.0879
  118MOL   C20840222   5.509   2.212   6.956  0.2542  0.2241 -0.1188
  118MOL   C20940223   5.522   2.165   6.827  0.1595  0.4618  0.0079
  118MOL   C21040224   5.639   2.184   6.751  0.6118  0.0771 -0.1351
  118MOL   C21140225   5.738   2.267   6.807 -0.7925  0.0321 -0.0527
  118MOL   C21240226   5.734   2.308   6.938  0.1489 -0.3242 -0.0119
  118MOL   C21340227   5.612   2.283   7.011  0.3689 -1.0394  0.4856
  118MOL   O21440228   5.334   2.304   7.111 -0.0974 -0.9895  0.1664
  118MOL   H21540229   5.410   1.970   7.097 -0.1679 -0.5539 -0.1271
  118MOL   H21640230   5.304   2.056   7.199  0.0760  0.8960  0.5163
  118MOL   H21740231   5.298   2.156   6.970 -1.7353 -0.2741  1.8741
  118MOL   H21840232   5.435   2.117   6.784 -1.2879  2.0308  1.1226
  118MOL   H21940233   5.644   2.146   6.651  0.5464  0.2233 -0.1942
  118MOL   H22040234   5.824   2.305   6.754 -1.5047  1.1115 -0.4356
  118MOL   H22140235   5.812   2.376   6.970 -1.3994  1.6917 -0.3941
  118MOL   H22240236   5.593   2.331   7.106  0.5705 -0.8338  0.4232
  118MOL   C22340237   5.309   2.421   7.034  0.3508 -0.2391 -0.1589
  118MOL   C22440238   5.274   2.518   7.145 -0.0226  0.0027  0.5790
  118MOL   C22540239   5.399   2.565   7.231  0.8005 -0.0642  0.6008
  118MOL   C22640240   5.414   2.518   7.365  0.0098 -0.0510 -0.3805
  118MOL   C22740241   5.521   2.564   7.443  0.2529  0.1158  0.0004
  118MOL   C22840242   5.600   2.671   7.400  0.4336  0.1814 -0.3438
  118MOL   C22940243   5.569   2.729   7.270 -0.6891  0.8381 -0.7650
  118MOL   C23040244   5.474   2.674   7.188  0.3742  0.4265  0.3160
  118MOL   O23140245   5.205   2.623   7.079  0.2097  0.1897 -0.3583
  118MOL   H23240246   5.387   2.452   6.964 -0.8993  0.0697 -1.4177
  118MOL   H23340247   5.225   2.404   6.967  1.2209 -0.3435 -1.2444
  118MOL   H23440248   5.204   2.468   7.212  1.6521 -1.6447  1.1275
  118MOL   H23540249   5.356   2.443   7.416  0.5965  0.9964  1.9008
  118MOL   H23640250   5.535   2.520   7.541 -0.7263 -0.6148 -0.1846
  118MOL   H23740251   5.674   2.725   7.456  4.7963 -0.2776 -5.2738
  118MOL   H23840252   5.614   2.823   7.240  1.5628  0.0586  0.1051
  118MOL   H23940253   5.469   2.708   7.085  1.0517 -0.1492  0.0952
  118MOL   C24040254   5.156   2.723   7.167  0.5752  0.2315 -0.3771
  118MOL   C24140255   5.174   2.861   7.106 -0.2740 -0.7000  0.5619
  118MOL   C24240256   5.153   2.973   7.204 -1.0042  0.8611 -1.2511
  118MOL   C24340257   5.021   3.005   7.242  0.1388  0.6179  0.0635
  118MOL   C24440258   4.996   3.101   7.346 -0.0153  0.1400  1.0008
  118MOL   C24540259   5.106   3.177   7.401 -0.6308 -0.5214  0.5350
  118MOL   C24640260   5.239   3.140   7.360  0.3287  0.2348  0.2104
  118MOL   C24740261   5.263   3.033   7.265  0.2728  0.5095  0.1909
  118MOL   O24840262   5.289   2.870   7.028  0.1000 -0.1529  0.2014
  118MOL   H24940263   5.049   2.716   7.183  0.5561 -0.8997 -0.9147
  118MOL   H25040264   5.191   2.715   7.270  3.1426  2.3175 -1.0241
  118MOL   H25140265   5.090   2.863   7.036 -0.5267 -1.2097  0.8492
  118MOL   H25240266   4.937   2.952   7.199 -0.0542 -0.3421  1.5724
  118MOL   H25340267   4.893   3.127   7.363  0.0480  0.8173  0.4255
  118MOL   H25440268   5.088   3.266   7.460  0.7085  1.2883 -1.6630
  118MOL   H25540269   5.326   3.191   7.398  2.2589 -2.3148 -0.6751
  118MOL   H25640270   5.362   2.997   7.245  0.7602  2.2431 -0.5761
  118MOL   C25740271   5.294   2.972   6.935 -0.0060  0.7709  0.5770
  118MOL   C25840272   5.434   3.014   6.876 -0.1045  0.5883 -0.2391
  118MOL   C25940273   5.497   2.888   6.813  0.6902 -0.1089  0.6989
  118MOL   C26040274   5.464   2.852   6.677 -0.0591  0.1971  0.3010
  118MOL   C26140275   5.532   2.740   6.626 -0.3281 -0.4284 -0.0855
  118MOL   C26240276   5.593   2.645   6.705  0.1672  0.2894  0.0290
  118MOL   C26340277   5.629   2.681   6.838  1.0270 -0.3615 -0.1196
  118MOL   C26440278   5.580   2.802   6.889  0.0390  0.1263 -0.3287
  118MOL   O26540279   5.522   3.071   6.973 -0.3532  0.5916  0.0606
  118MOL   H26640280   5.246   3.059   6.980 -2.0448 -0.5994  1.1297
  118MOL   H26740281   5.228   2.944   6.852 -2.7104  3.4396  1.7021
  118MOL   H26840282   5.414   3.076   6.789 -0.6725  0.0756 -0.4711
  118MOL   H26940283   5.413   2.928   6.621 -0.3651  0.0808  0.4159
  118MOL   H27040284   5.530   2.721   6.520 -0.9682 -0.4186 -0.0822
  118MOL   H27140285   5.648   2.558   6.673  1.6631  0.1320  2.9433
  118MOL   H27240286   5.695   2.620   6.898  0.9921 -0.3649 -0.0848
  118MOL   H27340287   5.599   2.836   6.990  1.8764  1.1850 -0.9925
  118MOL   C27440288   5.479   3.194   7.033  0.7103 -0.9263  0.2664
  118MOL   C27540289   5.589   3.261   7.120  0.3665  0.2926 -0.0356
  118MOL   C27640290   5.683   3.166   7.198 -0.0537  0.1824 -0.4866
  118MOL   C27740291   5.645   3.120   7.325 -0.1647  0.3903 -0.4293
  118MOL   C27840292   5.717   3.022   7.392 -0.3129  0.1249  0.2959
  118MOL   C27940293   5.837   2.980   7.340 -0.5738 -0.6521  0.4606
  118MOL   C28040294   5.878   3.022   7.213  0.0200  0.7459 -0.0428
  118MOL   C28140295   5.792   3.109   7.138  0.0017 -1.1300 -0.4086
  118MOL   O28240296   5.545   3.361   7.208  0.3967 -0.4071  0.3284
  118MOL   H28340297   5.447   3.262   6.953  1.0864 -0.8354  0.1904
  118MOL   H28440298   5.392   3.179   7.097  0.6162  0.0683  0.3910
  118MOL   H28540299   5.665   3.304   7.055 -0.6441 -0.3428 -1.6595
  118MOL   H28640300   5.565   3.163   7.384 -0.3899 -1.0724  0.3688
  118MOL   H28740301   5.686   2.981   7.488 -1.6218  0.3409 -0.0247
  118MOL   H28840302   5.909   2.919   7.393 -0.2047 -0.9936 -0.4167
  118MOL   H28940303   5.971   2.982   7.175 -0.3442  0.3728 -0.5478
  118MOL   H29040304   5.835   3.132   7.042 -0.7303  1.4096 -0.1719
  118MOL   C29140305   5.536   3.492   7.153 -0.2215 -0.2175 -0.4827
  118MOL   C29240306   5.457   3.601   7.234  0.5615  0.2258 -0.0286
  118MOL   C29340307   5.511   3.739   7.197 -0.2154 -0.3831 -0.0593
  118MOL   C29440308   5.439   3.824   7.116 -0.0820  0.0994  0.3611
  118MOL   C29540309   5.471   3.960   7.108 -0.1783  0.4098 -0.0106
  118MOL   C29640310   5.584   4.008   7.178 -0.1454 -0.5760  0.2263
  118MOL   C29740311   5.660   3.919   7.254 -0.1743  0.4526  0.0317
  118MOL   C29840312   5.626   3.782   7.265 -0.4135  0.5878  0.5706
  118MOL   O29940313   5.316   3.592   7.197 -0.0405  0.3104  0.2769
  118MOL   H30040314   5.504   3.481   7.049 -0.8884 -0.2031 -0.2864
  118MOL   H30140315   5.634   3.538   7.138 -0.5353  0.6741  0.1519
  118MOL   H30240316   5.467   3.587   7.341 -0.4882 -0.2960  0.0039
  118MOL   H30340317   5.352   3.780   7.068 -0.2064  2.0300 -1.2911
  118MOL   H30440318   5.420   4.024   7.037 -0.4288 -0.7108 -0.8447
  118MOL   H30540319   5.619   4.110   7.183  1.6231 -1.2179  1.7408
  118MOL   H30640320   5.758   3.947   7.291 -0.1275  1.2554 -0.7011
  118MOL   H30740321   5.699   3.715   7.309 -0.4144  0.0626 -0.2102
  118MOL   C30840322   5.252   3.462   7.207  0.1849  0.2439  0.3140
  118MOL   C30940323   5.112   3.479   7.140  0.3582  0.1968  0.4807
  118MOL   C31040324   5.023   3.583   7.205 -0.0000 -0.5843  0.0451
  118MOL   C31140325   5.016   3.712   7.149 -0.0939  0.2565  0.7204
  118MOL   C31240326   4.945   3.807   7.221  0.2031  0.8149 -0.0487
  118MOL   C31340327   4.880   3.772   7.338 -0.3259  0.2322  0.1951
  118MOL   C31440328   4.884   3.643   7.394 -0.1556 -0.0127  0.1812
  118MOL   C31540329   4.974   3.556   7.329 -0.3686  0.2088 -0.3794
  118MOL   O31640330   5.124   3.503   6.998 -0.1250  0.3769  0.0791
  118MOL   H31740331   5.234   3.421   7.306  0.1850 -0.7111 -0.0769
  118MOL   H31840332   5.300   3.392   7.139 -0.9157 -0.7165  0.5089
  118MOL   H31940333   5.053   3.389   7.156  1.7780 -1.3446 -2.4526
  118MOL   H32040334   5.061   3.730   7.052 -1.1218  0.1276  0.2076
  118MOL   H32140335   4.921   3.903   7.178 -0.5478  0.1165 -1.2097
  118MOL   H32240336   4.834   3.854   7.391  0.2512  1.3280 -0.9653
  118MOL   H32340337   4.828   3.626   7.485 -0.9491  1.1275 -0.0876
  118MOL   H32440338   4.985   3.454   7.363  0.6420  0.4172 -0.0819
  118MOL   C32540339   5.124   3.388   6.916 -0.0792  0.0964 -0.1862
  118MOL   C32640340   4.980   3.341   6.889 -0.6023 -0.1365 -0.1570
  118MOL   C32740341   4.971   3.251   6.766  0.0812  0.3954  0.4926
  118MOL   C32840342   4.936   3.296   6.638 -0.0447  0.1542 -0.1793
  118MOL   C32940343   4.910   3.209   6.533  0.7509 -0.1814  0.0084
  118MOL   C33040344   4.927   3.073   6.549 -0.0228  0.2841 -0.2141
  118MOL   C33140345   4.975   3.026   6.673 -0.1386 -0.7489  0.1049
  118MOL   C33240346   4.992   3.112   6.785 -0.5777 -0.2610 -0.2038
  118MOL   O33340347   4.928   3.277   7.000  0.1012  0.5203  0.4042
  118MOL   H33440348   5.178   3.306   6.963 -1.9972  0.7748  3.3566
  118MOL   H33540349   5.169   3.404   6.817 -1.0038  0.6826 -0.5190
  118MOL   H33640350   4.913   3.426   6.887 -0.7766 -0.2824 -0.6141
  118MOL   H33740351   4.931   3.403   6.624  1.1104  0.1303 -0.8646
  118MOL   H33840352   4.878   3.242   6.435 -1.3994 -1.9290  0.0659
  118MOL   H33940353   4.916   3.005   6.466  0.0645  1.5133 -1.2361
  118MOL   H34040354   4.983   2.919   6.687 -1.0758 -0.8302  0.0272
  118MOL   H34140355   5.023   3.069   6.879 -0.1445  0.6989  0.0982
  118MOL   H34240356   4.835   3.289   7.006  0.0343  1.3939 -1.7241
  119MOL     C140357   2.075   0.570   7.416 -0.8510  0.1649  0.3459
  119MOL     C240358   2.114   0.505   7.549 -0.0624  0.5605 -0.1421
  119MOL     C340359   2.137   0.356   7.535 -0.2444 -0.6462 -0.2922
  119MOL     C440360   2.267   0.312   7.501  0.5713  0.3662 -0.6495
  119MOL     C540361   2.293   0.169   7.491 -0.7770 -0.3704 -0.7287
  119MOL     C640362   2.181   0.085   7.500 -0.0845 -0.0168  1.0041
  119MOL     C740363   2.050   0.128   7.512 -0.2462  0.0845  0.3085
  119MOL     C840364   2.026   0.268   7.538 -0.1876  0.5488 -0.2291
  119MOL     O940365   2.012   0.527   7.648  0.5789 -0.1883 -0.1695
  119MOL    H1040366   1.998   0.501   7.383 -0.2162  0.7162 -2.4549
  119MOL    H1140367   2.035   0.671   7.428 -0.4874  0.5642 -1.7105
  119MOL    H1240368   2.205   0.534   7.602 -0.7579 -0.6867  1.7737
  119MOL    H1340369   2.360   0.367   7.505  0.1080  1.2088 -1.3769
  119MOL    H1440370   2.385   0.119   7.465 -1.0590 -2.1102  1.4731
  119MOL    H1540371   2.194   8.060   7.475 -0.5817 -0.1203  1.1825
  119MOL    H1640372   1.969   0.057   7.507  1.6653 -2.2479  1.3776
  119MOL    H1740373   1.930   0.303   7.571  0.2155 -0.0431  1.6418
  119MOL    H1840374   2.160   0.565   7.348  0.7798 -0.0152  2.3514
  119MOL    C1940375   2.024   0.662   7.701 -0.1008 -0.6771 -0.0870
  119MOL    C2040376   1.961   0.671   7.840  0.1537 -0.3201  0.4002
  119MOL    C2140377   1.929   0.815   7.877 -0.1033 -0.2625 -0.2462
  119MOL    C2240378   1.813   0.870   7.824 -0.1660  0.1148 -0.0084
  119MOL    C2340379   1.789   1.016   7.833 -0.3607 -0.0432  0.0658
  119MOL    C2440380   1.878   1.100   7.897 -0.0402  0.1483 -0.4000
  119MOL    C2540381   1.997   1.042   7.949 -0.0299  0.1612 -0.2978
  119MOL    C2640382   2.023   0.903   7.934  0.2216  1.3572  0.5096
  119MOL    O2740383   2.061   0.617   7.926 -0.1209  0.6206  0.3001
  119MOL    H2840384   2.122   0.710   7.699 -1.1263  1.4363 -1.6623
  119MOL    H2940385   1.964   0.722   7.632  1.5855 -0.7463 -1.6737
  119MOL    H3040386   1.870   0.612   7.837 -0.0766  0.1151 -1.7473
  119MOL    H3140387   1.739   0.806   7.777 -0.7958  0.3168  0.6952
  119MOL    H3240388   1.704   1.064   7.786 -0.2872  0.4511  0.4338
  119MOL    H3340389   1.860   1.206   7.905 -1.7136 -0.0840 -0.8423
  119MOL    H3440390   2.068   1.103   8.003  2.2454 -1.0412 -1.8199
  119MOL    H3540391   2.119   0.854   7.950 -1.0701 -0.7868  2.0287
  119MOL    C3640392   2.081   0.473   7.914  0.1629  0.0580  0.6311
  119MOL    C3740393   2.140   0.419   8.043  0.4914 -1.4396  0.1782
  119MOL    C3840394   2.241   0.314   8.010  0.3370  1.3030 -0.1491
  119MOL    C3940395   2.194   0.196   7.943  0.0340 -0.5912  0.3773
  119MOL    C4040396   2.292   0.101   7.897  0.4735  0.3671 -1.1057
  119MOL    C4140397   2.431   0.126   7.919  0.9923 -0.2767  0.0995
  119MOL    C4240398   2.474   0.232   7.996 -0.2209 -0.1413  0.3895
  119MOL    C4340399   2.378   0.326   8.039 -0.2136 -0.2316 -0.5209
  119MOL    O4440400   2.044   0.368   0.056 -0.4507 -0.2805 -0.6457
  119MOL    H4540401   1.998   0.406   7.893  0.4038 -0.5361  1.5832
  119MOL    H4640402   2.160   0.465   7.838  2.2519  3.6047  2.2630
  119MOL    H4740403   2.190   0.499   0.018 -0.6846 -0.3054 -0.3666
  119MOL    H4840404   2.088   0.189   7.923 -0.4942 -0.4266  2.9922
  119MOL    H4940405   2.271   0.019   7.829 -1.5850  0.4467 -0.5969
  119MOL    H5040406   2.502   0.062   7.869 -0.3596 -0.7391 -1.2814
  119MOL    H5140407   2.577   0.248   8.024 -0.1137  0.1248 -0.1548
  119MOL    H5240408   2.411   0.400   0.031  2.2776  0.3246 -2.1531
  119MOL    C5340409   1.942   0.461   0.103  0.1967  0.1784 -0.0475
  119MOL    C5440410   1.804   0.407   0.091 -0.5621  0.0041 -0.3233
  119MOL    C5540411   1.718   0.531   0.126  0.3788  0.5244 -0.3014
  119MOL    C5640412   1.697   0.626   0.025 -0.6475  0.4659  0.0634
  119MOL    C5740413   1.627   0.745   0.054  0.2787 -0.0233  0.2083
  119MOL    C5840414   1.573   0.772   0.179 -0.3680  0.6128  0.1934
  119MOL    C5940415   1.594   0.678   0.280  0.2131 -0.4237 -0.1508
  119MOL    C6040416   1.664   0.555   0.256 -0.2878 -0.1488 -0.2292
  119MOL    O6140417   1.777   0.352   8.036 -0.6145  0.8145 -0.6774
  119MOL    H6240418   1.952   0.485   0.209  2.9572 -0.8238 -0.0380
  119MOL    H6340419   1.953   0.556   0.050  1.0520 -1.3237 -2.6720
  119MOL    H6440420   1.787   0.328   0.165  2.0815  1.2534  1.6996
  119MOL    H6540421   1.741   0.613   8.008 -2.7603 -0.5077 -0.7949
  119MOL    H6640422   1.619   0.817   8.054 -1.2963 -0.0364  0.3326
  119MOL    H6740423   1.515   0.856   0.213  0.1941  1.4051 -0.7939
  119MOL    H6840424   1.553   0.698   0.379  1.6847 -0.9802  0.5812
  119MOL    H6940425   1.669   0.482   0.335 -0.0829 -0.2762 -0.3583
  119MOL    C7040426   1.655   0.286   8.033  0.1250 -0.1155  0.1942
  119MOL    C7140427   1.631   0.225   7.893 -0.0294  0.5690 -0.0282
  119MOL    C7240428   1.711   0.099   7.876  0.4267  0.3468 -0.3801
  119MOL    C7340429   1.842   0.099   7.838  0.1784 -0.3081 -0.2180
  119MOL    C7440430   1.918   8.063   7.826  0.5399  0.2961 -0.0820
  119MOL    C7540431   1.859   7.941   7.865  0.2051  0.3565 -0.0404
  119MOL    C7640432   1.728   7.946   7.921  0.1766 -0.3752 -0.4738
  119MOL    C7740433   1.652   8.058   7.921  0.9091 -0.3929  0.3552
  119MOL    O7840434   1.650   0.328   7.796 -0.7165 -0.2749 -0.3272
  119MOL    H7940435   1.630   0.208   0.025  0.2555 -0.6763 -0.3602
  119MOL    H8040436   1.579   0.364   8.035  0.0332 -0.1474 -1.7985
  119MOL    H8140437   1.528   0.194   7.879 -0.3371  1.4460  0.2805
  119MOL    H8240438   1.886   0.195   7.811 -0.7225  0.6934  1.8142
  119MOL    H8340439   2.013   8.064   7.774  0.9371  0.1816  0.6365
  119MOL    H8440440   1.906   7.845   7.849  0.8544 -0.0297  3.5466
  119MOL    H8540441   1.675   7.854   7.943 -1.9498  1.3878  2.0006
  119MOL    H8640442   1.549   8.045   7.952  0.7865 -1.5593 -0.4945
  119MOL    C8740443   1.615   0.296   7.663 -0.2891  0.0989  0.3235
  119MOL    C8840444   1.613   0.426   7.581 -0.6464  0.2003 -0.2897
  119MOL    C8940445   1.504   0.520   7.644 -0.0649  0.2280  0.6545
  119MOL    C9040446   1.386   0.543   7.571  1.0196  0.0998 -0.8017
  119MOL    C9140447   1.286   0.628   7.631 -0.7229  0.4512  0.4181
  119MOL    C9240448   1.304   0.693   7.755  0.2658  0.0580  0.4549
  119MOL    C9340449   1.431   0.679   7.817 -0.0679 -0.5564 -0.0734
  119MOL    C9440450   1.523   0.584   7.768 -0.3441 -0.2068 -0.0090
  119MOL    O9540451   1.580   0.398   7.449 -0.6098 -0.0734  0.1623
  119MOL    H9640452   1.512   0.258   7.660  0.0936 -0.9106 -0.1519
  119MOL    H9740453   1.687   0.226   7.621  0.2002 -0.6632  2.3694
  119MOL    H9840454   1.708   0.479   7.586  0.3370 -1.5523  0.1152
  119MOL    H9940455   1.366   0.510   7.470  0.6236  0.8250 -0.9614
  119MOL   H10040456   1.204   0.653   7.565 -1.1040 -0.2605  0.6237
  119MOL   H10140457   1.235   0.765   7.796 -1.5497 -0.2654 -1.9288
  119MOL   H10240458   1.457   0.720   7.914 -0.7419 -0.5961  0.1236
  119MOL   H10340459   1.616   0.573   7.823  0.5055  0.3475 -1.3120
  119MOL   C10440460   1.690   0.412   7.360  0.0879 -0.2543 -1.1104
  119MOL   C10540461   1.637   0.451   7.218  0.2500 -0.2230 -0.6072
  119MOL   C10640462   1.556   0.580   7.215 -0.5406 -0.1450  1.0210
  119MOL   C10740463   1.619   0.705   7.197 -0.3187 -0.4430  0.0297
  119MOL   C10840464   1.545   0.825   7.182 -0.5942  0.2655  0.2813
  119MOL   C10940465   1.402   0.812   7.175 -0.8802  0.0867 -0.3308
  119MOL   C11040466   1.336   0.685   7.187 -0.6136 -0.0512  1.2459
  119MOL   C11140467   1.415   0.570   7.206  0.3977 -0.5212  0.1604
  119MOL   O11240468   1.747   0.457   7.132  0.2321  0.4262 -0.1121
  119MOL   H11340469   1.777   0.475   7.380  0.7755 -2.1443  2.2236
  119MOL   H11440470   1.746   0.319   7.351 -1.3415 -1.1995 -0.2914
  119MOL   H11540471   1.575   0.370   7.178  1.5831 -0.9676 -1.2194
  119MOL   H11640472   1.727   0.715   7.203 -0.6043  1.9123  2.0806
  119MOL   H11740473   1.591   0.922   7.183 -0.4357  0.2022 -0.6586
  119MOL   H11840474   1.347   0.905   7.163 -0.4632  0.3290 -0.3678
  119MOL   H11940475   1.228   0.680   7.185 -0.5289 -1.7186 -0.3730
  119MOL   H12040476   1.373   0.474   7.232 -0.0694  0.0246  1.4544
  119MOL   C12140477   1.729   0.446   6.992 -0.9178  0.2339 -0.2344
  119MOL   C12240478   1.777   0.309   6.938  0.3441 -0.1281  0.4069
  119MOL   C12340479   1.713   0.191   7.009 -0.0263  0.6032 -0.3537
  119MOL   C12440480   1.796   0.115   7.098  0.2037 -0.3886 -0.3415
  119MOL   C12540481   1.735   0.008   7.166  0.4593 -0.3225  0.1481
  119MOL   C12640482   1.597   8.056   7.154 -0.1579 -0.2670  0.2650
  119MOL   C12740483   1.512   0.065   7.074 -0.4844 -0.5380  0.4197
  119MOL   C12840484   1.576   0.171   7.006 -0.6553 -0.5789 -0.5199
  119MOL   O12940485   1.734   0.312   6.803 -0.3379 -0.2995  0.5791
  119MOL   H13040486   1.774   0.535   6.948  1.8174 -1.2922 -0.6602
  119MOL   H13140487   1.622   0.455   6.974 -1.2017  1.4699  1.8696
  119MOL   H13240488   1.885   0.316   6.952  0.1282  0.6439  1.8235
  119MOL   H13340489   1.899   0.144   7.114 -0.0299 -0.9081  2.3524
  119MOL   H13440490   1.797   8.028   7.231  1.0237  0.0642 -0.0356
  119MOL   H13540491   1.545   7.977   7.206 -0.9991  1.4375  2.0747
  119MOL   H13640492   1.405   0.050   7.071 -0.5797  0.3934 -1.2315
  119MOL   H13740493   1.516   0.247   6.959  1.7615 -0.1605 -3.0237
  119MOL   C13840494   1.812   0.219   6.728  0.2953 -0.6618  0.1008
  119MOL   C13940495   1.742   0.173   6.607  0.8515  0.0894 -0.1464
  119MOL   C14040496   1.826   0.068   6.528 -0.4327  0.8439  0.2194
  119MOL   C14140497   1.803   8.009   6.544  0.3836  0.9125 -0.1864
  119MOL   C14240498   1.866   7.923   6.459  0.1296  0.0344  0.0402
  119MOL   C14340499   1.956   7.963   6.365 -1.1333 -0.0688  0.0560
  119MOL   C14440500   1.979   0.020   6.343  0.5985 -0.2107 -0.4584
  119MOL   C14540501   1.918   0.111   6.427 -0.1595 -0.5606  0.0597
  119MOL   O14640502   1.616   0.114   6.641  0.5384  0.0953  0.1176
  119MOL   H14740503   1.849   0.139   6.792 -1.9326 -2.4265 -0.7617
  119MOL   H14840504   1.907   0.266   6.701 -1.6334  1.8032 -2.8076
  119MOL   H14940505   1.714   0.254   6.539 -1.2461  1.0579  1.8192
  119MOL   H15040506   1.751   7.973   6.631  1.3586  0.0806  0.0704
  119MOL   H15140507   1.844   7.818   6.471  1.6202 -0.3537 -0.4216
  119MOL   H15240508   2.008   7.886   6.308 -0.1373  0.6278  0.0088
  119MOL   H15340509   2.037   0.066   6.264  0.2918  1.6369  0.3589
  119MOL   H15440510   1.931   0.216   6.404 -0.0238 -1.0077 -2.0274
  119MOL   C15540511   1.512   0.124   6.547  0.2275 -0.7610 -0.0887
  119MOL   C15640512   1.430   0.258   6.535  0.2993 -0.0206 -0.1835
  119MOL   C15740513   1.374   0.303   6.668 -0.2609 -0.6001  0.2330
  119MOL   C15840514   1.256   0.240   6.716 -0.1601 -0.0287 -0.0400
  119MOL   C15940515   1.194   0.289   6.838 -0.5469  0.1098  0.3061
  119MOL   C16040516   1.249   0.398   6.906 -0.2887  0.5181 -0.0571
  119MOL   C16140517   1.366   0.458   6.861  0.4765  0.2067 -0.1345
  119MOL   C16240518   1.429   0.415   6.743 -0.2322  0.5447 -0.0408
  119MOL   O16340519   1.510   0.350   6.468 -0.0025  0.3044  0.0448
  119MOL   H16440520   1.455   0.037   6.579  0.4297 -2.2148 -3.5536
  119MOL   H16540521   1.548   0.097   6.448 -0.4337  1.8936 -1.0928
  119MOL   H16640522   1.341   0.239   6.476 -0.0258  0.1562  0.2444
  119MOL   H16740523   1.223   0.151   6.666  1.1723 -2.3905  3.1128
  119MOL   H16840524   1.113   0.235   6.883 -0.4715 -0.1099  0.1760
  119MOL   H16940525   1.214   0.441   6.998  0.7612  2.5541 -0.5793
  119MOL   H17040526   1.417   0.539   6.909  4.3302 -3.2552  1.8456
  119MOL   H17140527   1.519   0.460   6.704  0.3809 -0.4911  0.1825
  119MOL   C17240528   1.459   0.461   6.403 -0.3136  0.2936  0.1946
  119MOL   C17340529   1.573   0.527   6.325  0.2025 -0.2335  0.3998
  119MOL   C17440530   1.607   0.459   6.192  0.4466  0.6234 -0.2035
  119MOL   C17540531   1.550   0.505   6.074 -0.0929 -0.0285 -0.2182
  119MOL   C17640532   1.588   0.441   5.951  0.3834 -0.0092 -0.1268
  119MOL   C17740533   1.681   0.336   5.949 -0.6173  0.3746  0.5760
  119MOL   C17840534   1.722   0.280   6.070  0.0595 -0.3866  0.1655
  119MOL   C17940535   1.688   0.345   6.198 -0.0604  0.8887  0.7870
  119MOL   O18040536   1.680   0.522   6.415 -0.6400  0.1873  0.1392
  119MOL   H18140537   1.388   0.427   6.327 -0.2352 -1.5447  0.8985
  119MOL   H18240538   1.412   0.535   6.467 -0.8269  0.6324 -0.5637
  119MOL   H18340539   1.543   0.631   6.311  0.2738 -0.5771 -2.6548
  119MOL   H18440540   1.488   0.593   6.072 -1.0852 -0.7374 -1.2348
  119MOL   H18540541   1.541   0.471   5.859 -0.8070 -3.0038 -0.5563
  119MOL   H18640542   1.702   0.296   5.851 -1.8498  1.5223 -0.1797
  119MOL   H18740543   1.792   0.198   6.070  2.0336  1.2403  0.9314
  119MOL   H18840544   1.728   0.305   6.291 -0.6017 -2.5924 -0.3789
  119MOL   C18940545   1.765   0.640   6.432 -0.1505  0.6416 -0.2721
  119MOL   C19040546   1.887   0.620   6.529  0.0159  0.0906  0.6615
  119MOL   C19140547   1.898   0.737   6.629  0.0029 -0.7866 -0.0058
  119MOL   C19240548   2.005   0.834   6.633 -0.0918 -0.5952 -0.3264
  119MOL   C19340549   2.013   0.931   6.734  0.3072  0.2100 -0.1017
  119MOL   C19440550   1.922   0.929   6.843 -0.3630  0.2603 -0.3413
  119MOL   C19540551   1.818   0.840   6.835  0.7348 -1.2068  0.6602
  119MOL   C19640552   1.805   0.744   6.735  0.0910 -0.1166  0.8705
  119MOL   O19740553   2.003   0.620   6.446  0.1429 -0.0943  0.8128
  119MOL   H19840554   1.806   0.678   6.338 -0.0616 -2.1539 -1.3888
  119MOL   H19940555   1.700   0.722   6.465  0.5709  0.2567  2.2651
  119MOL   H20040556   1.888   0.525   6.582  2.1953 -1.0517 -1.3530
  119MOL   H20140557   2.080   0.837   6.556  0.0144 -0.3544 -0.2149
  119MOL   H20240558   2.089   1.006   6.723  0.9573 -0.4960 -0.4958
  119MOL   H20340559   1.928   0.997   6.927 -0.7168  1.9118 -1.6453
  119MOL   H20440560   1.740   0.838   6.910 -0.4069  0.8710 -0.4291
  119MOL   H20540561   1.724   0.673   6.726 -1.4253  1.6746  0.0854
  119MOL   C20640562   2.030   0.497   6.384  0.2209 -0.7739  0.0178
  119MOL   C20740563   2.147   0.511   6.286  0.7715 -0.1225  0.7893
  119MOL   C20840564   2.164   0.381   6.198  1.0467 -0.1090 -0.2081
  119MOL   C20940565   2.253   0.281   6.248 -0.0824 -0.2847 -0.5399
  119MOL   C21040566   2.266   0.163   6.187 -0.6579  0.4615 -0.4072
  119MOL   C21140567   2.203   0.139   6.065 -0.3430 -0.1363  0.8068
  119MOL   C21240568   2.124   0.238   6.002 -0.0192 -0.1201 -0.1070
  119MOL   C21340569   2.095   0.354   6.074  0.1696 -0.3114  0.2132
  119MOL   O21440570   2.271   0.541   6.357  0.8523 -0.3535 -0.7373
  119MOL   H21540571   2.056   0.431   6.466  0.4451 -2.0753 -1.0912
  119MOL   H21640572   1.947   0.460   6.324 -1.7369  0.4296  1.9309
  119MOL   H21740573   2.127   0.587   6.211 -1.6226 -0.6389  0.8730
  119MOL   H21840574   2.302   0.285   6.344  1.9287 -1.2788 -1.5099
  119MOL   H21940575   2.326   0.078   6.218 -0.0053  0.5396 -1.4385
  119MOL   H22040576   2.221   0.041   6.023  0.6019  0.5755 -0.4554
  119MOL   H22140577   2.079   0.216   5.906 -0.2491  3.0552 -0.7644
  119MOL   H22240578   2.030   0.433   6.040  0.7775  0.6962  1.3386
  119MOL   C22340579   2.271   0.664   6.425  0.4911  0.0364  0.6809
  119MOL   C22440580   2.406   0.735   6.436  0.2412 -0.6034  0.2144
  119MOL   C22540581   2.397   0.860   6.520  0.2253  0.5221 -0.0287
  119MOL   C22640582   2.451   0.865   6.656  0.1802  0.1944  0.4080
  119MOL   C22740583   2.435   0.971   6.744  0.1582 -0.3388 -0.4057
  119MOL   C22840584   2.372   1.088   6.691 -0.1041 -0.4155 -0.6151
  119MOL   C22940585   2.315   1.086   6.565  0.1455  0.3415 -0.0549
  119MOL   C23040586   2.340   0.974   6.476  0.7287  0.1678  0.3441
  119MOL   O23140587   2.520   0.648   6.472 -0.1613  0.1627 -0.1148
  119MOL   H23240588   2.197   0.734   6.387 -0.3986 -1.3649 -0.2126
  119MOL   H23340589   2.243   0.641   6.528  2.1292 -0.4350  1.0331
  119MOL   H23440590   2.417   0.757   6.330  1.1760 -0.2287  0.3857
  119MOL   H23540591   2.490   0.769   6.686  2.9607  0.7480 -1.2267
  119MOL   H23640592   2.474   0.953   6.843 -0.3888  0.9448  0.0590
  119MOL   H23740593   2.360   1.170   6.760  0.2657 -1.1366  0.3062
  119MOL   H23840594   2.275   1.176   6.522  2.7650  0.4445 -2.4192
  119MOL   H23940595   2.308   0.978   6.373 -0.4310  1.1643  0.7330
  119MOL   C24040596   2.578   0.581   6.363  0.1878  0.7073  0.4716
  119MOL   C24140597   2.710   0.516   6.398 -0.3130  0.3155 -1.1530
  119MOL   C24240598   2.797   0.594   6.496  0.5623 -0.8445 -0.2757
  119MOL   C24340599   2.894   0.686   6.459 -0.6154  0.2068 -0.3440
  119MOL   C24440600   2.964   0.768   6.550 -0.2310  0.1973  0.6215
  119MOL   C24540601   2.954   0.749   6.687 -0.6118 -0.5751 -0.1677
  119MOL   C24640602   2.876   0.642   6.731  0.4750 -0.7315  0.8762
  119MOL   C24740603   2.788   0.572   6.635 -0.1952  0.1318 -0.3490
  119MOL   O24840604   2.681   0.386   6.447  0.0350 -0.3940 -0.0642
  119MOL   H24940605   2.521   0.498   6.321 -1.9304  1.8966  0.9191
  119MOL   H25040606   2.611   0.648   6.284  0.4639 -1.4070 -1.2720
  119MOL   H25140607   2.765   0.497   6.306  0.8583  0.4502 -0.4966
  119MOL   H25240608   2.909   0.718   6.357 -1.5867  1.1649 -0.1924
  119MOL   H25340609   3.026   0.842   6.501  0.2163 -0.9872 -0.6280
  119MOL   H25440610   3.005   0.799   6.768 -1.1812 -1.2960  0.6453
  119MOL   H25540611   2.873   0.621   6.837  0.2620  1.5200  1.3275
  119MOL   H25640612   2.723   0.489   6.657 -0.6977  0.4016 -0.8030
  119MOL   C25740613   2.797   0.302   6.462  0.3403 -0.3252  0.0760
  119MOL   C25840614   2.760   0.152   6.424 -0.8262 -1.2147 -0.4405
  119MOL   C25940615   2.746   0.141   6.274 -0.0331 -0.5082  0.3977
  119MOL   C26040616   2.854   0.094   6.190  0.3961  0.0882 -1.0469
  119MOL   C26140617   2.831   0.082   6.050 -0.3366 -0.2117  0.2042
  119MOL   C26240618   2.705   0.102   5.999  0.4448  0.0250 -0.0208
  119MOL   C26340619   2.600   0.155   6.076 -0.0684 -0.4485 -0.1900
  119MOL   C26440620   2.622   0.183   6.217 -0.4397 -0.6054  0.0858
  119MOL   O26540621   2.651   0.097   6.498 -0.3627  0.0900  0.3580
  119MOL   H26640622   2.841   0.294   6.561  1.0134  0.0763 -0.1881
  119MOL   H26740623   2.875   0.337   6.395  0.0098  3.0746  1.3781
  119MOL   H26840624   2.847   0.100   6.464  0.3487  1.6841  0.8960
  119MOL   H26940625   2.942   0.066   6.246  0.0334  1.7402  0.3929
  119MOL   H27040626   2.912   0.046   5.988 -0.1839  1.7913 -0.8029
  119MOL   H27140627   2.691   0.095   5.892 -0.9997 -2.4803  0.2948
  119MOL   H27240628   2.505   0.183   6.032 -1.0552  0.8788  2.6679
  119MOL   H27340629   2.544   0.218   6.284 -0.5396 -0.1186 -0.2883
  119MOL   C27440630   2.634   8.034   6.495  1.2195 -0.1135  0.2134
  119MOL   C27540631   2.547   7.994   6.612 -0.2814  0.4093  0.0844
  119MOL   C27640632   2.600   7.864   6.676  0.5560  0.1806  0.0188
  119MOL   C27740633   2.597   7.748   6.602 -0.4558 -0.2072  0.6134
  119MOL   C27840634   2.644   7.628   6.658  0.2550  0.1714  0.1213
  119MOL   C27940635   2.714   7.625   6.778  0.4242  0.1132  0.3546
  119MOL   C28040636   2.703   7.740   6.859  0.0608 -0.3395 -0.6965
  119MOL   C28140637   2.659   7.863   6.803  0.0011  0.4296 -0.1326
  119MOL   O28240638   2.413   7.976   6.561  0.4533  0.1167  0.0541
  119MOL   H28340639   2.602   8.010   6.394  0.5452  0.8853  0.1797
  119MOL   H28440640   2.729   7.982   6.506  1.7982  0.8635 -0.0727
  119MOL   H28540641   2.546   8.071   6.689  1.7031 -0.6304  1.2138
  119MOL   H28640642   2.544   7.740   6.508 -0.6091 -1.3602  0.7831
  119MOL   H28740643   2.645   7.538   6.597  1.5373 -1.7063  2.8219
  119MOL   H28840644   2.743   7.532   6.826 -1.3682 -1.5323 -1.6246
  119MOL   H28940645   2.733   7.727   6.962  1.2746  1.0832 -0.8685
  119MOL   H29040646   2.652   7.956   6.856  1.4748  1.6993 -2.0696
  119MOL   C29140647   2.343   0.014   6.530 -0.3117 -0.3997 -0.3037
  119MOL   C29240648   2.266   0.079   6.647 -0.5835  0.4114 -0.0352
  119MOL   C29340649   2.184   8.062   6.731  0.2784  0.0382 -0.5213
  119MOL   C29440650   2.140   0.028   6.860  0.8264  0.1762  0.4264
  119MOL   C29540651   2.067   8.015   6.942 -0.3644  0.3286 -0.2526
  119MOL   C29640652   2.018   7.894   6.887  0.3173 -0.5018 -0.6026
  119MOL   C29740653   2.050   7.851   6.756  0.0943 -0.6927  0.5151
  119MOL   C29840654   2.130   7.938   6.678 -0.1295 -0.3585 -0.0961
  119MOL   O29940655   2.350   0.165   6.727  0.0784 -0.2376  0.2399
  119MOL   H30040656   2.263   8.066   6.462  0.5583 -2.4186 -0.5258
  119MOL   H30140657   2.412   0.075   6.472  0.1843 -1.7937 -1.1928
  119MOL   H30240658   2.184   0.140   6.609 -0.6510  0.1285 -0.3404
  119MOL   H30340659   2.169   0.125   6.897 -0.2117 -0.0636  1.8924
  119MOL   H30440660   2.042   8.040   7.044  1.9183 -0.8122  0.6166
  119MOL   H30540661   1.954   7.837   6.952 -1.6213  4.1814  1.7908
  119MOL   H30640662   2.004   7.761   6.718 -0.5743 -0.4091  0.6417
  119MOL   H30740663   2.148   7.897   6.580 -1.4120 -0.4840 -0.2885
  119MOL   C30840664   2.392   0.290   6.675 -0.1106 -0.0674  0.7388
  119MOL   C30940665   2.420   0.389   6.781  0.3338  0.7432  0.1580
  119MOL   C31040666   2.308   0.391   6.881 -0.2224 -0.0655  0.3240
  119MOL   C31140667   2.187   0.462   6.849 -0.7665  0.8895 -0.3848
  119MOL   C31240668   2.088   0.472   6.946  0.4962 -0.3002 -0.7045
  119MOL   C31340669   2.100   0.400   7.067  0.3439 -0.0206 -0.5779
  119MOL   C31440670   2.212   0.321   7.101 -0.6328 -0.4945  0.5315
  119MOL   C31540671   2.321   0.325   7.007  0.5652  0.0036 -0.1813
  119MOL   O31640672   2.551   0.374   6.845  0.1257 -0.7410 -0.0659
  119MOL   H31740673   2.314   0.330   6.610  0.3066  2.9695  2.0115
  119MOL   H31840674   2.470   0.286   6.598 -2.0614  0.2007 -1.2886
  119MOL   H31940675   2.430   0.489   6.738 -0.5163  0.2630 -1.1732
  119MOL   H32040676   2.171   0.509   6.753 -0.5181  1.0830 -0.3329
  119MOL   H32140677   1.995   0.519   6.919  0.8539  1.5815  1.2126
  119MOL   H32240678   2.024   0.411   7.143  0.4152  4.2185 -1.0148
  119MOL   H32340679   2.225   0.271   7.196  2.0608 -0.8809  0.0009
  119MOL   H32440680   2.409   0.268   7.031 -0.6562 -1.6221  0.4939
  119MOL   C32540681   2.630   0.257   6.817  0.6496  0.8445 -0.0878
  119MOL   C32640682   2.751   0.251   6.909  0.0808  0.2712  1.4831
  119MOL   C32740683   2.726   0.284   7.055  0.2108  0.1363  0.4664
  119MOL   C32840684   2.686   0.179   7.145  0.1613  0.0671 -0.2595
  119MOL   C32940685   2.698   0.199   7.285 -0.6301  0.2365 -0.1993
  119MOL   C33040686   2.727   0.325   7.336  1.0884  0.2909  0.5740
  119MOL   C33140687   2.738   0.438   7.244 -0.4676  0.4471  0.0418
  119MOL   C33240688   2.740   0.411   7.109 -0.0185  0.4929 -0.1448
  119MOL   O33340689   2.829   0.131   6.903  0.4027  0.1143 -0.0368
  119MOL   H33440690   2.664   0.256   6.714 -3.3666 -2.1162 -1.4915
  119MOL   H33540691   2.577   0.164   6.832  0.9371  0.4835 -1.2586
  119MOL   H33640692   2.816   0.327   6.866  1.4358 -2.3819 -1.3858
  119MOL   H33740693   2.670   0.079   7.108  0.9867 -0.7442  1.5086
  119MOL   H33840694   2.684   0.126   7.364 -1.4966  2.2909  1.6178
  119MOL   H33940695   2.734   0.345   7.442  2.6185 -0.7035  0.6834
  119MOL   H34040696   2.752   0.537   7.286  1.6868  1.2256 -2.3313
  119MOL   H34140697   2.755   0.484   7.030 -3.1343  1.6236  0.2357
  119MOL   H34240698   2.903   0.153   6.849  0.6361  0.4135  0.4007
  120MOL     C140699   3.033   2.885   5.413  0.3873 -0.4785 -0.2887
  120MOL     C240700   3.124   2.769   5.443  0.7402  0.1660 -0.5102
  120MOL     C340701   3.062   2.697   5.560  0.3756 -0.5842 -0.0264
  120MOL     C440702   3.007   2.570   5.550 -0.5842 -0.0699 -0.0169
  120MOL     C540703   2.964   2.503   5.666  0.5285 -0.7591 -0.4288
  120MOL     C640704   2.960   2.573   5.790  0.3752  0.5193  0.0237
  120MOL     C740705   3.004   2.708   5.804  0.5452 -0.1711  0.4983
  120MOL     C840706   3.065   2.761   5.686  0.2992  0.3831  0.1720
  120MOL     O940707   3.251   2.823   5.486  0.5230 -0.2493  0.7590
  120MOL    H1040708   3.035   2.959   5.493 -0.9791 -0.2139 -0.4882
  120MOL    H1140709   3.044   2.921   5.311  1.7175 -2.2833 -0.8083
  120MOL    H1240710   3.138   2.699   5.361 -1.6440 -0.4181 -0.4502
  120MOL    H1340711   3.010   2.518   5.455 -0.2258  0.4942 -0.3182
  120MOL    H1440712   2.933   2.400   5.654  0.6695 -0.7616 -0.7817
  120MOL    H1540713   2.922   2.532   5.882 -0.0549  0.2743 -0.2586
  120MOL    H1640714   3.009   2.764   5.896  1.2172  0.0636  0.3205
  120MOL    H1740715   3.113   2.856   5.703  0.1691  0.8103 -1.8123
  120MOL    H1840716   2.930   2.849   5.407 -0.1192  0.7511  0.7307
  120MOL    C1940717   3.342   2.877   5.396 -0.1017 -0.3351 -0.1691
  120MOL    C2040718   3.419   2.774   5.314 -0.0222  0.4629  0.3597
  120MOL    C2140719   3.552   2.828   5.268  0.0293 -0.1165 -0.2545
  120MOL    C2240720   3.668   2.828   5.353  1.0002  0.2627 -0.0002
  120MOL    C2340721   3.788   2.881   5.306 -0.0707  0.5376  0.0003
  120MOL    C2440722   3.797   2.951   5.184 -0.0063  0.2326 -0.3044
  120MOL    C2540723   3.682   2.951   5.104 -0.5763 -0.2293  1.1302
  120MOL    C2640724   3.569   2.887   5.141  0.1790 -0.3539 -0.1801
  120MOL    O2740725   3.338   2.730   5.207  0.4057 -0.1802 -0.1233
  120MOL    H2840726   3.286   2.939   5.327  0.0584  2.3553  2.0240
  120MOL    H2940727   3.420   2.935   5.444  0.2858  0.1992 -1.4470
  120MOL    H3040728   3.437   2.692   5.382 -2.2008 -0.6712 -0.4036
  120MOL    H3140729   3.672   2.776   5.447  1.4173 -0.3542 -0.3606
  120MOL    H3240730   3.879   2.861   5.361 -0.2483  1.7078  0.7568
  120MOL    H3340731   3.894   2.987   5.155  0.5877  0.0805  1.4175
  120MOL    H3440732   3.693   2.998   5.008  0.1885  0.3089  1.4708
  120MOL    H3540733   3.482   2.882   5.077 -0.3263  0.2252  0.4502
  120MOL    C3640734   3.351   2.596   5.160  0.3609  0.0617  0.0125
  120MOL    C3740735   3.288   2.575   5.014  0.9924 -0.1211 -0.4016
  120MOL    C3840736   3.147   2.608   5.003 -0.4120 -0.5663 -0.8611
  120MOL    C3940737   3.092   2.732   5.027 -0.2279  0.4179  0.1436
  120MOL    C4040738   2.955   2.750   5.039 -0.3010 -0.2143 -0.2118
  120MOL    C4140739   2.861   2.651   5.035 -0.3048 -0.0304  0.1894
  120MOL    C4240740   2.912   2.520   5.003 -0.4079 -0.6835  0.2018
  120MOL    C4340741   3.052   2.506   4.987 -0.3786  0.1139  0.1128
  120MOL    O4440742   3.321   2.445   4.956  0.3255  0.2506 -0.2036
  120MOL    H4540743   3.459   2.582   5.159  0.4442  0.4637  1.5935
  120MOL    H4640744   3.312   2.531   5.239  0.0627 -2.3500 -2.0765
  120MOL    H4740745   3.344   2.650   4.957  1.8194  0.3993  1.0670
  120MOL    H4840746   3.150   2.822   5.037 -0.6780  0.4831  2.4667
  120MOL    H4940747   2.925   2.853   5.029 -0.3885 -0.0587  1.5027
  120MOL    H5040748   2.762   2.686   5.062  0.3948  1.5129  0.8104
  120MOL    H5140749   2.832   2.447   4.997  0.0503 -1.1758  0.1373
  120MOL    H5240750   3.089   2.406   4.975 -1.9926 -0.4291 -0.4057
  120MOL    C5340751   3.356   2.465   4.822 -0.1318  0.4292 -0.4374
  120MOL    C5440752   3.363   2.322   4.757 -0.2043 -0.4931  0.4588
  120MOL    C5540753   3.229   2.251   4.778 -0.3069  0.4520 -0.4629
  120MOL    C5640754   3.117   2.286   4.699 -0.5453  0.7124 -0.5399
  120MOL    C5740755   2.995   2.225   4.725  0.1718  0.1599  0.4691
  120MOL    C5840756   2.984   2.125   4.823 -0.3542  0.0583 -0.0841
  120MOL    C5940757   3.099   2.082   4.893 -0.7626 -0.1908 -0.0740
  120MOL    C6040758   3.219   2.145   4.871  0.4148 -1.0679 -0.2057
  120MOL    O6140759   3.391   2.327   4.618  0.1646 -0.2370 -0.2301
  120MOL    H6240760   3.280   2.521   4.767  0.3855  1.4475 -0.1200
  120MOL    H6340761   3.452   2.517   4.818 -0.6317  1.3605 -0.3762
  120MOL    H6440762   3.446   2.272   4.806 -0.1432 -1.7040 -0.8637
  120MOL    H6540763   3.128   2.358   4.619  0.3748  0.8292 -0.3146
  120MOL    H6640764   2.913   2.259   4.663  0.0490 -2.2190 -0.7131
  120MOL    H6740765   2.888   2.078   4.839 -0.3105  0.0755  0.2273
  120MOL    H6840766   3.084   2.007   4.969 -3.5422 -0.2457 -0.6141
  120MOL    H6940767   3.306   2.112   4.927  1.9967 -0.4635 -2.2317
  120MOL    C7040768   3.518   2.373   4.597  0.0134  0.8594  0.8911
  120MOL    C7140769   3.533   2.370   4.446  0.2852 -0.0572 -0.0180
  120MOL    C7240770   3.675   2.390   4.400  0.2701 -0.3301  0.4471
  120MOL    C7340771   3.736   2.522   4.393 -0.7254  0.2401 -0.3548
  120MOL    C7440772   3.872   2.543   4.351 -0.0582 -0.0778 -0.3766
  120MOL    C7540773   3.943   2.434   4.310  0.1184 -0.2678  0.2710
  120MOL    C7640774   3.891   2.304   4.328  0.6978 -0.0717  0.0010
  120MOL    C7740775   3.758   2.281   4.370  0.3855  0.1543  0.4997
  120MOL    O7840776   3.447   2.471   4.406 -0.1404  0.3589  0.5524
  120MOL    H7940777   3.533   2.479   4.617 -2.5207  1.5364 -0.5891
  120MOL    H8040778   3.595   2.311   4.644  3.5333  2.9302 -1.8499
  120MOL    H8140779   3.496   2.275   4.406 -0.3091  0.9085 -1.8416
  120MOL    H8240780   3.676   2.602   4.434 -0.3243  1.4476 -2.0836
  120MOL    H8340781   3.913   2.643   4.357 -0.6519  0.1047  0.7680
  120MOL    H8440782   4.042   2.441   4.266  0.7655  0.5794  1.8014
  120MOL    H8540783   3.946   2.213   4.307 -1.1579 -1.4228  0.9175
  120MOL    H8640784   3.718   2.182   4.356  0.5890  0.0300  0.7871
  120MOL    C8740785   3.427   2.472   4.267 -0.3335 -0.5389  0.1925
  120MOL    C8840786   3.327   2.575   4.233 -0.4300 -0.1988 -0.5419
  120MOL    C8940787   3.259   2.543   4.092  0.2331  0.1550 -0.4678
  120MOL    C9040788   3.174   2.430   4.075 -1.0229 -0.3163 -0.4347
  120MOL    C9140789   3.110   2.402   3.952 -0.5524 -0.0834  0.1485
  120MOL    C9240790   3.137   2.482   3.840  0.1527  0.1302 -0.8970
  120MOL    C9340791   3.225   2.592   3.852  0.1869  0.0931 -0.5791
  120MOL    C9440792   3.284   2.622   3.978 -0.2209 -0.7787 -0.4394
  120MOL    O9540793   3.406   2.697   4.229  0.3735  0.0938 -0.0194
  120MOL    H9640794   3.391   2.371   4.247 -2.0234  0.2329 -0.6961
  120MOL    H9740795   3.523   2.493   4.220  1.2393 -3.9797  1.6285
  120MOL    H9840796   3.243   2.571   4.303 -1.2115 -1.6249 -1.5479
  120MOL    H9940797   3.158   2.363   4.159  0.0108 -0.8833 -0.6828
  120MOL   H10040798   3.062   2.306   3.941 -0.5569 -0.3448  2.1221
  120MOL   H10140799   3.101   2.442   3.746  1.5112 -1.0756 -0.9270
  120MOL   H10240800   3.252   2.648   3.763  1.8142 -1.3166 -0.9929
  120MOL   H10340801   3.345   2.710   3.977 -0.7629 -0.4042 -0.8679
  120MOL   C10440802   3.345   2.814   4.283  0.0354  0.3080  0.6839
  120MOL   C10540803   3.418   2.940   4.242 -0.0078 -0.0394 -0.4371
  120MOL   C10640804   3.335   3.065   4.280  0.2698  0.0020 -0.0012
  120MOL   C10740805   3.330   3.107   4.411  0.1894 -0.0007 -0.6401
  120MOL   C10840806   3.279   3.240   4.441 -0.4050  0.4691  0.5076
  120MOL   C10940807   3.219   3.315   4.335  0.4256 -0.1915 -0.2138
  120MOL   C11040808   3.205   3.255   4.206 -0.0120 -0.1297  0.2113
  120MOL   C11140809   3.264   3.131   4.181 -0.6969 -0.4631  0.4276
  120MOL   O11240810   3.538   2.939   4.310 -0.4914 -0.5715  0.4795
  120MOL   H11340811   3.239   2.824   4.260 -0.1045 -0.3189  1.0322
  120MOL   H11440812   3.352   2.806   4.392 -0.1285  0.2505  0.6906
  120MOL   H11540813   3.447   2.943   4.137 -0.1665 -1.4758 -0.5320
  120MOL   H11640814   3.382   3.048   4.485 -0.9791 -3.3278 -2.3836
  120MOL   H11740815   3.289   3.273   4.544  1.1257 -0.6442  0.7275
  120MOL   H11840816   3.167   3.407   4.355 -0.0895 -0.7269  0.9964
  120MOL   H11940817   3.153   3.318   4.136  0.1666  0.1898  0.3614
  120MOL   H12040818   3.264   3.092   4.080  1.4656 -3.0406  1.3760
  120MOL   C12140819   3.614   3.054   4.282 -0.3940  0.2061  0.5491
  120MOL   C12240820   3.721   3.091   4.377  0.7086 -0.0152  0.4975
  120MOL   C12340821   3.839   3.163   4.310  0.2032 -0.1830 -0.3614
  120MOL   C12440822   3.855   3.303   4.303 -0.1437 -0.6074  0.2281
  120MOL   C12540823   3.945   3.362   4.215 -0.3925  0.1267 -0.4184
  120MOL   C12640824   4.015   3.283   4.132 -0.5353  0.5922 -1.2285
  120MOL   C12740825   4.002   3.143   4.132 -0.0642 -0.1411 -0.7075
  120MOL   C12840826   3.919   3.084   4.227 -0.1012 -0.0716  0.4430
  120MOL   O12940827   3.648   3.158   4.483  0.0814  0.2328  0.0678
  120MOL   H13040828   3.561   3.143   4.251 -1.1861 -0.2078  0.7024
  120MOL   H13140829   3.666   3.030   4.189 -0.5558  4.3175 -0.7037
  120MOL   H13240830   3.767   2.996   4.406 -0.3690 -0.6434  0.1653
  120MOL   H13340831   3.797   3.373   4.361  1.5670  0.8440  0.2493
  120MOL   H13440832   3.970   3.467   4.207 -0.1512 -0.0402 -1.9846
  120MOL   H13540833   4.089   3.323   4.064  1.5283  0.2139  0.7195
  120MOL   H13640834   4.059   3.080   4.065 -1.7477 -0.5050 -1.8293
  120MOL   H13740835   3.900   2.977   4.228  1.6434 -0.4586 -2.1000
  120MOL   C13840836   3.735   3.170   4.597  0.2683 -0.2782 -0.0506
  120MOL   C13940837   3.745   3.054   4.695 -0.1719 -0.0759  0.3529
  120MOL   C14040838   3.606   2.994   4.716  0.4308  0.4206 -0.1568
  120MOL   C14140839   3.567   2.881   4.636  0.3223 -0.3819 -0.7224
  120MOL   C14240840   3.440   2.821   4.656 -0.0389 -0.6039  0.1661
  120MOL   C14340841   3.350   2.870   4.750  0.4598  0.0591 -0.2495
  120MOL   C14440842   3.388   2.983   4.829 -0.1115  0.0821  0.1484
  120MOL   C14540843   3.511   3.049   4.806 -0.1958 -0.0430 -0.2810
  120MOL   O14640844   3.833   2.964   4.641 -0.2687 -0.3886  0.1130
  120MOL   H14740845   3.702   3.253   4.660 -1.7700 -1.2865  0.2585
  120MOL   H14840846   3.835   3.204   4.570 -0.3643  1.5985 -0.0898
  120MOL   H14940847   3.782   3.087   4.792  1.1556 -1.1485  0.2320
  120MOL   H15040848   3.633   2.841   4.560  0.6162  1.4430 -1.4573
  120MOL   H15140849   3.412   2.747   4.582 -0.9350  1.0966 -1.2225
  120MOL   H15240850   3.255   2.819   4.757  0.0138  1.0626  1.4662
  120MOL   H15340851   3.320   3.024   4.902 -2.9601 -1.4742 -1.5484
  120MOL   H15440852   3.551   3.133   4.861 -0.7151 -0.6171  1.0110
  120MOL   C15540853   3.871   2.859   4.730 -0.0221 -0.6537 -0.5384
  120MOL   C15640854   4.025   2.879   4.774  0.5740  0.0296  0.4687
  120MOL   C15740855   4.109   2.869   4.649  0.0262  0.2867 -1.0538
  120MOL   C15840856   4.148   2.739   4.603 -0.1059  0.4692  0.3561
  120MOL   C15940857   4.224   2.718   4.487 -0.1477  0.6487  0.1586
  120MOL   C16040858   4.249   2.829   4.400 -0.0609 -0.5151 -0.0111
  120MOL   C16140859   4.209   2.958   4.439 -0.0128  0.1709 -0.0461
  120MOL   C16240860   4.142   2.978   4.560  0.0191  0.0612 -0.7793
  120MOL   O16340861   4.038   3.003   4.846  0.1982 -0.0682  0.6298
  120MOL   H16440862   3.864   2.770   4.668  2.6331 -0.9890 -0.4509
  120MOL   H16540863   3.811   2.836   4.818 -0.4180 -0.4730 -0.7640
  120MOL   H16640864   4.051   2.797   4.841  0.6203 -1.5569 -1.4427
  120MOL   H16740865   4.114   2.653   4.657  2.6072 -0.9913 -0.1694
  120MOL   H16840866   4.250   2.620   4.451  1.6811  1.4678 -0.8044
  120MOL   H16940867   4.309   2.815   4.311  1.4569  1.8655  0.5702
  120MOL   H17040868   4.240   3.046   4.384  1.3110  0.4781  1.1673
  120MOL   H17140869   4.115   3.078   4.589  2.4489  0.6246 -0.3672
  120MOL   C17240870   4.168   3.020   4.904 -0.0612  0.7530 -0.0496
  120MOL   C17340871   4.159   3.144   5.003  0.0567  0.4726 -0.1284
  120MOL   C17440872   4.090   3.256   4.933  0.5962 -0.5991  0.5018
  120MOL   C17540873   4.171   3.324   4.832  0.0609  0.0160 -0.2544
  120MOL   C17640874   4.114   3.422   4.748 -1.1891 -0.2954  0.2299
  120MOL   C17740875   3.977   3.457   4.769  0.0793  0.1995  0.5374
  120MOL   C17840876   3.898   3.390   4.870 -1.2194 -0.1047 -0.3949
  120MOL   C17940877   3.952   3.282   4.938 -0.1296 -0.8500 -0.1868
  120MOL   O18040878   4.281   3.178   5.062 -0.5487  0.3981 -0.2260
  120MOL   H18140879   4.185   2.927   4.959  1.1457  1.4582  0.7728
  120MOL   H18240880   4.243   3.048   4.830 -0.2754  2.0242  0.2146
  120MOL   H18340881   4.085   3.121   5.079 -0.4482 -0.8174 -0.9823
  120MOL   H18440882   4.271   3.287   4.817  0.2334  0.3463  0.0602
  120MOL   H18540883   4.177   3.463   4.671 -0.2880 -0.7938  0.7003
  120MOL   H18640884   3.934   3.532   4.704  0.8840 -1.3729 -1.8596
  120MOL   H18740885   3.796   3.425   4.880 -0.5962  1.5173  0.6473
  120MOL   H18840886   3.896   3.232   5.016  1.5689 -0.7464  1.1309
  120MOL   C18940887   4.291   3.300   5.151 -0.3807  0.4628  0.1604
  120MOL   C19040888   4.400   3.401   5.097 -0.3426  0.8765  0.2002
  120MOL   C19140889   4.541   3.345   5.113  0.0286  0.0907 -0.1671
  120MOL   C19240890   4.644   3.423   5.177  0.2429  0.0133 -0.0962
  120MOL   C19340891   4.777   3.370   5.181 -0.1401 -0.3099  0.8337
  120MOL   C19440892   4.807   3.238   5.138 -0.2023  0.6088  0.1064
  120MOL   C19540893   4.706   3.168   5.072  0.4868  0.4570  0.6635
  120MOL   C19640894   4.578   3.218   5.054 -0.4834  0.4281 -0.8588
  120MOL   O19740895   4.385   3.529   5.152 -0.3139  0.1679  0.3702
  120MOL   H19840896   4.191   3.342   5.139 -1.7628 -3.2485 -1.7903
  120MOL   H19940897   4.314   3.256   5.248 -2.1310 -0.3513  0.2203
  120MOL   H20040898   4.384   3.395   4.989  2.5437 -0.3974 -0.1918
  120MOL   H20140899   4.637   3.527   5.207 -1.0909  1.1179 -3.8721
  120MOL   H20240900   4.853   3.428   5.232 -1.2209  1.7905  0.1168
  120MOL   H20340901   4.905   3.194   5.150 -0.2411  0.2123 -1.0218
  120MOL   H20440902   4.728   3.067   5.041  0.6331  0.7516 -0.2010
  120MOL   H20540903   4.502   3.149   5.021  0.5971 -1.7638  1.0927
  120MOL   C20640904   4.264   3.587   5.136 -0.2609 -0.3562  0.4860
  120MOL   C20740905   4.297   3.732   5.100  0.0458 -0.2222 -0.6354
  120MOL   C20840906   4.371   3.800   5.218 -0.9784  0.6912  0.5248
  120MOL   C20940907   4.295   3.859   5.323  0.2996 -0.5014  0.7032
  120MOL   C21040908   4.362   3.933   5.426 -0.0601  0.8358  0.0154
  120MOL   C21140909   4.503   3.934   5.434  0.4585  0.0253 -1.3121
  120MOL   C21240910   4.574   3.874   5.333 -0.0123 -0.6838  0.1864
  120MOL   C21340911   4.514   3.811   5.221  0.3566 -0.2029  0.2216
  120MOL   O21440912   4.177   3.805   5.077 -0.7123  0.6331 -0.5127
  120MOL   H21540913   4.197   3.541   5.064  0.7944 -1.0427 -0.0630
  120MOL   H21640914   4.229   3.591   5.240 -0.1456 -2.3552  0.6264
  120MOL   H21740915   4.368   3.734   5.017  1.4575 -3.1037  0.4220
  120MOL   H21840916   4.187   3.852   5.318  0.2032  1.4303 -0.2670
  120MOL   H21940917   4.294   3.969   5.502  1.6890  2.4316  0.8657
  120MOL   H22040918   4.560   3.981   5.513  0.3890  0.7653 -1.7010
  120MOL   H22140919   4.681   3.875   5.346  0.4346  0.8462 -3.3514
  120MOL   H22240920   4.577   3.763   5.149  0.4143  0.8511 -0.4405
  120MOL   C22340921   4.093   3.779   4.960  0.4075  0.9946  0.3819
  120MOL   C22440922   3.953   3.831   4.998  0.0063 -0.1444 -0.2044
  120MOL   C22540923   3.864   3.828   4.876  0.1166  0.4696  0.9199
  120MOL   C22640924   3.855   3.946   4.796 -0.9353  0.3137  0.4424
  120MOL   C22740925   3.762   3.952   4.683  0.0645  1.1886 -0.1701
  120MOL   C22840926   3.684   3.839   4.652 -0.9002  0.3776  0.2260
  120MOL   C22940927   3.686   3.728   4.741  0.3092  0.1780  0.2160
  120MOL   C23040928   3.776   3.726   4.847 -0.8435 -0.0599 -0.7977
  120MOL   O23140929   3.908   3.737   5.094  0.1641 -0.0133  0.1184
  120MOL   H23240930   4.128   3.840   4.876 -3.5671  1.1096 -1.3296
  120MOL   H23340931   4.091   3.674   4.931 -0.0065  0.8808  0.8187
  120MOL   H23440932   3.946   3.929   5.046  2.4272  0.6142 -1.3260
  120MOL   H23540933   3.909   4.038   4.811  0.2409 -0.5424  1.5476
  120MOL   H23640934   3.753   4.038   4.618 -0.5676  1.9092  0.8492
  120MOL   H23740935   3.624   3.849   4.563 -1.0545 -1.2071  0.1371
  120MOL   H23840936   3.627   3.639   4.727 -0.4009  0.8795 -1.3904
  120MOL   H23940937   3.779   3.645   4.919  0.9105  0.3800 -0.3305
  120MOL   C24040938   3.790   3.774   5.174 -0.6122 -0.5917  0.3118
  120MOL   C24140939   3.753   3.662   5.275 -0.0709 -0.2202 -0.5294
  120MOL   C24240940   3.876   3.635   5.365  0.0143  0.0702  0.0069
  120MOL   C24340941   3.963   3.530   5.334 -0.1050  0.3655  0.3729
  120MOL   C24440942   4.068   3.485   5.416 -0.8285 -0.6047  0.8018
  120MOL   C24540943   4.094   3.549   5.534  0.2273  0.3865 -0.1167
  120MOL   C24640944   4.013   3.660   5.568  0.3328 -0.3116  0.0142
  120MOL   C24740945   3.907   3.706   5.484  0.0791 -0.1993  0.7154
  120MOL   O24840946   3.660   3.728   5.348  0.3141  0.6608 -0.0059
  120MOL   H24940947   3.827   3.862   5.225 -1.6362 -0.0649  0.1481
  120MOL   H25040948   3.704   3.815   5.121 -0.3173 -0.2528  0.0954
  120MOL   H25140949   3.721   3.569   5.229 -0.3096 -2.0083  3.0774
  120MOL   H25240950   3.937   3.461   5.255 -1.7553 -0.0644  1.2626
  120MOL   H25340951   4.124   3.394   5.402  2.7232  1.5921 -0.1167
  120MOL   H25440952   4.161   3.504   5.606 -3.5630 -1.1607  2.6011
  120MOL   H25540953   4.033   3.706   5.664  0.3898 -3.2097  1.4682
  120MOL   H25640954   3.852   3.788   5.527 -0.4168 -0.6322  0.9101
  120MOL   C25740955   3.562   3.652   5.423  0.6714  0.5926  0.1308
  120MOL   C25840956   3.468   3.742   5.515  1.1200 -0.4258  0.2543
  120MOL   C25940957   3.434   3.878   5.457 -0.1869  0.1363 -0.2543
  120MOL   C26040958   3.450   3.992   5.539 -0.8485  0.1520  0.0328
  120MOL   C26140959   3.409   4.110   5.492  0.5512  0.9193  0.2942
  120MOL   C26240960   3.353   4.134   5.366  0.5266 -0.2882  0.1341
  120MOL   C26340961   3.359   4.028   5.273 -0.0226  0.4170  0.0149
  120MOL   C26440962   3.391   3.898   5.325 -0.7011  0.0157 -0.4578
  120MOL   O26540963   3.523   3.743   5.641 -0.0365  0.2854  0.6798
  120MOL   H26640964   3.609   3.565   5.469 -0.4423 -0.9277 -1.5021
  120MOL   H26740965   3.502   3.594   5.352 -0.7279 -1.2822  2.7811
  120MOL   H26840966   3.368   3.698   5.508  0.6098  0.7701 -0.1189
  120MOL   H26940967   3.481   3.979   5.642 -1.2481  1.9821  0.3967
  120MOL   H27040968   3.410   4.189   5.565 -0.6693  1.9929 -0.8077
  120MOL   H27140969   3.320   4.230   5.330 -0.0012 -0.5962 -0.2075
  120MOL   H27240970   3.331   4.042   5.170  3.6329 -0.5752 -1.1899
  120MOL   H27340971   3.390   3.815   5.256 -0.8361 -0.2619 -0.1229
  120MOL   C27440972   3.469   3.642   5.720  0.0767 -0.5080 -0.2168
  120MOL   C27540973   3.560   3.601   5.831  0.3381  0.4134 -0.7959
  120MOL   C27640974   3.613   3.722   5.911 -0.2203  0.4654  0.1995
  120MOL   C27740975   3.535   3.766   6.025  0.3445  0.2588  0.2988
  120MOL   C27840976   3.590   3.867   6.103 -0.0000  0.2469 -0.1275
  120MOL   C27940977   3.710   3.933   6.067  0.2757 -0.4875 -0.3199
  120MOL   C28040978   3.777   3.901   5.947  0.6560  0.3959 -0.6106
  120MOL   C28140979   3.731   3.789   5.872 -0.2820 -0.2440  0.8629
  120MOL   O28240980   3.663   3.522   5.774 -0.3201 -0.4961 -0.0617
  120MOL   H28340981   3.379   3.687   5.759  0.5586  0.6833 -0.4507
  120MOL   H28440982   3.455   3.557   5.654 -1.1749 -0.0359 -0.5677
  120MOL   H28540983   3.504   3.540   5.902  1.0242  1.5674  0.7589
  120MOL   H28640984   3.441   3.713   6.034 -0.6777  1.9657 -0.1899
  120MOL   H28740985   3.537   3.901   6.190  2.6024 -1.3202  2.1218
  120MOL   H28840986   3.746   4.008   6.135 -0.3776 -0.7650  0.3390
  120MOL   H28940987   3.861   3.961   5.913 -0.3135  3.2713  1.8413
  120MOL   H29040988   3.771   3.751   5.779 -2.2710 -1.5452  0.5237
  120MOL   C29140989   3.740   3.449   5.868 -0.0681  0.9117 -0.0274
  120MOL   C29240990   3.854   3.375   5.799  0.2837  0.3817 -0.2127
  120MOL   C29340991   3.961   3.317   5.892 -0.4708  0.0707  0.1820
  120MOL   C29440992   3.964   3.188   5.935  0.3109 -0.2917  0.0070
  120MOL   C29540993   4.057   3.141   6.031 -0.1339 -0.4087  0.0118
  120MOL   C29640994   4.155   3.230   6.075 -0.3534  0.0442  0.6042
  120MOL   C29740995   4.153   3.367   6.034 -0.2207  0.4261 -0.0960
  120MOL   C29840996   4.057   3.409   5.941  0.5491 -0.1178  0.1959
  120MOL   O29940997   3.792   3.257   5.738  0.3131  0.4092  0.1232
  120MOL   H30040998   3.683   3.368   5.913  1.3074  1.1067  2.1304
  120MOL   H30140999   3.773   3.513   5.950 -2.2675 -1.2132  2.6381
  120MOL   H30241000   3.892   3.440   5.721  1.4525  0.4355  0.3946
  120MOL   H30341001   3.897   3.112   5.899  0.7483  1.4645 -4.9463
  120MOL   H30441002   4.053   3.042   6.074  0.1771  0.4384  2.0280
  120MOL   H30541003   4.212   3.205   6.163  0.7260  1.8190  0.4177
  120MOL   H30641004   4.230   3.427   6.080  0.3520 -0.1669 -0.2647
  120MOL   H30741005   4.055   3.512   5.910  1.4328  0.4584  1.9626
  120MOL   C30841006   3.735   3.284   5.605 -0.9611 -0.1191 -0.0208
  120MOL   C30941007   3.603   3.198   5.595 -0.2703 -0.8435 -0.0010
  120MOL   C31041008   3.532   3.218   5.462 -0.1076 -0.2042 -0.3134
  120MOL   C31141009   3.604   3.205   5.342 -0.0107  0.0657 -0.3552
  120MOL   C31241010   3.535   3.208   5.220 -0.3755 -0.8550  0.4464
  120MOL   C31341011   3.396   3.210   5.218 -0.4592 -0.4330  0.7161
  120MOL   C31441012   3.324   3.235   5.338 -0.0409  0.4930 -0.1437
  120MOL   C31541013   3.392   3.234   5.462 -0.6883 -0.7166 -0.7946
  120MOL   O31641014   3.630   3.051   5.607 -0.5006  0.2116 -0.7103
  120MOL   H31741015   3.820   3.265   5.539 -0.8777 -1.1833  0.3837
  120MOL   H31841016   3.713   3.389   5.586  0.8489  0.3817  0.4958
  120MOL   H31941017   3.539   3.227   5.679 -1.0390 -0.0824 -0.8402
  120MOL   H32041018   3.710   3.186   5.348 -0.5776 -3.9893 -1.8514
  120MOL   H32141019   3.595   3.189   5.133 -1.0210 -3.0563  0.4419
  120MOL   H32241020   3.345   3.203   5.123 -0.7174  0.9545  0.7374
  120MOL   H32341021   3.216   3.235   5.335 -0.0491 -2.6452 -2.0479
  120MOL   H32441022   3.331   3.249   5.550 -1.1316  0.4999 -1.2987
  120MOL   C32541023   3.542   2.978   5.693 -0.1917  0.1092 -0.0439
  120MOL   C32641024   3.609   2.971   5.837 -0.1596 -0.6038 -0.2753
  120MOL   C32741025   3.732   2.880   5.857  0.4746  0.3660  0.2423
  120MOL   C32841026   3.775   2.856   5.993 -0.1345 -0.0673 -1.0195
  120MOL   C32941027   3.886   2.773   6.017 -0.2495  0.6886 -0.9102
  120MOL   C33041028   3.965   2.731   5.908 -0.3264  0.3508 -0.7302
  120MOL   C33141029   3.921   2.748   5.776 -0.4870 -0.0906 -0.7354
  120MOL   C33241030   3.804   2.827   5.750  0.4141  0.2128 -0.3779
  120MOL   O33341031   3.634   3.104   5.882  0.1990 -0.1260  0.0145
  120MOL   H33441032   3.524   2.874   5.664  2.1986 -0.2295 -0.4289
  120MOL   H33541033   3.448   3.031   5.704 -0.0116  0.4065  0.0584
  120MOL   H33641034   3.536   2.934   5.908  0.2921  0.8492  0.9568
  120MOL   H33741035   3.728   2.908   6.075  0.8480  0.2715 -0.6563
  120MOL   H33841036   3.909   2.770   6.122 -4.3696 -1.4300  0.0392
  120MOL   H33941037   4.051   2.669   5.928  1.0740  1.8304 -2.1082
  120MOL   H34041038   3.980   2.705   5.696 -0.0979 -2.9584  1.0403
  120MOL   H34141039   3.779   2.849   5.648  1.1555 -0.9780 -0.8199
  120MOL   H34241040   3.685   3.151   5.818 -1.8477 -0.1368 -1.6838
  121MOL     C141041   6.739   7.995   7.017  0.9259 -0.3278  0.2912
  121MOL     C241042   6.886   7.963   6.976 -0.3074 -0.9858 -0.1817
  121MOL     C341043   6.890   7.864   6.863  0.6194  0.3830  0.1927
  121MOL     C441044   6.898   7.906   6.727  0.3607  0.2874 -0.0633
  121MOL     C541045   6.904   7.813   6.620  0.8635  0.2681 -0.5663
  121MOL     C641046   6.903   7.674   6.656 -0.1455 -0.2255 -0.4078
  121MOL     C741047   6.879   7.632   6.785 -1.0364  0.4073  0.2245
  121MOL     C841048   6.886   7.725   6.887 -0.0747  0.3115  0.2185
  121MOL     O941049   6.933   7.911   7.098  0.1450  0.4287  0.3511
  121MOL    H1041050   6.697   7.901   7.054  1.2022 -0.4095  0.3969
  121MOL    H1141051   6.734   8.072   7.094 -0.6240 -1.7014  1.6184
  121MOL    H1241052   6.935   8.059   6.954 -3.2331  0.6263  0.1077
  121MOL    H1341053   6.910   8.011   6.708  0.3217  0.5390  1.2380
  121MOL    H1441054   6.905   7.839   6.515  2.8947 -2.4400 -1.2772
  121MOL    H1541055   6.918   7.607   6.572  0.2787  1.0891 -1.4017
  121MOL    H1641056   6.877   7.527   6.810  3.2026  0.0987 -0.5115
  121MOL    H1741057   6.880   7.691   6.990 -0.6378 -0.6738 -0.1414
  121MOL    H1841058   6.683   8.031   6.930  0.3349 -1.0543  0.3665
  121MOL    C1941059   7.067   7.954   7.137  1.1551  0.7986  0.1644
  121MOL    C2041060   7.098   7.913   7.283  0.6515  0.5893 -0.5168
  121MOL    C2141061   7.211   7.982   7.349 -0.4638 -0.2256  0.5599
  121MOL    C2241062   7.352   7.965   7.320 -0.3613 -0.7915  0.3247
  121MOL    C2341063   7.453   8.033   7.389  0.1063 -0.2146 -0.3340
  121MOL    C2441064   7.421   0.039   7.492  0.0012 -0.5722  0.1560
  121MOL    C2541065   7.281   0.060   7.517 -0.0555 -0.2208 -0.5162
  121MOL    C2641066   7.182   8.075   7.447  0.5972 -0.2243 -0.4237
  121MOL    O2741067   7.114   7.769   7.293 -0.2312 -0.0123  0.4592
  121MOL    H2841068   7.139   7.901   7.075 -1.0322 -0.1439 -1.6454
  121MOL    H2941069   7.081   8.061   7.122  1.7742  0.8810  1.2649
  121MOL    H3041070   7.010   7.937   7.343  0.3990  0.7965 -0.9686
  121MOL    H3141071   7.377   7.888   7.248 -0.0024 -1.0455  0.7222
  121MOL    H3241072   7.556   8.019   7.357  0.1124  0.1441 -0.4733
  121MOL    H3341073   7.494   0.096   7.548 -0.4707  0.9055 -0.7065
  121MOL    H3441074   7.254   0.140   7.584 -1.1536 -0.1044 -1.0883
  121MOL    H3541075   7.081   0.029   7.459  0.3810 -0.9275 -0.2632
  121MOL    C3641076   7.024   7.680   7.225  0.2255 -0.2492 -0.0363
  121MOL    C3741077   7.047   7.544   7.296  0.1019 -0.9645  0.2323
  121MOL    C3841078   7.006   7.425   7.205  0.3152 -0.2659  0.7825
  121MOL    C3941079   6.873   7.378   7.198  0.4652  0.1976 -0.0601
  121MOL    C4041080   6.841   7.270   7.110 -0.6814 -0.0357 -0.6783
  121MOL    C4141081   6.942   7.206   7.041  0.3907 -0.4702  0.1164
  121MOL    C4241082   7.074   7.246   7.057  0.9948  0.0865  0.0486
  121MOL    C4341083   7.107   7.358   7.132  0.4461 -0.1986 -0.0786
  121MOL    O4441084   6.967   7.540   7.414 -0.7147 -0.2384  0.3229
  121MOL    H4541085   6.916   7.694   7.218 -0.0259 -2.7656 -1.9678
  121MOL    H4641086   7.062   7.661   7.124  1.4173  0.3762  0.2807
  121MOL    H4741087   7.154   7.548   7.319 -0.1745  2.3554  1.3122
  121MOL    H4841088   6.792   7.427   7.250 -0.2455 -2.1902  1.1739
  121MOL    H4941089   6.737   7.247   7.094 -0.8197 -0.3089  0.5431
  121MOL    H5041090   6.921   7.119   6.980  0.6454  0.4555 -1.3019
  121MOL    H5141091   7.141   7.206   6.982  0.1994  1.3706 -1.3622
  121MOL    H5241092   7.207   7.396   7.121  0.8038 -0.4307  2.1383
  121MOL    C5341093   7.014   7.623   7.520 -0.2930 -0.2185  0.2572
  121MOL    C5441094   6.955   7.569   7.649 -0.5883 -0.4272  0.0054
  121MOL    C5541095   7.021   7.439   7.686  0.1461  0.0323 -0.2419
  121MOL    C5641096   6.953   7.318   7.645 -0.0476 -0.3284  0.2837
  121MOL    C5741097   6.999   7.191   7.687  0.2736  0.3423 -0.0113
  121MOL    C5841098   7.119   7.187   7.755 -0.2556 -0.4224  0.1895
  121MOL    C5941099   7.192   7.306   7.796 -0.4691 -0.2166 -0.1489
  121MOL    C6041100   7.147   7.435   7.753  0.3521 -0.6309 -0.9676
  121MOL    O6141101   6.968   7.662   7.755 -0.0410 -0.5259 -0.0379
  121MOL    H6241102   7.122   7.626   7.521 -0.2750  0.3915  3.7906
  121MOL    H6341103   6.986   7.727   7.504  1.4788  0.4503  1.3787
  121MOL    H6441104   6.850   7.544   7.634 -1.3229  1.3632  2.0265
  121MOL    H6541105   6.856   7.318   7.597 -0.6478  0.6000  1.4654
  121MOL    H6641106   6.948   7.100   7.658  0.0979  1.1987 -2.4572
  121MOL    H6741107   7.158   7.093   7.791  0.6925 -0.4414 -0.8459
  121MOL    H6841108   7.280   7.289   7.856 -0.6147  1.2799  0.5138
  121MOL    H6941109   7.189   7.533   7.773 -0.4350 -0.7235  1.2789
  121MOL    C7041110   6.859   7.759   7.763 -0.6571 -0.0498  0.3503
  121MOL    C7141111   6.730   7.705   7.822  0.4805 -0.1033 -0.0862
  121MOL    C7241112   6.737   7.593   7.925  0.1098 -0.2114  0.3583
  121MOL    C7341113   6.723   7.462   7.883  0.5832  0.5323  0.6959
  121MOL    C7441114   6.746   7.352   7.973 -0.4545 -0.8558 -0.2701
  121MOL    C7541115   6.786   7.386   0.028 -0.3359 -0.4627 -0.3446
  121MOL    C7641116   6.789   7.516   0.072  0.6328 -0.7439  0.4439
  121MOL    C7741117   6.765   7.621   8.056 -0.3739 -0.4868 -0.4007
  121MOL    O7841118   6.644   7.674   7.712 -0.0463 -0.6758 -0.4938
  121MOL    H7941119   6.905   7.828   7.833  0.7633 -1.1147  0.4796
  121MOL    H8041120   6.838   7.810   7.669  0.3878 -2.4939 -1.2593
  121MOL    H8141121   6.687   7.796   7.863  2.4952  0.6117  0.4963
  121MOL    H8241122   6.691   7.437   7.783  0.9372 -2.8042  1.3377
  121MOL    H8341123   6.749   7.253   7.929 -0.8078 -0.6349 -0.8055
  121MOL    H8441124   6.836   7.314   0.091 -0.2717  0.0742  0.2281
  121MOL    H8541125   6.822   7.538   0.172 -0.1460 -0.2463  0.5933
  121MOL    H8641126   6.800   7.716   0.014  1.9741 -1.7869  0.8061
  121MOL    C8741127   6.502   7.696   7.732  0.2436 -0.7233 -0.2584
  121MOL    C8841128   6.416   7.609   7.629 -0.3226 -0.0804 -0.2430
  121MOL    C8941129   6.476   7.470   7.611  0.1601 -0.4716  0.7104
  121MOL    C9041130   6.418   7.363   7.677 -0.6698  0.5568 -0.1538
  121MOL    C9141131   6.465   7.235   7.657  0.1599  0.2832 -0.2671
  121MOL    C9241132   6.562   7.201   7.558 -0.3351  0.7198 -0.7458
  121MOL    C9341133   6.617   7.310   7.484 -0.4260  0.6152  0.8135
  121MOL    C9441134   6.569   7.447   7.511 -0.1256 -0.8128 -0.5229
  121MOL    O9541135   6.394   7.687   7.511 -0.0124 -0.5253 -0.1089
  121MOL    H9641136   6.476   7.801   7.717 -0.2974 -0.5729  1.5890
  121MOL    H9741137   6.473   7.655   7.829  0.4044 -1.1322 -0.3843
  121MOL    H9841138   6.317   7.602   7.675 -0.3809 -0.1787 -0.3823
  121MOL    H9941139   6.328   7.373   7.736 -0.7254 -0.7921 -0.0065
  121MOL   H10041140   6.423   7.149   7.708 -1.1661  1.1109  0.0723
  121MOL   H10141141   6.599   7.100   7.544 -2.6039 -0.4210  1.2637
  121MOL   H10241142   6.676   7.292   7.395 -1.7530  0.3615 -0.0256
  121MOL   H10341143   6.610   7.520   7.442 -0.2286  0.2908  0.5675
  121MOL   C10441144   6.272   7.646   7.450  0.5401 -0.2403 -0.3389
  121MOL   C10541145   6.253   7.675   7.305  1.0581 -0.3946 -0.1629
  121MOL   C10641146   6.350   7.607   7.212 -0.4746  0.2841 -0.5994
  121MOL   C10741147   6.488   7.631   7.228 -0.1461 -0.5124  0.5845
  121MOL   C10841148   6.581   7.589   7.137 -0.1660  0.0241 -0.1647
  121MOL   C10941149   6.534   7.514   7.029 -0.0654  0.0563  0.1790
  121MOL   C11041150   6.400   7.485   7.014  0.0639 -0.1397 -0.1392
  121MOL   C11141151   6.303   7.533   7.101 -0.4043 -0.0200 -0.2372
  121MOL   O11241152   6.117   7.641   7.275 -0.4791 -0.1987 -0.0866
  121MOL   H11341153   6.258   7.538   7.456  0.0026 -0.1321  0.5168
  121MOL   H11441154   6.186   7.681   7.507  0.1321 -2.4796  0.4713
  121MOL   H11541155   6.274   7.780   7.283  0.7720 -1.1008 -4.1572
  121MOL   H11641156   6.521   7.688   7.314  0.1100  0.9256 -0.4416
  121MOL   H11741157   6.686   7.611   7.150  0.1824 -2.2965  1.3310
  121MOL   H11841158   6.608   7.478   6.958 -1.0403 -0.8497 -0.4044
  121MOL   H11941159   6.379   7.410   6.939  0.0389 -0.8377  0.5574
  121MOL   H12041160   6.198   7.518   7.081 -0.3866 -0.9766  0.3477
  121MOL   C12141161   6.050   7.727   7.186 -0.4710  1.0430 -0.5446
  121MOL   C12241162   5.898   7.693   7.190 -0.3917 -0.7554  0.5186
  121MOL   C12341163   5.821   7.739   7.310  0.1519 -0.3845  0.1583
  121MOL   C12441164   5.818   7.661   7.423 -0.8035 -0.4120  0.1925
  121MOL   C12541165   5.740   7.699   7.537 -0.0281  0.0957  0.3036
  121MOL   C12641166   5.667   7.818   7.532 -0.1923  0.2127  0.1027
  121MOL   C12741167   5.669   7.890   7.417 -0.8512 -0.0300  0.0228
  121MOL   C12841168   5.750   7.857   7.311  0.1869  0.3686  0.1596
  121MOL   O12941169   5.844   7.753   7.067 -0.1346 -0.1964  0.3392
  121MOL   H13041170   6.087   7.721   7.084 -0.3028  1.5893 -0.5160
  121MOL   H13141171   6.055   7.829   7.224 -1.6790  1.2072 -0.7811
  121MOL   H13241172   5.889   7.586   7.173 -0.6453 -0.5327 -0.7930
  121MOL   H13341173   5.867   7.565   7.414 -1.1286 -0.5753  0.1327
  121MOL   H13441174   5.742   7.636   7.625 -0.1881 -0.4514 -0.0841
  121MOL   H13541175   5.599   7.843   7.613 -1.3079 -0.3117 -0.6476
  121MOL   H13641176   5.620   7.987   7.415 -0.0436  0.4109  1.2574
  121MOL   H13741177   5.770   7.934   7.238  1.9597  0.1583  0.3979
  121MOL   C13841178   5.744   7.675   7.005  0.0753 -0.1083  0.0048
  121MOL   C13941179   5.642   7.765   6.932  0.3210  0.0088 -0.5717
  121MOL   C14041180   5.713   7.821   6.809  0.2662 -0.3540  0.9527
  121MOL   C14141181   5.793   7.935   6.823  0.5584 -0.2802  0.4096
  121MOL   C14241182   5.872   7.981   6.712  0.7908 -0.1870  0.0364
  121MOL   C14341183   5.855   7.924   6.585 -0.1240 -0.2370 -0.6145
  121MOL   C14441184   5.762   7.813   6.575  0.0980  0.0099  0.3161
  121MOL   C14541185   5.695   7.755   6.682 -0.0002  0.1959 -0.4420
  121MOL   O14641186   5.526   7.685   6.906 -0.1354  0.3465 -0.3469
  121MOL   H14741187   5.691   7.610   7.076  0.6139 -1.8335 -1.1430
  121MOL   H14841188   5.788   7.601   6.939 -2.0049 -0.1143 -1.4478
  121MOL   H14941189   5.615   7.839   7.008  1.2712  0.0423 -0.2629
  121MOL   H15041190   5.798   7.982   6.920  0.8411 -1.8298  1.1634
  121MOL   H15141191   5.942   8.062   6.726 -0.2990  1.2268 -2.2380
  121MOL   H15241192   5.905   7.967   6.499 -0.4498  1.4114 -0.0083
  121MOL   H15341193   5.747   7.771   6.477  2.7039 -0.6279  0.1659
  121MOL   H15441194   5.634   7.666   6.682  0.8710 -0.4116 -1.3283
  121MOL   C15541195   5.397   7.761   6.894  0.0931 -0.2517 -0.1440
  121MOL   C15641196   5.258   7.686   6.900  0.3081  0.2559 -0.4808
  121MOL   C15741197   5.148   7.783   6.911 -0.0130 -1.2869 -0.3184
  121MOL   C15841198   5.072   7.821   6.797  0.6672 -0.3234 -0.1224
  121MOL   C15941199   4.973   7.920   6.802  0.0867  0.2800  0.3647
  121MOL   C16041200   4.942   7.982   6.930 -0.8340 -0.4575  0.1652
  121MOL   C16141201   5.024   7.948   7.041  0.1073 -0.2218 -0.6577
  121MOL   C16241202   5.120   7.845   7.036  0.4655  0.0118 -0.2893
  121MOL   O16341203   5.240   7.601   6.784 -0.3461  0.3348  0.3859
  121MOL   H16441204   5.399   7.838   6.816  2.1900 -0.8958 -0.7479
  121MOL   H16541205   5.395   7.828   6.980 -1.0136  0.5218 -0.7593
  121MOL   H16641206   5.255   7.627   6.992 -1.9992  1.5197  0.2902
  121MOL   H16741207   5.100   7.788   6.698  0.8249  1.9916 -0.8716
  121MOL   H16841208   4.920   7.952   6.713  3.4648  1.0371 -1.4519
  121MOL   H16941209   4.863   8.055   6.944 -2.0665 -2.1203  2.1435
  121MOL   H17041210   4.982   7.985   7.134  1.5379  1.2261 -0.5685
  121MOL   H17141211   5.178   7.833   7.126 -3.4424  0.0739  2.3785
  121MOL   C17241212   5.305   7.476   6.791 -0.6028  0.5779 -0.0281
  121MOL   C17341213   5.245   7.387   6.685  0.3662  0.5348  0.0573
  121MOL   C17441214   5.095   7.373   6.698  0.1183 -0.9598 -0.0087
  121MOL   C17541215   5.010   7.430   6.598  0.2429  0.4517 -0.9009
  121MOL   C17641216   4.869   7.427   6.625  0.6721  0.1626 -0.2371
  121MOL   C17741217   4.811   7.366   6.740 -0.9329  0.2245 -0.4376
  121MOL   C17841218   4.902   7.313   6.832  1.1353 -0.0250 -0.9232
  121MOL   C17941219   5.041   7.314   6.812 -0.5020 -0.1221  1.1233
  121MOL   O18041220   5.304   7.259   6.704  0.7278  0.3057  0.0923
  121MOL   H18141221   5.410   7.491   6.764 -0.6115 -1.0329 -1.0661
  121MOL   H18241222   5.306   7.431   6.890  3.6021  2.7273  1.0038
  121MOL   H18341223   5.271   7.421   6.585 -2.9185 -1.2719 -1.5099
  121MOL   H18441224   5.059   7.459   6.506  0.3024 -0.1733 -1.0745
  121MOL   H18541225   4.806   7.468   6.548 -0.9853 -1.3227  0.3074
  121MOL   H18641226   4.704   7.352   6.753 -0.7761  1.6390  2.7067
  121MOL   H18741227   4.869   7.251   6.914  3.0434 -0.1750 -0.2449
  121MOL   H18841228   5.105   7.260   6.880 -0.2194 -0.1266  0.8568
  121MOL   C18941229   5.349   7.187   6.587 -0.6072 -0.1144 -0.4228
  121MOL   C19041230   5.497   7.237   6.560 -1.1535 -0.3818 -0.4591
  121MOL   C19141231   5.580   7.221   6.689  0.3603 -0.6182 -0.2648
  121MOL   C19241232   5.592   7.101   6.751  0.3323 -0.1996  0.4043
  121MOL   C19341233   5.664   7.089   6.866  0.4903  0.0820 -0.0441
  121MOL   C19441234   5.742   7.199   6.916  0.2050 -0.2458 -0.2166
  121MOL   C19541235   5.726   7.324   6.855  0.4219  0.9498 -0.9069
  121MOL   C19641236   5.650   7.334   6.741  0.5682 -0.4764  0.0646
  121MOL   O19741237   5.502   7.361   6.490 -0.0263 -0.1903  0.3399
  121MOL   H19841238   5.346   7.083   6.617 -2.8012  0.2621  0.7895
  121MOL   H19941239   5.283   7.199   6.501 -0.4368 -0.3050 -0.5808
  121MOL   H20041240   5.547   7.166   6.496  1.3741  0.6447  0.3226
  121MOL   H20141241   5.543   7.013   6.712 -0.1718  0.2490  0.0243
  121MOL   H20241242   5.657   6.991   6.911 -2.0246 -0.0253 -0.5762
  121MOL   H20341243   5.800   7.194   7.007  1.3591 -1.0470 -0.9716
  121MOL   H20441244   5.778   7.405   6.904 -1.9552  1.5979  0.6061
  121MOL   H20541245   5.643   7.432   6.696 -1.0507  0.8671  3.0858
  121MOL   C20641246   5.470   7.347   6.350 -0.0322 -0.3530 -0.2387
  121MOL   C20741247   5.461   7.483   6.277  0.2213  0.3889 -0.0982
  121MOL   C20841248   5.347   7.563   6.335  0.1442 -0.1661  0.5001
  121MOL   C20941249   5.217   7.532   6.292  0.0261  0.2525 -0.2836
  121MOL   C21041250   5.104   7.619   6.320 -0.2439 -0.1544  0.6205
  121MOL   C21141251   5.121   7.720   6.413 -0.2709 -1.2768  0.1095
  121MOL   C21241252   5.244   7.744   6.469  0.1298 -1.0513  0.2328
  121MOL   C21341253   5.360   7.672   6.426  0.4032  0.8926  0.3266
  121MOL   O21441254   5.444   7.455   6.135 -0.3048 -0.2253  0.3728
  121MOL   H21541255   5.558   7.293   6.315  0.0116 -1.6054  1.7062
  121MOL   H21641256   5.383   7.284   6.334  0.8006 -1.5955  0.0350
  121MOL   H21741257   5.555   7.534   6.296  0.0974  0.4357  0.3772
  121MOL   H21841258   5.201   7.444   6.231 -0.5817  0.0274  0.1910
  121MOL   H21941259   5.006   7.598   6.280 -0.8193  1.1585  1.3378
  121MOL   H22041260   5.036   7.779   6.444  1.2525  0.6700  0.6926
  121MOL   H22141261   5.250   7.828   6.537 -1.3597 -0.1632 -0.7164
  121MOL   H22241262   5.459   7.700   6.456  1.7535 -1.6364 -1.6302
  121MOL   C22341263   5.496   7.556   6.047 -0.5915  0.5729 -0.1357
  121MOL   C22441264   5.545   7.483   5.921 -0.7567 -0.0343  0.2937
  121MOL   C22541265   5.578   7.579   5.802  0.0495  0.3685  1.0061
  121MOL   C22641266   5.712   7.583   5.758 -0.0008 -0.2599 -0.3969
  121MOL   C22741267   5.751   7.646   5.645 -0.0636  0.3316 -0.0536
  121MOL   C22841268   5.656   7.734   5.581 -0.0829 -0.1133  0.5419
  121MOL   C22941269   5.521   7.734   5.621  1.1387  0.0763  0.8664
  121MOL   C23041270   5.483   7.655   5.729  0.1847  0.9448  0.2720
  121MOL   O23141271   5.662   7.414   5.963 -0.3604  0.1692 -0.5177
  121MOL   H23241272   5.403   7.609   6.028 -2.2379 -1.2870  2.4162
  121MOL   H23341273   5.578   7.619   6.082  0.0923 -1.0635  1.2762
  121MOL   H23441274   5.466   7.417   5.886  1.3206 -1.0571 -2.6715
  121MOL   H23541275   5.794   7.530   5.803 -0.4999 -0.2782  0.4942
  121MOL   H23641276   5.856   7.642   5.618 -0.2946 -1.6844 -0.7123
  121MOL   H23741277   5.689   7.797   5.500 -0.7283  1.1709  1.2617
  121MOL   H23841278   5.456   7.798   5.562  0.2455 -1.3100  0.3115
  121MOL   H23941279   5.382   7.651   5.767 -0.0076  1.1068 -0.2215
  121MOL   C24041280   5.662   7.272   5.937  0.3547  0.2161  0.3001
  121MOL   C24141281   5.799   7.201   5.983 -0.3916 -0.9042  0.6936
  121MOL   C24241282   5.799   7.156   6.124  0.7003 -0.2513 -0.3588
  121MOL   C24341283   5.868   7.226   6.231  0.3079 -1.0055  0.6745
  121MOL   C24441284   5.859   7.181   6.362  0.5107  0.5352 -0.1805
  121MOL   C24541285   5.795   7.056   6.389 -0.4199 -0.4770 -0.2598
  121MOL   C24641286   5.721   6.998   6.282  0.4272  0.0724 -0.0874
  121MOL   C24741287   5.717   7.050   6.158 -0.4204 -0.8811 -0.1417
  121MOL   O24841288   5.816   7.093   5.893  0.7220 -0.0255  0.5628
  121MOL   H24941289   5.577   7.226   5.987 -0.6441  0.9850 -0.6768
  121MOL   H25041290   5.653   7.262   5.829 -0.0840  0.0138  0.3548
  121MOL   H25141291   5.884   7.266   5.966  0.3054 -1.8902  0.3131
  121MOL   H25241292   5.939   7.307   6.220  1.4413 -2.2921 -1.9454
  121MOL   H25341293   5.918   7.235   6.435 -1.6904  0.6084  1.6111
  121MOL   H25441294   5.795   7.009   6.486  0.8674 -0.0919 -0.0674
  121MOL   H25541295   5.663   6.908   6.299 -0.5367  1.3860  4.2429
  121MOL   H25641296   5.652   7.008   6.083 -2.0254  2.7130 -0.8469
  121MOL   C25741297   5.953   7.060   5.873 -0.3348 -1.2058  0.1366
  121MOL   C25841298   6.033   7.146   5.767 -0.8452  0.0396 -0.5612
  121MOL   C25941299   5.953   7.157   5.639  0.0146 -0.7769  0.0827
  121MOL   C26041300   5.954   7.048   5.550  0.9737  0.2692  0.2293
  121MOL   C26141301   5.876   7.058   5.431  0.4701  0.2907 -0.5999
  121MOL   C26241302   5.791   7.169   5.408  0.0914 -0.8503 -0.7173
  121MOL   C26341303   5.787   7.275   5.501  0.1745 -0.3998 -0.2584
  121MOL   C26441304   5.872   7.267   5.617  0.3345  0.2724  1.1515
  121MOL   O26541305   6.152   7.074   5.754  0.2750  0.4981 -0.1688
  121MOL   H26641306   5.946   6.964   5.822 -1.9244 -0.0294 -1.9817
  121MOL   H26741307   6.003   7.040   5.967 -1.9039 -1.9232  0.8404
  121MOL   H26841308   6.058   7.243   5.810  0.4933 -0.8412  0.7140
  121MOL   H26941309   6.007   6.960   5.587  0.1783  0.2728  1.4279
  121MOL   H27041310   5.869   6.977   5.359  0.0499  1.0528 -1.4369
  121MOL   H27141311   5.740   7.176   5.313 -1.0546 -0.1370 -0.0596
  121MOL   H27241312   5.728   7.363   5.480 -0.9869 -1.2929 -0.7741
  121MOL   H27341313   5.863   7.345   5.691 -1.5466  1.6569 -0.4837
  121MOL   C27441314   6.260   7.144   5.697 -0.5689  0.0363 -0.7172
  121MOL   C27541315   6.387   7.126   5.791 -0.0118  0.6173  0.4943
  121MOL   C27641316   6.424   6.979   5.798 -0.1401  0.7094  0.1951
  121MOL   C27741317   6.520   6.924   5.710  0.8139 -0.3929  0.3869
  121MOL   C27841318   6.552   6.784   5.723  0.6508  0.5604  0.0916
  121MOL   C27941319   6.494   6.715   5.827  0.4161 -0.1247  0.4083
  121MOL   C28041320   6.404   6.769   5.913 -0.0711 -0.1973  0.0829
  121MOL   C28141321   6.359   6.903   5.901  0.5424 -0.1505  0.0104
  121MOL   O28241322   6.352   7.182   5.924 -0.0859  0.7777 -0.2849
  121MOL   H28341323   6.292   7.107   5.600  1.0473 -1.9505  0.5184
  121MOL   H28441324   6.241   7.251   5.685 -2.1400 -0.0812  0.5756
  121MOL   H28541325   6.468   7.186   5.750  0.4231 -1.0864 -1.1876
  121MOL   H28641326   6.564   6.989   5.636 -0.4327  1.0099  0.8458
  121MOL   H28741327   6.626   6.727   5.669 -2.2941 -2.7724 -0.5715
  121MOL   H28841328   6.525   6.613   5.845  1.4060  0.0817 -0.0976
  121MOL   H28941329   6.362   6.710   5.992  0.1283  0.4243  0.6543
  121MOL   H29041330   6.295   6.942   5.978  1.0717 -1.7657  1.2855
  121MOL   C29141331   6.457   7.197   6.021 -1.0858  0.5838  0.3756
  121MOL   C29241332   6.392   7.280   6.135  0.5429 -0.1109 -0.1982
  121MOL   C29341333   6.321   7.191   6.239  0.1696  0.1521 -0.6932
  121MOL   C29441334   6.379   7.177   6.366  0.5512  0.0092 -0.1916
  121MOL   C29541335   6.325   7.089   6.461  0.2744 -0.2035 -0.1154
  121MOL   C29641336   6.203   7.020   6.425  0.3071  0.0020 -0.4687
  121MOL   C29741337   6.136   7.046   6.301 -0.4304  0.5700  0.2476
  121MOL   C29841338   6.196   7.133   6.210 -1.0918 -0.1789 -0.3778
  121MOL   O29941339   6.494   7.362   6.189 -0.0723 -0.1507 -0.3593
  121MOL   H30041340   6.537   7.255   5.976 -1.3175  0.0873 -0.6983
  121MOL   H30141341   6.515   7.110   6.053  0.3119  0.7073 -1.7736
  121MOL   H30241342   6.316   7.348   6.096  0.2179 -0.7042 -0.6022
  121MOL   H30341343   6.474   7.223   6.390 -0.7196  1.7500  1.7316
  121MOL   H30441344   6.369   7.077   6.559  0.0789  0.3771  0.0463
  121MOL   H30541345   6.144   6.960   6.492 -1.0392  1.3581 -0.4029
  121MOL   H30641346   6.041   7.005   6.270 -0.9286 -0.1060  2.5992
  121MOL   H30741347   6.152   7.148   6.113  2.1111  0.9427 -1.7134
  121MOL   C30841348   6.519   7.485   6.128 -0.0049  0.2852 -0.0612
  121MOL   C30941349   6.598   7.587   6.213  0.3169  0.0702  0.4369
  121MOL   C31041350   6.547   7.608   6.358  0.1066  0.3536  0.3924
  121MOL   C31141351   6.586   7.518   6.464 -0.0598  0.3854  0.0380
  121MOL   C31241352   6.528   7.533   6.591  0.0295  0.5968  1.0399
  121MOL   C31341353   6.431   7.635   6.610  0.4098 -0.6002  0.0523
  121MOL   C31441354   6.395   7.730   6.515 -1.0412 -0.9934  0.0062
  121MOL   C31541355   6.453   7.712   6.388  0.0423 -0.4929  0.0380
  121MOL   O31641356   6.735   7.561   6.195  0.6618  0.1160  0.1159
  121MOL   H31741357   6.426   7.538   6.112 -0.2899  0.0249  0.7109
  121MOL   H31841358   6.578   7.468   6.038  1.7718 -3.6627  1.7336
  121MOL   H31941359   6.580   7.680   6.160 -0.2499 -0.3686 -0.1515
  121MOL   H32041360   6.646   7.430   6.450  1.8993  1.4077  1.6914
  121MOL   H32141361   6.551   7.467   6.673  2.7560 -1.7187 -1.4424
  121MOL   H32241362   6.377   7.626   6.704 -1.2435 -0.8390 -0.8986
  121MOL   H32341363   6.313   7.793   6.547  0.3803  1.0961 -0.3463
  121MOL   H32441364   6.410   7.773   6.311  3.1043  0.3171 -1.0916
  121MOL   C32541365   6.819   7.662   6.249  0.2384  0.2980 -0.3941
  121MOL   C32641366   6.960   7.627   6.206 -0.1745 -0.5350 -1.1576
  121MOL   C32741367   6.984   7.611   6.059  0.2896  0.7195  0.0430
  121MOL   C32841368   7.112   7.562   6.018  0.1384 -0.6158  0.6850
  121MOL   C32941369   7.132   7.544   5.879 -0.3324 -1.1214  0.1168
  121MOL   C33041370   7.027   7.566   5.785 -0.0139  0.1482  0.2131
  121MOL   C33141371   6.912   7.620   5.829 -0.6588 -0.3750  0.1986
  121MOL   C33241372   6.883   7.638   5.963  0.3873 -0.2418  1.0525
  121MOL   O33341373   7.043   7.722   6.263 -0.3185 -0.0573  0.5869
  121MOL   H33441374   6.825   7.658   6.357  1.7979 -0.3480 -0.4976
  121MOL   H33541375   6.791   7.759   6.207  4.0596  1.1302 -1.1722
  121MOL   H33641376   6.975   7.527   6.248 -1.7725 -0.6001 -0.6829
  121MOL   H33741377   7.188   7.532   6.089  0.4814 -0.6628  0.2987
  121MOL   H33841378   7.222   7.497   5.845 -0.1919  0.4004 -1.7030
  121MOL   H33941379   7.050   7.550   5.681 -2.0074  0.6673 -0.3202
  121MOL   H34041380   6.838   7.653   5.757 -1.2139 -0.0993  0.8851
  121MOL   H34141381   6.783   7.670   5.986  0.3159  0.8359 -0.6943
  121MOL   H34241382   7.054   7.793   6.202 -2.8007 -0.8461 -0.8310
  122MOL     C141383   4.354   2.979   2.980 -0.0398 -0.7469 -0.3696
  122MOL     C241384   4.239   2.952   2.886 -0.2678  0.1881 -0.0591
  122MOL     C341385   4.094   2.954   2.944 -0.6036  0.3715  0.8742
  122MOL     C441386   3.999   3.055   2.908 -0.1056  0.0949  0.5670
  122MOL     C541387   3.863   3.040   2.946 -0.5178 -0.6661 -0.2882
  122MOL     C641388   3.830   2.941   3.038 -0.0852  0.0875  0.5402
  122MOL     C741389   3.926   2.850   3.089 -0.3632 -0.7099  0.2198
  122MOL     C841390   4.054   2.853   3.040 -0.8222  0.4423 -0.4228
  122MOL     O941391   4.268   2.828   2.828 -0.1456 -0.2274 -0.0485
  122MOL    H1041392   4.329   3.062   3.046 -0.0646 -1.0459 -0.0030
  122MOL    H1141393   4.386   2.896   3.042 -2.3088 -0.0755  1.7378
  122MOL    H1241394   4.256   3.021   2.802  2.5878 -0.5950 -0.1882
  122MOL    H1341395   4.022   3.131   2.836  0.7607  1.8673  2.6830
  122MOL    H1441396   3.784   3.105   2.911 -0.1028 -0.5738 -1.0793
  122MOL    H1541397   3.725   2.940   3.063 -0.5664  0.0826 -1.4436
  122MOL    H1641398   3.903   2.780   3.168  0.4565  0.5362  1.5941
  122MOL    H1741399   4.124   2.786   3.086  0.0727  0.2110 -2.1050
  122MOL    H1841400   4.442   3.002   2.919  0.6647 -2.0413  0.1520
  122MOL    C1941401   4.180   2.779   2.724 -0.0804  0.0453  0.3761
  122MOL    C2041402   4.172   2.865   2.597  0.3065 -0.1275 -0.1053
  122MOL    C2141403   4.124   2.805   2.468  0.3509  0.7014 -1.0426
  122MOL    C2241404   4.079   2.891   2.364 -0.4516  0.4006  0.1992
  122MOL    C2341405   4.029   2.842   2.242 -0.1733  0.4516 -0.1600
  122MOL    C2441406   4.026   2.705   2.223 -0.4419 -0.3277  0.8476
  122MOL    C2541407   4.064   2.616   2.318  0.0608  0.3603  0.3975
  122MOL    C2641408   4.121   2.662   2.436 -1.1013 -0.1426 -0.4330
  122MOL    O2741409   4.294   2.935   2.575 -0.0341 -0.3045  0.3161
  122MOL    H2841410   4.243   2.695   2.698  0.6015  0.4910  0.5798
  122MOL    H2941411   4.079   2.751   2.755 -0.4223 -0.0875 -0.8579
  122MOL    H3041412   4.097   2.941   2.621 -1.3515 -0.6320 -3.4629
  122MOL    H3141413   4.093   2.997   2.379 -1.9193  0.4444  1.3164
  122MOL    H3241414   3.988   2.913   2.172  0.4923  1.5102  0.5064
  122MOL    H3341415   3.986   2.669   2.130  0.9299  1.2953 -0.3825
  122MOL    H3441416   4.055   2.512   2.291  1.1273  0.2978  0.2656
  122MOL    H3541417   4.155   2.599   2.517  0.4212  0.9639 -0.1800
  122MOL    C3641418   4.413   2.857   2.561 -0.6689  0.5554  0.7174
  122MOL    C3741419   4.532   2.954   2.515 -0.0542 -0.1576  0.4119
  122MOL    C3841420   4.542   3.084   2.599  0.7327 -0.3399  0.2789
  122MOL    C3941421   4.484   3.203   2.550  0.1731 -0.1259 -0.6315
  122MOL    C4041422   4.481   3.322   2.630  0.0512 -0.4060 -0.3066
  122MOL    C4141423   4.543   3.328   2.759  0.0589  0.4287 -0.0054
  122MOL    C4241424   4.606   3.211   2.803  0.6701 -0.2671  0.0171
  122MOL    C4341425   4.598   3.092   2.731  0.1882 -0.3275 -0.2489
  122MOL    O4441426   4.513   2.976   2.376  0.6238 -0.6653 -0.4136
  122MOL    H4541427   4.437   2.807   2.655 -0.9968 -0.6148  0.1783
  122MOL    H4641428   4.389   2.790   2.479 -2.2233  2.2182 -0.2261
  122MOL    H4741429   4.622   2.895   2.528  0.3361  0.2988 -0.2043
  122MOL    H4841430   4.442   3.210   2.451 -1.2231  1.0053  0.0258
  122MOL    H4941431   4.425   3.403   2.584  2.1433  1.4175  0.2482
  122MOL    H5041432   4.557   3.420   2.814  1.4036 -0.0152  0.4123
  122MOL    H5141433   4.656   3.214   2.898 -1.4382  0.4973  1.1394
  122MOL    H5241434   4.631   3.003   2.781 -0.3182 -1.5934 -2.1437
  122MOL    C5341435   4.616   3.041   2.304 -0.3506  0.1879 -0.0642
  122MOL    C5441436   4.576   3.074   2.156 -0.2266 -0.2677 -0.3035
  122MOL    C5541437   4.448   3.159   2.145  0.0066  0.2767 -0.1730
  122MOL    C5641438   4.456   3.295   2.110 -0.2399  0.1714 -0.1949
  122MOL    C5741439   4.341   3.372   2.093 -0.2125  0.2794 -0.0655
  122MOL    C5841440   4.213   3.309   2.099  0.7201  0.2051 -0.5030
  122MOL    C5941441   4.202   3.173   2.133 -0.1511 -0.4696 -0.4992
  122MOL    C6041442   4.321   3.099   2.171 -0.3306 -0.0060  0.1347
  122MOL    O6141443   4.682   3.131   2.077  0.0224 -0.4769 -0.0404
  122MOL    H6241444   4.653   3.125   2.362  0.8751 -1.2140  1.2080
  122MOL    H6341445   4.698   2.970   2.309  0.8194  1.4624 -0.7800
  122MOL    H6441446   4.543   2.981   2.109 -1.8898  0.6722 -1.0427
  122MOL    H6541447   4.551   3.345   2.099  0.1450 -1.2553 -3.8282
  122MOL    H6641448   4.345   3.471   2.052 -1.8812  0.3946  0.0282
  122MOL    H6741449   4.129   3.377   2.093  1.1367  1.0229  2.3249
  122MOL    H6841450   4.106   3.122   2.133  0.7183 -2.1663 -2.2732
  122MOL    H6941451   4.317   2.996   2.202  0.1013  0.8347  3.1614
  122MOL    C7041452   4.784   3.037   2.046  0.5557 -0.1317 -0.0612
  122MOL    C7141453   4.823   3.025   1.899 -0.3090 -0.3168  0.4786
  122MOL    C7241454   4.807   2.883   1.847  0.4882  0.0199  0.0428
  122MOL    C7341455   4.686   2.854   1.771  0.4710 -0.5645  0.3797
  122MOL    C7441456   4.661   2.730   1.720  0.2137  0.2683 -0.3782
  122MOL    C7541457   4.748   2.623   1.739 -0.2408  0.3902 -0.0573
  122MOL    C7641458   4.880   2.649   1.797 -0.4814 -0.4376  0.4305
  122MOL    C7741459   4.909   2.781   1.839  0.2036  0.2631  0.2467
  122MOL    O7841460   4.959   3.064   1.894 -0.2147 -0.3107 -0.4787
  122MOL    H7941461   4.870   3.062   2.109  1.3815 -2.0047 -0.3881
  122MOL    H8041462   4.751   2.939   2.080 -2.6073  0.9476  0.0655
  122MOL    H8141463   4.765   3.100   1.845  1.1916  2.0768  2.0323
  122MOL    H8241464   4.619   2.936   1.746  1.9612  0.3915 -0.5474
  122MOL    H8341465   4.585   2.707   1.646 -1.8243 -0.9330  2.0438
  122MOL    H8441466   4.717   2.534   1.686  0.9418 -1.7919  2.8110
  122MOL    H8541467   4.955   2.571   1.799 -2.0494 -2.0198 -1.4003
  122MOL    H8641468   5.008   2.791   1.881  0.3633 -0.6484  0.1050
  122MOL    C8741469   4.992   3.134   1.775 -0.3636  0.5018 -0.6806
  122MOL    C8841470   4.963   3.283   1.760 -0.5210  0.3227 -0.2084
  122MOL    C8941471   4.984   3.357   1.887  0.1442  0.2662 -0.2192
  122MOL    C9041472   4.886   3.358   1.990 -0.0163  0.0167  0.1653
  122MOL    C9141473   4.910   3.414   2.117  0.5979 -0.2692 -0.1096
  122MOL    C9241474   5.032   3.481   2.140  0.0634 -0.0555  0.5465
  122MOL    C9341475   5.127   3.485   2.044  0.3789 -0.3066 -0.3019
  122MOL    C9441476   5.102   3.428   1.918 -0.4041  0.6420  0.3289
  122MOL    O9541477   4.831   3.275   1.713 -0.7018  0.2935 -0.0814
  122MOL    H9641478   4.963   3.082   1.683 -0.2819 -0.0951 -0.3733
  122MOL    H9741479   5.100   3.122   1.767 -0.4728 -1.3290  0.3289
  122MOL    H9841480   5.028   3.329   1.686 -1.3609  1.0268 -0.5232
  122MOL    H9941481   4.787   3.316   1.984 -0.4333  1.2400 -1.5977
  122MOL   H10041482   4.831   3.413   2.191  0.8584 -1.0129  0.1609
  122MOL   H10141483   5.051   3.512   2.242  1.1574  0.7007  0.1262
  122MOL   H10241484   5.225   3.525   2.065  0.2643 -0.0963 -0.1587
  122MOL   H10341485   5.183   3.433   1.846 -0.4559 -1.9362  0.0754
  122MOL   C10441486   4.769   3.393   1.667  0.3921  0.1067  0.5956
  122MOL   C10541487   4.630   3.355   1.608 -0.2306  0.3329  0.0052
  122MOL   C10641488   4.529   3.464   1.640  0.6671  0.6367  0.0099
  122MOL   C10741489   4.551   3.593   1.592  0.3196  0.0952 -0.7000
  122MOL   C10841490   4.451   3.688   1.621  0.3864  0.1468 -0.1476
  122MOL   C10941491   4.340   3.655   1.702  0.1393 -0.9717 -0.2044
  122MOL   C11041492   4.323   3.527   1.750 -0.8223 -0.3135 -0.2381
  122MOL   C11141493   4.424   3.429   1.728 -0.2300 -0.2092 -0.0311
  122MOL   O11241494   4.644   3.339   1.470  0.1956 -0.5042 -0.5580
  122MOL   H11341495   4.756   3.466   1.748  0.6993 -0.6661  1.3467
  122MOL   H11441496   4.824   3.447   1.590 -0.8178  1.4120  0.6275
  122MOL   H11541497   4.609   3.257   1.651  0.0191  0.7037  0.9945
  122MOL   H11641498   4.638   3.626   1.537  0.0470 -0.9865 -1.8290
  122MOL   H11741499   4.471   3.789   1.586  1.5463 -0.0164  0.0207
  122MOL   H11841500   4.279   3.742   1.722  1.6314 -0.0476  0.4730
  122MOL   H11941501   4.236   3.504   1.810 -1.0475  1.2284  0.0422
  122MOL   H12041502   4.407   3.328   1.761  2.5382 -0.8970 -0.5745
  122MOL   C12141503   4.702   3.220   1.431 -1.1542 -0.1179 -0.2816
  122MOL   C12241504   4.676   3.211   1.278  0.5385 -0.0682 -0.8305
  122MOL   C12341505   4.749   3.320   1.189 -0.4044 -0.0189 -0.5733
  122MOL   C12441506   4.857   3.290   1.104  0.5305  0.4483 -0.3794
  122MOL   C12541507   4.915   3.390   1.017  1.0065  0.1676 -0.5259
  122MOL   C12641508   4.863   3.520   1.011  0.1788  0.7690  0.0733
  122MOL   C12741509   4.754   3.551   1.099  0.0499 -0.5349 -0.5013
  122MOL   C12841510   4.703   3.453   1.185 -1.0243 -0.4303 -0.0674
  122MOL   O12941511   4.715   3.082   1.245  0.2618 -0.2215  0.7018
  122MOL   H13041512   4.680   3.136   1.497 -1.8523  1.1815  1.1839
  122MOL   H13141513   4.810   3.230   1.435 -1.0685 -1.4771  1.4526
  122MOL   H13241514   4.569   3.222   1.262 -0.2575 -3.6209  1.5497
  122MOL   H13341515   4.887   3.187   1.107  0.4830  0.4598  0.4693
  122MOL   H13441516   5.002   3.364   0.958  1.3284  0.7081 -0.2920
  122MOL   H13541517   4.907   3.593   0.946 -2.3275  0.5188 -1.9758
  122MOL   H13641518   4.719   3.653   1.099 -0.8536 -0.8377 -1.0328
  122MOL   H13741519   4.625   3.479   1.256 -0.3347  0.3103  0.4228
  122MOL   C13841520   4.634   3.020   1.145  0.2773 -1.1745  0.0326
  122MOL   C13941521   4.698   2.896   1.082 -0.1845 -0.1386 -0.1911
  122MOL   C14041522   4.698   2.778   1.177  0.0730 -0.2763 -0.2026
  122MOL   C14141523   4.791   2.769   1.282 -0.0660  0.4767 -0.0727
  122MOL   C14241524   4.810   2.659   1.368 -0.7338 -0.0806  0.3845
  122MOL   C14341525   4.718   2.550   1.347 -0.1246 -0.1501 -0.0682
  122MOL   C14441526   4.628   2.555   1.244  0.5887  0.4717 -0.4474
  122MOL   C14541527   4.618   2.666   1.159  0.2209 -0.4772 -0.5160
  122MOL   O14641528   4.644   2.864   0.959  0.0911 -0.0994 -0.4324
  122MOL   H14741529   4.610   3.078   1.056 -0.3330 -0.3847  0.6963
  122MOL   H14841530   4.538   2.992   1.189 -0.5326 -0.2942 -1.1357
  122MOL   H14941531   4.800   2.926   1.059 -0.0619  0.7344  1.4125
  122MOL   H15041532   4.852   2.857   1.300 -0.4222  0.6801  0.1327
  122MOL   H15141533   4.887   2.660   1.443 -0.8198 -1.8792  0.5205
  122MOL   H15241534   4.733   2.470   1.417 -1.0573  1.8928  2.5316
  122MOL   H15341535   4.563   2.472   1.223 -0.6226  1.2119  0.2978
  122MOL   H15441536   4.543   2.662   1.081 -1.3138 -0.9533  0.9577
  122MOL   C15541537   4.714   2.772   0.881  0.0627 -0.2991 -0.0091
  122MOL   C15641538   4.732   2.838   0.741 -0.4415 -0.0715  0.4449
  122MOL   C15741539   4.843   2.945   0.741  0.6854  0.4263  0.6908
  122MOL   C15841540   4.979   2.913   0.749  0.1549  0.9971  0.3209
  122MOL   C15941541   5.081   3.010   0.761  0.4474 -0.0343  0.4339
  122MOL   C16041542   5.033   3.140   0.773 -0.8885  0.0496  0.1552
  122MOL   C16141543   4.900   3.174   0.771 -0.0995  0.2104 -0.2374
  122MOL   C16241544   4.806   3.077   0.754 -0.1813  0.2076 -0.8487
  122MOL   O16341545   4.753   2.730   0.652 -0.9875 -0.3428  0.1704
  122MOL   H16441546   4.661   2.677   0.878 -0.7898  0.1454  0.7763
  122MOL   H16541547   4.812   2.743   0.916 -0.1352  1.0242  1.6817
  122MOL   H16641548   4.637   2.887   0.723 -1.4599 -1.2447  2.5112
  122MOL   H16741549   4.998   2.807   0.736  1.3793  1.1351  0.8861
  122MOL   H16841550   5.183   2.983   0.782  0.5427  0.8247  1.0978
  122MOL   H16941551   5.116   3.209   0.782 -1.0546  0.1243  1.1338
  122MOL   H17041552   4.878   3.279   0.782  2.1535  0.8432 -1.5433
  122MOL   H17141553   4.701   3.105   0.751 -0.1542  0.1887 -2.7648
  122MOL   C17241554   4.696   2.747   0.518  0.3581  0.5678 -0.3781
  122MOL   C17341555   4.568   2.652   0.488  0.9487  0.5847  0.4495
  122MOL   C17441556   4.451   2.683   0.584  0.2517  0.3677  0.3647
  122MOL   C17541557   4.450   2.635   0.715 -0.0800  0.3773 -0.4720
  122MOL   C17641558   4.340   2.661   0.799  0.2555 -0.1681 -0.6637
  122MOL   C17741559   4.231   2.733   0.745 -0.3039  0.2351 -0.5497
  122MOL   C17841560   4.238   2.796   0.618  0.4111 -0.0251  0.1892
  122MOL   C17941561   4.347   2.767   0.535 -0.4115 -0.6131  0.3332
  122MOL   O18041562   4.598   2.513   0.493  0.2367  0.3724  0.8666
  122MOL   H18141563   4.662   2.849   0.500  1.8904  1.3854  1.2357
  122MOL   H18241564   4.780   2.738   0.449  0.8631 -0.0562  0.3039
  122MOL   H18341565   4.521   2.679   0.394  0.9065 -1.3651 -0.1086
  122MOL   H18441566   4.531   2.568   0.740 -2.0076 -1.9145 -0.2115
  122MOL   H18541567   4.342   2.612   0.895  1.7983 -1.8509 -1.5064
  122MOL   H18641568   4.147   2.736   0.813  1.7302 -0.5404  2.0568
  122MOL   H18741569   4.158   2.860   0.585  0.5531 -0.3897 -0.9013
  122MOL   H18841570   4.348   2.821   0.442 -1.3643  0.1418  0.7457
  122MOL   C18941571   4.705   2.469   0.407  0.6088 -0.3917  0.4125
  122MOL   C19041572   4.725   2.319   0.443  0.0432 -0.1122  0.2035
  122MOL   C19141573   4.793   2.310   0.582  0.7475  0.0253 -0.2010
  122MOL   C19241574   4.934   2.296   0.596  0.4358 -0.1108  0.5431
  122MOL   C19341575   4.994   2.266   0.721  0.2125  0.6837 -0.8150
  122MOL   C19441576   4.907   2.243   0.831 -0.3426  0.5292 -0.0309
  122MOL   C19541577   4.767   2.258   0.819  0.6992 -0.9146  0.0658
  122MOL   C19641578   4.706   2.289   0.690 -0.1214  1.1658 -0.3755
  122MOL   O19741579   4.809   2.275   0.337 -0.9718  0.3032  0.0699
  122MOL   H19841580   4.670   2.492   0.307  1.6183  0.4767  0.2478
  122MOL   H19941581   4.805   2.511   0.416  1.4082 -2.1744  0.0151
  122MOL   H20041582   4.628   2.269   0.442  0.4568 -0.9060 -1.0556
  122MOL   H20141583   4.997   2.304   0.508  0.7305 -2.9890  0.4615
  122MOL   H20241584   5.100   2.247   0.720 -0.0766 -0.9589 -2.2029
  122MOL   H20341585   4.952   2.213   0.925  1.7826 -0.4741 -1.3258
  122MOL   H20441586   4.697   2.229   0.897  1.5566  0.3335  1.3036
  122MOL   H20541587   4.600   2.282   0.676 -0.3154 -0.3362  1.6414
  122MOL   C20641588   4.759   2.172   0.254  0.0068 -0.5936 -0.0288
  122MOL   C20741589   4.774   2.030   0.310  0.2127 -0.0518  0.2496
  122MOL   C20841590   4.881   1.952   0.237 -0.0188  0.0584 -0.5066
  122MOL   C20941591   5.019   1.966   0.271 -0.0243  0.1990  0.0903
  122MOL   C21041592   5.112   1.887   0.205  0.1843 -0.7511 -0.0606
  122MOL   C21141593   5.077   1.809   0.089 -0.1511 -0.5839 -0.4782
  122MOL   C21241594   4.938   1.790   0.068  0.1233  0.6662  0.0741
  122MOL   C21341595   4.841   1.863   0.142  0.4060 -0.3859  0.4796
  122MOL   O21441596   4.642   1.971   0.307  0.2459  0.0900 -0.3733
  122MOL   H21541597   4.655   2.188   0.227  0.3794  2.2687  0.0482
  122MOL   H21641598   4.809   2.187   0.158 -1.3420 -2.6765 -1.0906
  122MOL   H21741599   4.805   2.035   0.415 -0.5178 -1.0771  0.5230
  122MOL   H21841600   5.051   2.036   0.347  1.1193  0.2619 -0.4363
  122MOL   H21941601   5.216   1.885   0.234  0.0595 -1.0051  0.3766
  122MOL   H22041602   5.151   1.759   0.029  2.8651  1.8966  1.0465
  122MOL   H22141603   4.901   1.727   8.069  1.5499  0.7503 -0.6710
  122MOL   H22241604   4.736   1.844   0.126  0.2986  0.8376 -0.2947
  122MOL   C22341605   4.626   1.867   0.403  0.5259  0.0271  0.2376
  122MOL   C22441606   4.560   1.928   0.526  0.2323  0.9452  0.0944
  122MOL   C22541607   4.405   1.953   0.507 -0.6320 -0.1189 -0.3289
  122MOL   C22641608   4.309   1.854   0.529  0.5814  0.4473 -0.1949
  122MOL   C22741609   4.176   1.875   0.486 -0.0022 -0.6329 -1.0123
  122MOL   C22841610   4.140   1.997   0.428  0.7779 -0.0524 -0.1607
  122MOL   C22941611   4.232   2.104   0.414 -0.2361 -1.3353 -0.3957
  122MOL   C23041612   4.364   2.084   0.464 -0.7890 -0.4433 -0.2861
  122MOL   O23141613   4.594   1.850   0.644 -0.2932 -0.0764  0.5658
  122MOL   H23241614   4.562   1.797   0.350  0.0360  1.5908 -1.2926
  122MOL   H23341615   4.716   1.816   0.437 -1.4108 -1.8333  2.7825
  122MOL   H23441616   4.607   2.025   0.541  0.4882  0.8155  0.1316
  122MOL   H23541617   4.328   1.755   0.569  0.2321 -0.1788 -1.5244
  122MOL   H23641618   4.104   1.795   0.468  2.7288 -3.0766 -1.4773
  122MOL   H23741619   4.040   2.007   0.387  0.3398 -3.0304  0.0601
  122MOL   H23841620   4.210   2.193   0.357  0.0989 -1.4739 -0.7418
  122MOL   H23941621   4.437   2.163   0.455 -0.6680 -0.4804  0.3227
  122MOL   C24041622   4.594   1.926   0.759 -0.0250  0.9141 -0.0990
  122MOL   C24141623   4.630   1.843   0.887  0.0829  0.1602  0.1200
  122MOL   C24241624   4.543   1.727   0.925  1.0014  0.8033 -0.6259
  122MOL   C24341625   4.439   1.727   1.029  0.0092 -0.2402 -0.2851
  122MOL   C24441626   4.357   1.615   1.059 -0.4620  0.2044  0.6241
  122MOL   C24541627   4.377   1.491   0.985  0.0442  0.3638  0.1213
  122MOL   C24641628   4.473   1.489   0.884 -0.1683  0.2131 -0.5284
  122MOL   C24741629   4.560   1.598   0.858 -0.4138  0.0103  0.5196
  122MOL   O24841630   4.766   1.791   0.883 -0.1740 -0.5932 -0.2778
  122MOL   H24941631   4.662   2.011   0.754  1.6940 -0.3334  1.4966
  122MOL   H25041632   4.491   1.959   0.772 -0.0343  1.0726 -0.5730
  122MOL   H25141633   4.616   1.909   0.973 -1.8789 -1.0359  0.7385
  122MOL   H25241634   4.422   1.819   1.084  4.2541  1.6154 -1.8569
  122MOL   H25341635   4.278   1.620   1.132  0.8066 -1.1016  2.1415
  122MOL   H25441636   4.314   1.406   1.009 -0.6178  0.9802  0.5605
  122MOL   H25541637   4.477   1.399   0.824 -1.6096  0.1440 -0.5505
  122MOL   H25641638   4.634   1.589   0.780  1.1451  1.6789  1.7663
  122MOL   C25741639   4.847   1.840   0.993  1.0609  0.4424 -0.6756
  122MOL   C25841640   4.985   1.773   0.986 -0.2134 -0.5948 -0.1895
  122MOL   C25941641   4.970   1.621   1.012 -0.4011 -0.6332  0.5825
  122MOL   C26041642   4.954   1.524   0.915  0.0007 -0.4958 -0.7769
  122MOL   C26141643   4.926   1.390   0.941  0.3928  1.1173 -0.3007
  122MOL   C26241644   4.924   1.345   1.077  0.4584 -0.4559  0.3418
  122MOL   C26341645   4.945   1.442   1.182  0.0207 -0.8790  1.2749
  122MOL   C26441646   4.967   1.578   1.149  0.2321 -0.1673 -0.6373
  122MOL   O26541647   5.078   1.841   1.075  0.5360  0.2190 -0.3467
  122MOL   H26641648   4.810   1.816   1.093 -0.9271 -0.2848 -1.5596
  122MOL   H26741649   4.857   1.949   0.993 -1.5078  0.7248 -0.3955
  122MOL   H26841650   5.027   1.780   0.886  0.1890  0.9141  0.0691
  122MOL   H26941651   4.974   1.567   0.817  1.8912 -0.4750 -0.3920
  122MOL   H27041652   4.920   1.322   0.858 -2.4573  0.6115  0.2653
  122MOL   H27141653   4.902   1.247   1.116  1.9889 -0.7781  0.4226
  122MOL   H27241654   4.930   1.407   1.283  0.0504 -0.1283  1.5404
  122MOL   H27341655   4.991   1.648   1.228  0.4410 -1.2511  0.2652
  122MOL   C27441656   5.197   1.893   1.018 -0.1356 -0.6160  0.7311
  122MOL   C27541657   5.271   1.978   1.119  0.1535  0.1603 -0.5717
  122MOL   C27641658   5.371   2.080   1.049 -0.2925 -0.2585 -0.0980
  122MOL   C27741659   5.358   2.220   1.062 -0.4804 -0.5555  0.4100
  122MOL   C27841660   5.447   2.305   0.997  0.0905 -0.2877  0.6044
  122MOL   C27941661   5.559   2.250   0.921 -0.1132 -0.0441 -0.4328
  122MOL   C28041662   5.574   2.114   0.902  0.8644 -0.1386 -0.5932
  122MOL   C28141663   5.486   2.029   0.976  0.0481  0.8668  0.1581
  122MOL   O28241664   5.340   1.889   1.206 -0.7014  0.3885 -0.3404
  122MOL   H28341665   5.264   1.811   0.994  1.6987  1.0987 -0.0757
  122MOL   H28441666   5.165   1.940   0.925  0.1676 -0.7817  0.5440
  122MOL   H28541667   5.196   2.037   1.171 -0.0707  1.3942 -2.2486
  122MOL   H28641668   5.270   2.261   1.108 -1.0790  1.0654 -2.0600
  122MOL   H28741669   5.421   2.410   0.991 -2.6801 -1.0318 -1.6609
  122MOL   H28841670   5.633   2.311   0.872  1.7919  0.3625  2.8550
  122MOL   H28941671   5.660   2.085   0.843  1.6977  1.5928 -0.2680
  122MOL   H29041672   5.498   1.921   0.979  0.7912  0.9418 -0.0389
  122MOL   C29141673   5.260   1.835   1.317 -0.2262 -0.5513  0.5304
  122MOL   C29241674   5.271   1.920   1.446 -0.0099 -0.1676 -0.5288
  122MOL   C29341675   5.410   1.987   1.458 -0.0238  0.8028 -0.1275
  122MOL   C29441676   5.422   2.129   1.441 -0.4256 -0.1212 -0.2888
  122MOL   C29541677   5.554   2.177   1.468 -0.0925 -0.3968 -0.5252
  122MOL   C29641678   5.666   2.100   1.495  0.0638 -0.1529 -0.3833
  122MOL   C29741679   5.649   1.960   1.498 -0.2290  0.4442  0.1854
  122MOL   C29841680   5.520   1.900   1.483  0.8938 -1.0137  0.2431
  122MOL   O29941681   5.170   2.023   1.450  0.0244  0.4235  0.5910
  122MOL   H30041682   5.317   1.747   1.345 -1.2801 -1.5043 -0.2876
  122MOL   H30141683   5.161   1.800   1.290 -0.4936 -0.7925  1.7898
  122MOL   H30241684   5.259   1.861   1.537 -2.1322 -0.8922 -1.2501
  122MOL   H30341685   5.341   2.198   1.424  0.3678  0.5609 -1.4067
  122MOL   H30441686   5.565   2.284   1.459 -2.4776 -0.0913 -0.0391
  122MOL   H30541687   5.763   2.144   1.510  1.1533 -2.4367 -0.5070
  122MOL   H30641688   5.729   1.892   1.518  0.8677  1.3143 -1.1480
  122MOL   H30741689   5.497   1.795   1.492  1.2715 -0.9136  2.8953
  122MOL   C30841690   5.053   1.967   1.502  0.1823  0.7425 -0.2324
  122MOL   C30941691   4.952   2.087   1.499  0.4633 -0.3539  0.2008
  122MOL   C31041692   5.010   2.232   1.490 -0.4079  0.3741 -0.4647
  122MOL   C31141693   5.017   2.299   1.366  0.2440  0.7927 -0.4655
  122MOL   C31241694   5.067   2.432   1.366  0.5755  0.1609 -0.4849
  122MOL   C31341695   5.113   2.495   1.486 -0.0488  0.0499  0.6399
  122MOL   C31441696   5.113   2.428   1.610  0.1958 -0.0556 -0.1992
  122MOL   C31541697   5.051   2.299   1.608 -0.3440  0.1131  0.2822
  122MOL   O31641698   4.864   2.063   1.389 -0.2555  0.5893  0.7279
  122MOL   H31741699   5.064   1.934   1.606 -0.5453 -1.3730 -0.8132
  122MOL   H31841700   5.014   1.884   1.444  1.8254 -0.2971  0.1469
  122MOL   H31941701   4.896   2.080   1.592  0.3852  0.6973  0.2388
  122MOL   H32041702   4.993   2.248   1.274  1.4293 -0.6279 -0.0067
  122MOL   H32141703   5.075   2.482   1.270 -0.0162  0.1919 -0.5228
  122MOL   H32241704   5.156   2.593   1.486 -0.3054  0.1642  0.2210
  122MOL   H32341705   5.150   2.466   1.704 -0.2351  1.6180 -0.6736
  122MOL   H32441706   5.053   2.237   1.696 -0.2347 -0.2022  0.0603
  122MOL   C32541707   4.728   2.107   1.411  0.3044  0.3174  0.0051
  122MOL   C32641708   4.641   2.042   1.306  0.0227 -0.1367 -0.2750
  122MOL   C32741709   4.495   2.041   1.351 -0.4905 -0.0065 -0.0620
  122MOL   C32841710   4.404   2.137   1.299 -0.2094 -0.3246 -0.4051
  122MOL   C32941711   4.275   2.149   1.355 -0.0565  0.3012  0.0191
  122MOL   C33041712   4.237   2.061   1.458 -0.4803  0.4167  0.4313
  122MOL   C33141713   4.327   1.964   1.506 -0.1487 -0.2216 -0.7871
  122MOL   C33241714   4.452   1.955   1.448  0.3485  0.6259 -0.1382
  122MOL   O33341715   4.669   2.096   1.180  0.3590  0.8112 -0.6766
  122MOL   H33441716   4.718   2.215   1.414  2.1654  0.4964  0.4461
  122MOL   H33541717   4.698   2.075   1.510 -1.5136  0.6440 -0.4231
  122MOL   H33641718   4.663   1.936   1.300 -0.5818 -0.1958 -1.6184
  122MOL   H33741719   4.435   2.208   1.225 -0.0493 -0.8471 -0.8439
  122MOL   H33841720   4.201   2.221   1.323 -1.4374 -1.6130 -1.2330
  122MOL   H33941721   4.152   2.082   1.522 -1.2892 -0.2864 -0.3962
  122MOL   H34041722   4.296   1.904   1.590  1.4152  3.2168  2.3907
  122MOL   H34141723   4.514   1.877   1.488 -1.2782 -0.8227 -0.3819
  122MOL   H34241724   4.762   2.107   1.183  0.3360  0.6539  1.1535
  123MOL     C141725   6.556   4.607   4.117 -0.3925  0.3056 -0.6357
  123MOL     C241726   6.455   4.551   4.018  0.8038  0.0442  0.7005
  123MOL     C341727   6.309   4.564   4.069  0.3880  0.3617 -0.3377
  123MOL     C441728   6.275   4.548   4.204  0.3899  0.6596 -0.9158
  123MOL     C541729   6.143   4.551   4.250  0.4858  0.2650  0.0303
  123MOL     C641730   6.046   4.589   4.150  0.2359  0.1834 -0.0559
  123MOL     C741731   6.072   4.602   4.012 -0.2612  0.3549 -0.4155
  123MOL     C841732   6.207   4.589   3.971 -0.1582  0.0242 -0.2850
  123MOL     O941733   6.499   4.421   3.991 -0.2305  1.0012  0.1958
  123MOL    H1041734   6.517   4.700   4.160  1.1241  0.7818 -0.2591
  123MOL    H1141735   6.557   4.544   4.206 -0.5951  3.8028  1.9710
  123MOL    H1241736   6.466   4.604   3.923 -0.6925 -0.4005  0.2790
  123MOL    H1341737   6.355   4.532   4.275 -1.2859 -0.9355  0.6684
  123MOL    H1441738   6.126   4.527   4.353  1.2841  1.7414  0.5321
  123MOL    H1541739   5.940   4.587   4.167  0.3538 -0.8265  0.6207
  123MOL    H1641740   5.988   4.609   3.944 -0.6106 -3.2119 -0.4330
  123MOL    H1741741   6.236   4.603   3.868 -1.2408  0.2173 -0.5618
  123MOL    H1841742   6.660   4.619   4.087 -0.1936 -0.3134 -0.2063
  123MOL    C1941743   6.416   4.352   3.896 -0.9059 -0.0316  0.0430
  123MOL    C2041744   6.514   4.292   3.797 -0.1928  0.5195  0.1064
  123MOL    C2141745   6.562   4.398   3.701  0.2707  0.1625  0.0746
  123MOL    C2241746   6.481   4.430   3.588 -0.7688 -0.3134 -0.5553
  123MOL    C2341747   6.504   4.543   3.505  0.2012 -0.6833  0.2168
  123MOL    C2441748   6.602   4.635   3.549  0.5835 -0.2742  0.2638
  123MOL    C2541749   6.684   4.602   3.663  0.6246 -0.4703 -0.3231
  123MOL    C2641750   6.674   4.478   3.734 -0.1311 -0.0343 -0.0384
  123MOL    O2741751   6.450   4.185   3.724 -0.1538 -0.0492 -0.1685
  123MOL    H2841752   6.351   4.278   3.945 -1.3693  0.3792  0.0479
  123MOL    H2941753   6.343   4.415   3.845 -2.1067 -0.2813  1.3856
  123MOL    H3041754   6.603   4.247   3.840 -0.6275  1.0185  1.5587
  123MOL    H3141755   6.393   4.370   3.573  0.0498 -1.2493 -1.6756
  123MOL    H3241756   6.448   4.552   3.413  1.0046  0.6307 -0.1553
  123MOL    H3341757   6.617   4.732   3.504  4.7940 -1.1609 -0.4920
  123MOL    H3441758   6.763   4.671   3.692 -0.5828 -0.5690  3.4231
  123MOL    H3541759   6.744   4.456   3.814 -1.1530  0.6913  1.0799
  123MOL    C3641760   6.449   4.063   3.791 -0.7289  0.4134  0.4734
  123MOL    C3741761   6.575   3.986   3.786 -0.3038 -0.6003  0.7027
  123MOL    C3841762   6.642   3.965   3.650  0.1288  0.0285  0.5770
  123MOL    C3941763   6.730   4.066   3.602  0.2988  1.1934 -0.2182
  123MOL    C4041764   6.808   4.056   3.489  0.1486 -0.4371 -0.2249
  123MOL    C4141765   6.779   3.949   3.395 -0.5877 -0.5860 -0.3387
  123MOL    C4241766   6.686   3.850   3.434 -0.5408  0.2563 -0.5828
  123MOL    C4341767   6.619   3.854   3.558 -0.0691 -0.0310 -0.1146
  123MOL    O4441768   6.539   3.859   3.852  0.1110  0.1953 -0.2282
  123MOL    H4541769   6.421   4.074   3.896  2.2006  0.5899  1.2689
  123MOL    H4641770   6.378   4.004   3.734  0.0964  0.0810 -0.2129
  123MOL    H4741771   6.643   4.026   3.862  2.8525 -2.1696 -1.1963
  123MOL    H4841772   6.760   4.146   3.668  2.9228  0.1586 -0.1017
  123MOL    H4941773   6.889   4.125   3.471 -0.4106 -0.1472 -1.7186
  123MOL    H5041774   6.830   3.947   3.300  0.0352 -3.2531  0.0144
  123MOL    H5141775   6.675   3.759   3.376  0.5105 -0.7935  0.8190
  123MOL    H5241776   6.563   3.767   3.590  1.6903 -1.1154  0.0442
  123MOL    C5341777   6.639   3.785   3.920  0.0525  0.3008 -0.4794
  123MOL    C5441778   6.592   3.729   4.055 -1.5225  0.0140 -0.1928
  123MOL    C5541779   6.699   3.640   4.124 -0.0018  0.5549 -0.5965
  123MOL    C5641780   6.802   3.696   4.201 -0.0359 -0.2512  0.2522
  123MOL    C5741781   6.903   3.617   4.263 -0.3767 -0.1652  0.4482
  123MOL    C5841782   6.892   3.478   4.259  0.3670 -0.6371 -0.2120
  123MOL    C5941783   6.781   3.417   4.195  0.2602  0.3018  0.0247
  123MOL    C6041784   6.691   3.497   4.127 -0.4044 -0.0737  0.0814
  123MOL    O6141785   6.544   3.839   4.133 -0.9325 -0.3849 -0.3344
  123MOL    H6241786   6.676   3.708   3.852  0.7211  0.4783 -0.3182
  123MOL    H6341787   6.728   3.845   3.937 -1.2906  2.3777 -0.5920
  123MOL    H6441788   6.511   3.659   4.034  0.2365 -2.0662 -0.2485
  123MOL    H6541789   6.812   3.803   4.198 -2.0258 -0.0300  0.8880
  123MOL    H6641790   6.975   3.665   4.328 -2.2008  0.7054  1.8625
  123MOL    H6741791   6.967   3.414   4.304 -0.7009 -0.3517  2.0619
  123MOL    H6841792   6.777   3.309   4.200  1.8824  0.1799 -0.8060
  123MOL    H6941793   6.601   3.462   4.078 -0.3971  1.0574 -0.7583
  123MOL    C7041794   6.480   3.803   4.257 -0.1343  0.2304  0.1976
  123MOL    C7141795   6.332   3.780   4.238  0.5522  0.4178  0.4190
  123MOL    C7241796   6.273   3.910   4.178  0.2048  0.0393 -0.6152
  123MOL    C7341797   6.219   3.902   4.047  0.1600  0.6341 -0.7243
  123MOL    C7441798   6.161   4.018   3.993 -0.1759 -0.1365  0.7329
  123MOL    C7541799   6.158   4.142   4.069  0.1002  0.2706 -0.4470
  123MOL    C7641800   6.208   4.145   4.198 -0.1084  0.0346  0.0486
  123MOL    C7741801   6.269   4.028   4.250 -0.2492 -0.9318 -0.0307
  123MOL    O7841802   6.260   3.757   4.359 -0.3374 -0.5914  0.1006
  123MOL    H7941803   6.526   3.712   4.297 -2.4891 -1.1820 -0.2368
  123MOL    H8041804   6.502   3.877   4.335 -0.0957  1.1164 -0.6466
  123MOL    H8141805   6.323   3.691   4.176  5.0133  0.9247 -1.1601
  123MOL    H8241806   6.224   3.809   3.991  0.3479  0.3520 -0.2372
  123MOL    H8341807   6.128   4.012   3.890  1.1238 -1.5871  0.3871
  123MOL    H8441808   6.116   4.233   4.029  2.4638  1.0432 -1.2841
  123MOL    H8541809   6.206   4.242   4.246 -0.8556  1.2150 -2.2718
  123MOL    H8641810   6.308   4.035   4.350  0.9708 -1.6709 -0.4438
  123MOL    C8741811   6.145   3.672   4.332 -0.5936  0.3914  0.0708
  123MOL    C8841812   6.184   3.527   4.340  0.5941  0.3203 -0.0879
  123MOL    C8941813   6.296   3.488   4.436 -0.1648 -0.6569 -0.2871
  123MOL    C9041814   6.432   3.467   4.387  0.1021 -0.3183 -0.1214
  123MOL    C9141815   6.537   3.441   4.482  0.5913  0.1085 -0.0261
  123MOL    C9241816   6.499   3.420   4.616  0.1801  0.5647  0.6519
  123MOL    C9341817   6.370   3.432   4.663 -0.1190  0.3441 -0.8699
  123MOL    C9441818   6.269   3.466   4.573  0.4486  0.3957  0.3369
  123MOL    O9541819   6.223   3.474   4.210 -0.2289  0.3551 -0.2427
  123MOL    H9641820   6.071   3.700   4.257 -0.8352  1.6192  0.7495
  123MOL    H9741821   6.096   3.682   4.429 -0.4834 -1.1984  0.3020
  123MOL    H9841822   6.093   3.468   4.357  0.2487 -0.2577 -3.4934
  123MOL    H9941823   6.448   3.479   4.281 -2.5472 -0.4431 -0.5669
  123MOL   H10041824   6.640   3.431   4.451  1.2198 -1.2684  2.3927
  123MOL   H10141825   6.578   3.389   4.683  2.1764 -3.2092 -3.1720
  123MOL   H10241826   6.343   3.414   4.766  1.4136  2.9158  0.0319
  123MOL   H10341827   6.174   3.479   4.623  1.0045  1.3104  1.1573
  123MOL   C10441828   6.123   3.480   4.100  1.0819  0.9754  0.2961
  123MOL   C10541829   6.130   3.378   3.985 -0.0779 -0.3868 -0.0082
  123MOL   C10641830   6.268   3.381   3.926 -0.8293 -0.2881  0.7538
  123MOL   C10741831   6.325   3.495   3.854  0.8841  0.2431 -0.0789
  123MOL   C10841832   6.456   3.491   3.809  0.2050 -0.1247  0.2071
  123MOL   C10941833   6.527   3.373   3.815 -0.5829 -0.2555  1.0047
  123MOL   C11041834   6.467   3.250   3.869 -0.2792  0.0374 -0.5503
  123MOL   C11141835   6.341   3.260   3.930  0.3824  0.0666 -0.4322
  123MOL   O11241836   6.108   3.255   4.053  0.1891  0.1393  0.1856
  123MOL   H11341837   6.024   3.472   4.145  1.5368  0.2152  1.1784
  123MOL   H11441838   6.120   3.580   4.058 -0.5270  0.8273  0.0380
  123MOL   H11541839   6.061   3.400   3.904  0.4301 -0.6545 -0.5144
  123MOL   H11641840   6.276   3.591   3.850  1.9440  1.0355  3.6613
  123MOL   H11741841   6.510   3.573   3.765 -0.2112  1.2429  2.2071
  123MOL   H11841842   6.622   3.379   3.764 -1.5424 -0.5278 -0.8464
  123MOL   H11941843   6.519   3.156   3.875  0.6014  0.5962  1.1788
  123MOL   H12041844   6.300   3.166   3.966  0.1999 -0.0801 -1.0184
  123MOL   C12141845   5.972   3.217   4.039 -0.8649  0.2751 -0.9361
  123MOL   C12241846   5.949   3.089   4.126  0.4293 -0.0605 -0.5675
  123MOL   C12341847   5.971   3.113   4.278  0.8405 -0.0209  1.3125
  123MOL   C12441848   6.095   3.153   4.335  0.6664 -0.4383 -0.7625
  123MOL   C12541849   6.106   3.192   4.471 -0.2174 -0.2920  0.0373
  123MOL   C12641850   5.999   3.180   4.556 -0.0211 -0.6008 -0.1555
  123MOL   C12741851   5.879   3.129   4.499 -0.3307  0.2282  0.3793
  123MOL   C12841852   5.861   3.096   4.361 -0.2513  0.6017  0.0653
  123MOL   O12941853   5.826   3.028   4.087 -0.1667  0.0036 -0.0375
  123MOL   H13041854   5.952   3.182   3.938  1.7494 -2.2783 -0.6393
  123MOL   H13141855   5.901   3.293   4.074 -3.1004 -2.8249  1.5242
  123MOL   H13241856   6.032   3.021   4.105 -1.2519 -2.1711 -0.6450
  123MOL   H13341857   6.182   3.171   4.274  1.4367 -0.7381  0.2482
  123MOL   H13441858   6.200   3.224   4.513 -1.5695 -0.3038  3.1899
  123MOL   H13541859   5.998   3.204   4.661  0.4976  0.2807 -0.3544
  123MOL   H13641860   5.787   3.134   4.556 -1.0542  0.2216 -0.7561
  123MOL   H13741861   5.767   3.064   4.317  0.8831 -0.5765 -1.5590
  123MOL   C13841862   5.831   2.884   4.085 -1.1989 -0.3540 -0.2169
  123MOL   C13941863   5.692   2.838   4.041  0.3617 -0.3720  0.0824
  123MOL   C14041864   5.711   2.702   3.968 -0.4964  0.6307  0.0037
  123MOL   C14141865   5.777   2.596   4.032 -0.2235 -0.0237 -0.9673
  123MOL   C14241866   5.785   2.477   3.961  0.6934  1.3963  0.1117
  123MOL   C14341867   5.731   2.463   3.826  0.1896 -0.1409 -0.2684
  123MOL   C14441868   5.663   2.568   3.768 -0.2330 -0.2328  0.4225
  123MOL   C14541869   5.649   2.684   3.840 -0.7714  0.6599 -0.0158
  123MOL   O14641870   5.609   2.812   4.161  0.3804  0.2793 -0.2397
  123MOL   H14741871   5.863   2.844   4.181  1.6098  0.0995 -0.9281
  123MOL   H14841872   5.905   2.849   4.013  0.1900  1.2132  0.3903
  123MOL   H14941873   5.659   2.912   3.969 -1.8827  0.5203  1.9443
  123MOL   H15041874   5.809   2.593   4.135 -1.1110 -0.0298 -0.6902
  123MOL   H15141875   5.831   2.398   4.019  0.9777  1.9867  0.6979
  123MOL   H15241876   5.736   2.369   3.773  0.2847 -0.5011  0.3688
  123MOL   H15341877   5.621   2.560   3.669  2.0034  0.7406 -0.6426
  123MOL   H15441878   5.596   2.768   3.799 -1.0074  1.8664  2.6344
  123MOL   C15541879   5.470   2.783   4.146 -0.3392  0.3145  0.3365
  123MOL   C15641880   5.386   2.776   4.275 -0.5628 -0.2878 -0.0459
  123MOL   C15741881   5.370   2.907   4.346  0.0407 -0.7164  0.1891
  123MOL   C15841882   5.368   3.031   4.283 -0.1906  0.7044 -0.0805
  123MOL   C15941883   5.360   3.150   4.355  0.5136  0.7164  0.3295
  123MOL   C16041884   5.364   3.137   4.500  1.0507  0.1132  0.6499
  123MOL   C16141885   5.377   3.016   4.569 -0.1202 -0.1391 -0.3649
  123MOL   C16241886   5.375   2.906   4.488  0.1157 -0.0140 -0.2940
  123MOL   O16341887   5.261   2.727   4.234 -0.2078  0.0510  0.1519
  123MOL   H16441888   5.467   2.689   4.092 -0.8886  0.6683 -0.2483
  123MOL   H16541889   5.423   2.853   4.077  1.1243 -0.0277 -1.0359
  123MOL   H16641890   5.437   2.705   4.341 -0.6862  0.4073  0.7983
  123MOL   H16741891   5.366   3.030   4.175  0.8688  0.6974 -0.0983
  123MOL   H16841892   5.346   3.249   4.313 -0.7780  0.6477  0.5793
  123MOL   H16941893   5.353   3.225   4.561 -0.5471  0.1283  0.3728
  123MOL   H17041894   5.375   3.009   4.676 -0.3339  0.9565 -0.2945
  123MOL   H17141895   5.395   2.814   4.542 -0.4639  0.3663  0.5881
  123MOL   C17241896   5.170   2.697   4.341  0.0455  0.2522  0.0114
  123MOL   C17341897   5.077   2.583   4.291  0.5410 -0.2854 -0.3037
  123MOL   C17441898   4.983   2.644   4.188 -0.4578  0.0538 -0.2184
  123MOL   C17541899   4.878   2.723   4.230 -0.9007 -0.4688 -0.7097
  123MOL   C17641900   4.796   2.788   4.132 -0.6839  0.7148  0.3688
  123MOL   C17741901   4.817   2.764   3.993 -0.1302  0.5493  0.2416
  123MOL   C17841902   4.921   2.671   3.953  0.0774 -0.3998 -0.1663
  123MOL   C17941903   5.003   2.612   4.053 -0.3768  0.5589 -0.1787
  123MOL   O18041904   5.014   2.538   4.410 -0.0835  0.1487 -0.0860
  123MOL   H18141905   5.220   2.657   4.429  0.4862  3.1289  1.1260
  123MOL   H18241906   5.120   2.789   4.371 -0.2505  0.7590 -1.9335
  123MOL   H18341907   5.131   2.497   4.253  0.0959 -0.2503 -1.0323
  123MOL   H18441908   4.863   2.741   4.335  1.9815  0.0984 -0.3399
  123MOL   H18541909   4.723   2.860   4.166 -1.9258  0.1787 -1.1477
  123MOL   H18641910   4.767   2.830   3.923 -1.9791 -1.2048 -0.1522
  123MOL   H18741911   4.938   2.657   3.847  0.7409  2.2601 -0.4534
  123MOL   H18841912   5.083   2.547   4.021  2.0146  2.7089  1.2705
  123MOL   C18941913   4.924   2.429   4.396  0.8405  0.1542 -0.4032
  123MOL   C19041914   4.851   2.394   4.526 -0.5600  0.4308 -0.5509
  123MOL   C19141915   4.795   2.254   4.531 -0.0609 -0.9348  0.2719
  123MOL   C19241916   4.696   2.215   4.432  0.2739 -0.2612 -0.5006
  123MOL   C19341917   4.637   2.084   4.440 -0.3291 -0.2197 -0.6282
  123MOL   C19441918   4.666   2.000   4.549  0.4230  0.9267 -0.6217
  123MOL   C19541919   4.759   2.045   4.645 -0.2985  0.1458 -0.3855
  123MOL   C19641920   4.827   2.164   4.635 -0.6112  0.5874  0.4323
  123MOL   O19741921   4.757   2.498   4.542 -0.4446  0.4148 -0.4575
  123MOL   H19841922   4.848   2.444   4.319  1.0165  0.9896 -0.4297
  123MOL   H19941923   4.984   2.345   4.361  0.4556 -0.7106  0.9897
  123MOL   H20041924   4.927   2.399   4.605 -2.3729 -2.2277  1.4660
  123MOL   H20141925   4.674   2.271   4.342  0.2771  1.7530  0.7092
  123MOL   H20241926   4.568   2.058   4.361  0.5467  0.0078 -1.4768
  123MOL   H20341927   4.604   1.912   4.557  1.5541  0.1248 -0.6300
  123MOL   H20441928   4.780   1.991   4.736  0.6201  0.7332 -0.2404
  123MOL   H20541929   4.898   2.192   4.712  0.8493 -1.2810 -0.1765
  123MOL   C20641930   4.678   2.489   4.665 -0.1190 -0.8954 -0.0735
  123MOL   C20741931   4.572   2.595   4.676  0.7281 -0.2701 -0.4522
  123MOL   C20841932   4.617   2.738   4.644  0.3515  0.0555  0.4062
  123MOL   C20941933   4.622   2.785   4.512 -0.3725  0.3455  0.8303
  123MOL   C21041934   4.659   2.918   4.483 -0.0640  0.1363 -0.1226
  123MOL   C21141935   4.686   3.004   4.593  0.2370  0.6703  0.4901
  123MOL   C21241936   4.708   2.951   4.722 -0.0771 -0.0533 -0.1266
  123MOL   C21341937   4.668   2.822   4.747 -0.0503  0.5868 -0.0993
  123MOL   O21441938   4.524   2.592   4.814 -0.2011  0.0697 -0.7292
  123MOL   H21541939   4.631   2.392   4.678  1.7580 -1.6782  1.1839
  123MOL   H21641940   4.760   2.504   4.736 -0.3799 -0.9396  0.2361
  123MOL   H21741941   4.492   2.575   4.605  1.0423  0.9792 -1.1869
  123MOL   H21841942   4.599   2.722   4.427 -0.8897  1.8916 -0.1853
  123MOL   H21941943   4.662   2.962   4.384 -1.3072  1.9951  0.6380
  123MOL   H22041944   4.715   3.103   4.560 -0.8912  0.5144 -1.0475
  123MOL   H22141945   4.745   3.008   4.805 -1.3522 -0.3775  0.6704
  123MOL   H22241946   4.671   2.787   4.850  1.7849 -0.0306 -0.3378
  123MOL   C22341947   4.412   2.667   4.855 -0.0701 -0.4863  0.2167
  123MOL   C22441948   4.376   2.655   5.011  0.0174 -0.2433  0.2742
  123MOL   C22541949   4.476   2.724   5.106 -0.9810 -0.0219  0.0205
  123MOL   C22641950   4.443   2.852   5.144 -0.0505 -0.1439  0.7318
  123MOL   C22741951   4.533   2.924   5.230 -0.2610 -0.0240 -0.1474
  123MOL   C22841952   4.653   2.872   5.270  0.1395  0.0707  0.2325
  123MOL   C22941953   4.691   2.749   5.219  0.3753 -0.4550 -0.8039
  123MOL   C23041954   4.604   2.672   5.136  0.4192  0.1595 -0.3576
  123MOL   O23141955   4.240   2.701   5.022  0.1864  0.1608 -0.5589
  123MOL   H23241956   4.418   2.773   4.829 -1.4860 -0.0158  1.7730
  123MOL   H23341957   4.326   2.631   4.799 -1.8022 -0.2626  2.6848
  123MOL   H23441958   4.371   2.551   5.040  0.4357 -0.3539 -0.0460
  123MOL   H23541959   4.350   2.898   5.116  1.6127  2.4388 -0.7501
  123MOL   H23641960   4.497   3.019   5.265  0.6385 -0.1408  1.1089
  123MOL   H23741961   4.722   2.929   5.330  0.4796 -1.1538  1.0235
  123MOL   H23841962   4.794   2.717   5.222 -0.3357 -2.8200 -0.6962
  123MOL   H23941963   4.639   2.580   5.091 -2.1016 -0.5096 -1.0320
  123MOL   C24041964   4.169   2.663   5.134 -0.3954 -0.1806  0.4136
  123MOL   C24141965   4.099   2.532   5.111 -0.1084  0.8320 -0.4957
  123MOL   C24241966   3.989   2.550   5.007 -0.6902  0.0059  0.7785
  123MOL   C24341967   3.871   2.611   5.047  0.1961  0.4354 -0.2075
  123MOL   C24441968   3.761   2.634   4.957 -0.4132 -0.1781 -0.1624
  123MOL   C24541969   3.772   2.572   4.832 -0.9698  0.1227 -0.1937
  123MOL   C24641970   3.891   2.503   4.790 -0.2504  0.3281  0.4457
  123MOL   C24741971   3.999   2.499   4.876  0.1364 -0.0446 -0.2716
  123MOL   O24841972   4.197   2.438   5.068 -0.0913  0.1033  0.1307
  123MOL   H24941973   4.242   2.637   5.211 -1.7782 -2.7712  0.9145
  123MOL   H25041974   4.104   2.741   5.173  1.6658  1.9779 -0.3803
  123MOL   H25141975   4.050   2.502   5.204  0.4772 -1.7844 -0.9824
  123MOL   H25241976   3.860   2.658   5.144 -1.4466 -1.5978  0.6422
  123MOL   H25341977   3.669   2.684   4.984 -0.8434 -0.5042 -1.0077
  123MOL   H25441978   3.681   2.577   4.774 -1.6697  2.8939  1.0176
  123MOL   H25541979   3.889   2.473   4.686  0.2691 -0.4913  0.6660
  123MOL   H25641980   4.092   2.454   4.842  0.5638  0.9741 -0.4643
  123MOL   C25741981   4.167   2.298   5.086  0.3041 -0.7062 -0.1807
  123MOL   C25841982   4.276   2.213   5.013 -1.0854  0.2987 -0.2725
  123MOL   C25941983   4.253   2.209   4.859 -0.8498  0.0758  0.5051
  123MOL   C26041984   4.129   2.173   4.808  0.7967 -0.1018  0.3834
  123MOL   C26141985   4.100   2.196   4.672 -0.2236  0.0835 -0.7204
  123MOL   C26241986   4.207   2.237   4.586  0.5189  0.4115 -0.1808
  123MOL   C26341987   4.332   2.262   4.641 -0.1326 -0.6931  0.2661
  123MOL   C26441988   4.361   2.244   4.778 -0.1528  0.0971  0.6832
  123MOL   O26541989   4.272   2.082   5.068 -0.0895 -0.1474  0.3234
  123MOL   H26641990   4.063   2.272   5.066 -0.5160 -0.1413  3.0622
  123MOL   H26741991   4.173   2.278   5.192  2.1885 -2.5848 -0.6042
  123MOL   H26841992   4.374   2.255   5.037 -0.5059 -1.2809  0.1960
  123MOL   H26941993   4.049   2.144   4.873  2.1392 -2.9195  0.8614
  123MOL   H27041994   4.002   2.173   4.634 -0.6979 -0.7706  0.9503
  123MOL   H27141995   4.178   2.251   4.482 -0.7334  0.2149  0.1268
  123MOL   H27241996   4.413   2.284   4.573  2.2610 -0.9950  2.9242
  123MOL   H27341997   4.455   2.263   4.829 -0.5427 -0.3439  1.5815
  123MOL   C27441998   4.340   2.069   5.191  0.3555 -0.5785  0.1317
  123MOL   C27541999   4.445   1.966   5.166 -0.2905  0.4130 -1.0019
  123MOL   C27642000   4.506   1.916   5.290 -0.7345  0.4287  1.2396
  123MOL   C27742001   4.617   1.984   5.347  0.5634  0.2116  0.3692
  123MOL   C27842002   4.689   1.932   5.461  0.2209  0.4667 -0.2132
  123MOL   C27942003   4.644   1.807   5.512 -0.0756 -0.2072  0.3297
  123MOL   C28042004   4.538   1.741   5.457  0.0317 -0.9554  0.2278
  123MOL   C28142005   4.465   1.801   5.353 -0.1591  0.1556 -0.6827
  123MOL   O28242006   4.541   2.043   5.089 -0.0428  0.0398 -0.4459
  123MOL   H28342007   4.392   2.158   5.226 -0.0315 -0.3863  0.2201
  123MOL   H28442008   4.273   2.034   5.270  0.2991 -1.0851 -0.1411
  123MOL   H28542009   4.404   1.881   5.111  0.7578 -1.7497  1.4415
  123MOL   H28642010   4.642   2.078   5.302  0.0639 -0.4305 -1.3063
  123MOL   H28742011   4.768   1.987   5.511  0.3648 -1.4485  1.7247
  123MOL   H28842012   4.701   1.768   5.596  0.6215  0.2290  0.0644
  123MOL   H28942013   4.511   1.650   5.509 -1.0520 -2.2401 -2.4914
  123MOL   H29042014   4.376   1.749   5.319 -0.8948  0.4122  0.8164
  123MOL   C29142015   4.596   1.971   4.978  0.1378  0.2306  0.0403
  123MOL   C29242016   4.703   1.855   5.011  0.0459 -0.0605  0.2522
  123MOL   C29342017   4.823   1.900   5.094  0.6896 -0.1937 -0.0573
  123MOL   C29442018   4.894   1.803   5.169 -0.2454  0.1858  0.1989
  123MOL   C29542019   5.005   1.841   5.251 -0.7395 -0.4938  0.2677
  123MOL   C29642020   5.043   1.980   5.260 -0.0075 -0.2714 -0.0713
  123MOL   C29742021   4.976   2.078   5.177 -0.3438 -0.1774 -0.5854
  123MOL   C29842022   4.867   2.034   5.095 -0.8279  0.1744  0.1746
  123MOL   O29942023   4.647   1.730   5.054 -0.4341  0.0599  0.7320
  123MOL   H30042024   4.658   2.045   4.928  1.1889 -0.7488 -0.1427
  123MOL   H30142025   4.513   1.935   4.916  0.1786 -1.1382  0.7626
  123MOL   H30242026   4.748   1.821   4.918  0.4589 -1.2310  0.8780
  123MOL   H30342027   4.876   1.697   5.153  1.4325 -0.0965  0.1208
  123MOL   H30442028   5.052   1.766   5.313 -0.0434 -0.0162  0.3217
  123MOL   H30542029   5.120   2.013   5.327 -0.4293  0.6552 -0.0410
  123MOL   H30642030   5.000   2.183   5.177  0.7217 -0.4114 -1.2379
  123MOL   H30742031   4.826   2.110   5.029 -2.3264  0.4763  1.4094
  123MOL   C30842032   4.563   1.665   4.958 -0.2710 -0.7082  0.3260
  123MOL   C30942033   4.534   1.521   5.009 -0.3398  0.0114 -0.5193
  123MOL   C31042034   4.434   1.453   4.914  0.2617 -0.1560 -0.6236
  123MOL   C31142035   4.478   1.363   4.813  0.1303  0.4657  0.0749
  123MOL   C31242036   4.382   1.289   4.737  0.0920 -0.5738 -0.2536
  123MOL   C31342037   4.244   1.314   4.761  0.3453  0.6833 -0.5549
  123MOL   C31442038   4.197   1.404   4.856  0.6481 -0.5345  0.2649
  123MOL   C31542039   4.295   1.477   4.934 -0.2060 -0.6675 -0.1301
  123MOL   O31642040   4.655   1.452   5.007 -0.5127 -0.7554 -0.1925
  123MOL   H31742041   4.606   1.661   4.858 -1.5117  1.1550 -0.3033
  123MOL   H31842042   4.472   1.725   4.952  1.9135  3.0400  2.7690
  123MOL   H31942043   4.493   1.521   5.110 -1.8386 -0.8552 -1.1098
  123MOL   H32042044   4.583   1.343   4.804 -0.2003 -0.5430 -2.0310
  123MOL   H32142045   4.421   1.218   4.666 -0.1146 -1.9868  1.0101
  123MOL   H32242046   4.174   1.263   4.697  0.3523  0.4289 -0.3597
  123MOL   H32342047   4.093   1.408   4.885  0.9563  1.0459  1.1985
  123MOL   H32442048   4.263   1.538   5.018 -1.8827 -0.7219 -0.7072
  123MOL   C32542049   4.710   1.410   5.134  0.3255 -0.6744 -0.0595
  123MOL   C32642050   4.834   1.321   5.084  0.5171 -0.4387  1.0733
  123MOL   C32742051   4.780   1.209   4.994  0.1841  0.8472 -0.3945
  123MOL   C32842052   4.829   1.188   4.862 -0.1771  0.2534  0.1515
  123MOL   C32942053   4.787   1.079   4.778 -0.0222  0.1591  0.6516
  123MOL   C33042054   4.705   0.978   4.841  0.1418  0.1561 -0.4600
  123MOL   C33142055   4.654   1.003   4.968 -0.4841  0.1314  0.9962
  123MOL   C33242056   4.690   1.111   5.042 -0.0738 -0.3463  0.7795
  123MOL   O33342057   4.929   1.400   5.013  0.2112 -0.4201 -0.2460
  123MOL   H33442058   4.650   1.352   5.204  2.0999  0.5142  2.5320
  123MOL   H33542059   4.748   1.487   5.200  1.0948 -0.0035 -1.2672
  123MOL   H33642060   4.880   1.273   5.170 -0.6762 -3.0632  0.3014
  123MOL   H33742061   4.901   1.261   4.826  2.1213 -2.3854 -0.7817
  123MOL   H33842062   4.831   1.065   4.680  0.0205 -1.1767  0.8489
  123MOL   H33942063   4.677   0.893   4.781  1.3104  0.3091 -1.2393
  123MOL   H34042064   4.587   0.933   5.016 -0.9107  0.4932  0.9307
  123MOL   H34142065   4.654   1.121   5.143  2.1719  0.4619  1.5434
  123MOL   H34242066   4.861   1.448   4.968  0.6556  0.5072  0.0430
  124MOL     C142067   6.444   5.685   0.863  0.0942 -0.0220  0.5689
  124MOL     C242068   6.316   5.625   0.926  0.0680 -0.3919 -0.1515
  124MOL     C342069   6.205   5.724   0.891  0.2327  0.6289  0.7277
  124MOL     C442070   6.107   5.682   0.797  0.5801  0.3291 -0.4177
  124MOL     C542071   6.011   5.775   0.769  0.2872 -0.8670  0.3076
  124MOL     C642072   6.000   5.903   0.835 -0.1254 -0.0878  0.6214
  124MOL     C742073   6.099   5.943   0.928  0.1561  0.2803  0.4539
  124MOL     C842074   6.202   5.849   0.954 -0.1805  0.8744  0.7343
  124MOL     O942075   6.332   5.619   1.068 -0.3412  0.8086 -0.4266
  124MOL    H1042076   6.429   5.685   0.755 -0.8858  1.6850  0.6817
  124MOL    H1142077   6.452   5.789   0.895  2.1734  0.1424 -0.4329
  124MOL    H1242078   6.302   5.523   0.893 -0.4998 -1.0160  1.9454
  124MOL    H1342079   6.099   5.581   0.759  1.9846 -0.5033  1.3897
  124MOL    H1442080   5.932   5.745   0.703  1.6276  0.4913 -1.9595
  124MOL    H1542081   5.919   5.971   0.812  0.5364  1.2020  2.0125
  124MOL    H1642082   6.095   6.032   0.987 -2.3548  0.4869  0.0176
  124MOL    H1742083   6.286   5.880   1.014  1.1013  1.0895 -1.1329
  124MOL    H1842084   6.537   5.632   0.882 -0.7450 -1.4252  0.8684
  124MOL    C1942085   6.211   5.574   1.131 -0.3218 -0.0243 -0.1617
  124MOL    C2042086   6.237   5.556   1.281  0.1027  0.3333 -0.6499
  124MOL    C2142087   6.330   5.662   1.338  0.2398  0.1127 -0.7035
  124MOL    C2242088   6.283   5.785   1.397  0.1797 -0.0493 -0.1178
  124MOL    C2342089   6.368   5.883   1.444  0.1215  0.9552 -0.0418
  124MOL    C2442090   6.508   5.852   1.444  0.3231 -0.2347  0.2052
  124MOL    C2542091   6.559   5.733   1.403 -0.0519  0.4297 -0.1962
  124MOL    C2642092   6.471   5.639   1.347 -0.4074 -0.9454 -0.4821
  124MOL    O2742093   6.269   5.427   1.311  0.0314 -0.1121  0.3923
  124MOL    H2842094   6.124   5.637   1.118  0.3750  0.6328 -1.8187
  124MOL    H2942095   6.172   5.479   1.094 -2.1204  1.1825 -1.4355
  124MOL    H3042096   6.146   5.588   1.332 -0.1172 -0.5432 -0.4969
  124MOL    H3142097   6.179   5.802   1.421  0.3419  0.0393  0.5242
  124MOL    H3242098   6.328   5.975   1.483 -1.2009  0.3767 -0.0356
  124MOL    H3342099   6.573   5.923   1.494 -0.1676  1.1895 -1.1285
  124MOL    H3442100   6.665   5.711   1.407 -0.2480 -0.8445 -1.7623
  124MOL    H3542101   6.522   5.550   1.314  2.7411  0.3566  0.7047
  124MOL    C3642102   6.252   5.393   1.449 -0.1256  0.2180 -0.0891
  124MOL    C3742103   6.111   5.362   1.497 -0.1102 -0.2454  0.3301
  124MOL    C3842104   6.036   5.262   1.408  0.2320  0.3156 -0.9445
  124MOL    C3942105   6.034   5.123   1.439  0.1309 -0.7022  0.4039
  124MOL    C4042106   5.973   5.032   1.350  0.3397 -0.5221 -0.5138
  124MOL    C4142107   5.903   5.084   1.237  0.0199 -0.0582  0.1330
  124MOL    C4242108   5.896   5.223   1.215 -0.0944  0.5259  0.5793
  124MOL    C4342109   5.963   5.316   1.298 -0.4350  0.0181 -0.1238
  124MOL    O4442110   6.050   5.490   1.520 -0.0043 -0.0071  0.3811
  124MOL    H4542111   6.310   5.301   1.454 -0.2815  0.0027 -1.8498
  124MOL    H4642112   6.300   5.459   1.520  1.0133 -1.6479  0.9052
  124MOL    H4742113   6.128   5.316   1.594  0.7534  0.1311  0.3692
  124MOL    H4842114   6.092   5.083   1.521  2.0817  2.7719  0.8164
  124MOL    H4942115   5.974   4.926   1.371  0.7393 -0.0801  1.8893
  124MOL    H5042116   5.851   5.017   1.170 -0.3742 -1.4480  1.7858
  124MOL    H5142117   5.839   5.250   1.127 -2.8645 -2.4846  1.3626
  124MOL    H5242118   5.955   5.420   1.271 -2.5746 -0.4514 -1.4496
  124MOL    C5342119   5.940   5.502   1.607  1.1061  0.1824 -0.1575
  124MOL    C5442120   5.885   5.640   1.624  0.1236  0.4120 -0.5138
  124MOL    C5542121   5.977   5.738   1.693 -0.4228 -0.5066 -0.4256
  124MOL    C5642122   5.929   5.867   1.723 -0.4074 -0.8504  0.2812
  124MOL    C5742123   6.013   5.966   1.799  0.3988  0.4029  0.0398
  124MOL    C5842124   6.146   5.937   1.822 -0.2240 -0.2370  0.0130
  124MOL    C5942125   6.194   5.815   1.776  0.0954  0.2777  0.0855
  124MOL    C6042126   6.114   5.718   1.714  0.0440 -0.1139  0.7130
  124MOL    O6142127   5.811   5.695   1.520 -0.0147 -0.1405  0.1336
  124MOL    H6242128   5.855   5.444   1.570  1.2429 -0.5268  0.6351
  124MOL    H6342129   5.965   5.458   1.703 -0.8414 -0.9282 -0.1210
  124MOL    H6442130   5.807   5.629   1.700 -1.2644  0.5271 -1.9132
  124MOL    H6542131   5.826   5.895   1.708  0.2881  1.4212 -0.5927
  124MOL    H6642132   5.973   6.064   1.823 -0.4325  0.6519 -2.1801
  124MOL    H6742133   6.206   6.011   1.874 -0.8945  0.6505 -0.4633
  124MOL    H6842134   6.297   5.787   1.797 -0.3927 -0.2004  1.9324
  124MOL    H6942135   6.157   5.622   1.691 -0.4327  0.0997 -1.1791
  124MOL    C7042136   5.886   5.767   1.416  0.2657 -0.2435 -1.1089
  124MOL    C7142137   5.802   5.784   1.292  0.5253  0.6844 -0.3453
  124MOL    C7242138   5.677   5.878   1.324 -0.4197  0.7826 -0.2788
  124MOL    C7342139   5.694   6.016   1.353  0.0648 -0.7028 -0.2321
  124MOL    C7442140   5.584   6.094   1.396 -0.5401  0.1121  0.7780
  124MOL    C7542141   5.460   6.040   1.388  0.7708  0.6177 -0.8721
  124MOL    C7642142   5.434   5.908   1.351 -0.4254 -0.3526 -0.1267
  124MOL    C7742143   5.546   5.818   1.325  0.4455 -0.1467 -0.3702
  124MOL    O7842144   5.773   5.658   1.234 -0.4390 -0.6682  0.3104
  124MOL    H7942145   5.913   5.864   1.457 -0.9196  0.1156 -1.1554
  124MOL    H8042146   5.977   5.715   1.385 -0.2298 -1.0616 -1.2267
  124MOL    H8142147   5.860   5.843   1.221 -0.7875  0.5099 -1.5827
  124MOL    H8242148   5.795   6.051   1.369 -0.0189 -1.2373  1.6610
  124MOL    H8342149   5.596   6.200   1.413 -1.3806  0.2680  0.4455
  124MOL    H8442150   5.375   6.106   1.399  0.2431 -0.4207  1.4679
  124MOL    H8542151   5.333   5.872   1.341 -0.6940  0.3689 -0.0367
  124MOL    H8642152   5.531   5.716   1.293  1.3170  0.0991 -1.5797
  124MOL    C8742153   5.749   5.674   1.098  0.6206 -0.1528 -0.3755
  124MOL    C8842154   5.694   5.546   1.039 -0.5902 -0.3179 -0.3332
  124MOL    C8942155   5.697   5.536   0.889  0.7814  0.2351 -0.8425
  124MOL    C9042156   5.573   5.545   0.818 -0.4875  0.4843  0.3507
  124MOL    C9142157   5.569   5.532   0.675  0.5261  0.1624  0.4286
  124MOL    C9242158   5.689   5.505   0.603 -0.5316  0.0685  0.2468
  124MOL    C9342159   5.804   5.493   0.679 -0.0531  0.2707 -0.1502
  124MOL    C9442160   5.811   5.515   0.819 -0.2641 -0.4662  0.6650
  124MOL    O9542161   5.559   5.528   1.087  0.2545 -0.5027  0.0830
  124MOL    H9642162   5.841   5.706   1.050  0.3609 -0.7445 -1.2914
  124MOL    H9742163   5.674   5.749   1.071  1.0255  0.4916  0.2782
  124MOL    H9842164   5.763   5.476   1.087 -1.8045 -0.1613  1.7137
  124MOL    H9942165   5.482   5.564   0.872 -0.7368 -0.5575  0.3035
  124MOL   H10042166   5.471   5.538   0.631  0.8712  3.2366  0.0047
  124MOL   H10142167   5.691   5.495   0.495  1.4425 -1.1189  0.3761
  124MOL   H10242168   5.895   5.467   0.626 -0.2053  1.4246 -0.9859
  124MOL   H10342169   5.905   5.504   0.872 -1.0383 -2.5366  1.6595
  124MOL   C10442170   5.516   5.395   1.094 -0.2546  0.5326 -0.3765
  124MOL   C10542171   5.523   5.336   1.232 -0.3550 -0.2091 -0.4319
  124MOL   C10642172   5.462   5.425   1.339 -0.4927  0.6917  0.7347
  124MOL   C10742173   5.328   5.427   1.359  0.1410  0.1812 -0.2927
  124MOL   C10842174   5.271   5.500   1.461  0.0679 -0.4171 -0.2898
  124MOL   C10942175   5.352   5.571   1.558  0.1422 -0.2737 -0.3230
  124MOL   C11042176   5.492   5.579   1.528  0.6555 -0.7756  0.1476
  124MOL   C11142177   5.547   5.505   1.419  0.4642 -0.4775 -0.3486
  124MOL   O11242178   5.466   5.208   1.225  0.8009 -0.2145 -0.1911
  124MOL   H11342179   5.415   5.387   1.054 -1.0341  1.2286  1.4055
  124MOL   H11442180   5.574   5.331   1.028  0.6737  0.9050  0.0731
  124MOL   H11542181   5.629   5.342   1.256 -0.8274 -0.1335  1.7605
  124MOL   H11642182   5.261   5.372   1.293 -1.3805 -1.0280  2.1992
  124MOL   H11742183   5.164   5.512   1.467  0.0977 -0.8733  1.2702
  124MOL   H11842184   5.308   5.636   1.631  0.7515 -0.4573  0.2123
  124MOL   H11942185   5.554   5.644   1.588 -0.3734  0.1218  0.2685
  124MOL   H12042186   5.652   5.499   1.394  0.4009 -0.4773 -0.6149
  124MOL   C12142187   5.563   5.104   1.249 -0.1121 -0.5497  0.4537
  124MOL   C12242188   5.497   4.964   1.277 -0.5584 -0.7150 -0.4299
  124MOL   C12342189   5.595   4.848   1.243 -0.2263 -0.1116  0.8283
  124MOL   C12442190   5.682   4.800   1.346 -0.4082 -0.1306 -0.2483
  124MOL   C12542191   5.761   4.688   1.330 -0.4708 -0.5237  0.1110
  124MOL   C12642192   5.749   4.615   1.207 -0.5726  0.0163  0.4105
  124MOL   C12742193   5.660   4.651   1.105 -0.4700 -0.3040 -0.3922
  124MOL   C12842194   5.583   4.768   1.124 -0.0231 -0.3767  0.3158
  124MOL   O12942195   5.459   4.953   1.413 -0.3352 -0.3802  0.4022
  124MOL   H13042196   5.636   5.126   1.327 -0.6041 -1.0326  1.0527
  124MOL   H13142197   5.626   5.102   1.160 -1.0860  0.7457 -0.2849
  124MOL   H13242198   5.410   4.969   1.210  0.6055 -1.3430 -2.0178
  124MOL   H13342199   5.686   4.858   1.437  1.9858 -0.8976  0.1827
  124MOL   H13442200   5.829   4.647   1.404 -0.4306 -1.5579 -0.4940
  124MOL   H13542201   5.822   4.536   1.196 -0.5295 -0.2461  2.3319
  124MOL   H13642202   5.656   4.602   1.009 -0.7436 -0.6475 -0.2068
  124MOL   H13742203   5.514   4.798   1.047  0.9679 -1.4017 -0.9895
  124MOL   C13842204   5.355   4.853   1.432 -0.5768 -0.0220  0.0595
  124MOL   C13942205   5.304   4.845   1.575 -0.3288 -0.1988 -0.6712
  124MOL   C14042206   5.411   4.791   1.662  1.0128  1.0210  0.1137
  124MOL   C14142207   5.504   4.880   1.725 -0.2054 -0.5374  0.0495
  124MOL   C14242208   5.611   4.831   1.808 -0.4875 -0.0654 -0.2104
  124MOL   C14342209   5.634   4.695   1.818  0.4734  1.1710  0.1856
  124MOL   C14442210   5.542   4.609   1.747 -0.5781  1.1054  0.1076
  124MOL   C14542211   5.435   4.653   1.671 -0.0425  0.3866 -0.3818
  124MOL   O14642212   5.266   4.980   1.607  0.0669  0.6592 -0.1812
  124MOL   H14742213   5.391   4.754   1.406  0.5333  0.3003  0.3302
  124MOL   H14842214   5.270   4.868   1.366 -2.2369 -0.8652  1.9460
  124MOL   H14942215   5.217   4.781   1.593  0.8202 -0.9029  2.8394
  124MOL   H15042216   5.493   4.987   1.721 -0.1691 -0.4375  1.9454
  124MOL   H15142217   5.673   4.895   1.869 -1.2496  0.3476  0.1390
  124MOL   H15242218   5.718   4.658   1.875 -0.8292  1.0562  2.0782
  124MOL   H15342219   5.563   4.503   1.742  0.9898  1.4303 -0.2570
  124MOL   H15442220   5.396   4.578   1.605 -0.2724  2.2388 -2.3887
  124MOL   C15542221   5.128   5.000   1.585  1.1922  0.0427  0.7132
  124MOL   C15642222   5.091   5.153   1.585  0.7192 -0.0046 -0.0056
  124MOL   C15742223   4.968   5.198   1.511 -0.1353  0.2452 -0.3513
  124MOL   C15842224   4.967   5.235   1.376 -0.5716  0.5893  0.2939
  124MOL   C15942225   4.846   5.269   1.306 -0.0894 -0.4728 -0.0665
  124MOL   C16042226   4.723   5.263   1.370 -0.0489  0.3184 -0.4475
  124MOL   C16142227   4.722   5.217   1.505  0.4043 -0.4499 -0.3971
  124MOL   C16242228   4.841   5.180   1.565 -0.1949 -0.4654 -0.4282
  124MOL   O16342229   5.091   5.208   1.724  0.1473 -0.1974  0.3797
  124MOL   H16442230   5.074   4.937   1.655  2.0156 -0.4964  0.8731
  124MOL   H16542231   5.092   4.962   1.490  2.4416 -1.9360  1.0069
  124MOL   H16642232   5.170   5.211   1.539  0.1151 -0.0574 -1.1293
  124MOL   H16742233   5.056   5.242   1.317 -1.1109  1.9156 -0.3874
  124MOL   H16842234   4.857   5.304   1.205 -1.1430  0.3406  0.0939
  124MOL   H16942235   4.626   5.283   1.327  0.6865  2.0576 -1.3381
  124MOL   H17042236   4.628   5.207   1.557  1.1735 -0.3189  1.0335
  124MOL   H17142237   4.835   5.137   1.664  1.5885 -0.6032 -0.3686
  124MOL   C17242238   5.078   5.347   1.742  0.4449  0.3882  0.2100
  124MOL   C17342239   5.034   5.378   1.887  0.0265  0.0345 -0.5095
  124MOL   C17442240   4.887   5.349   1.916  0.0769 -0.1870 -0.7796
  124MOL   C17542241   4.797   5.454   1.923  0.2398 -0.0331 -0.1013
  124MOL   C17642242   4.660   5.436   1.964 -0.2567  0.2077  0.5035
  124MOL   C17742243   4.622   5.304   1.996  0.5648 -0.0325 -1.1355
  124MOL   C17842244   4.712   5.196   1.971  0.0627 -0.4631 -0.2769
  124MOL   C17942245   4.842   5.220   1.926 -0.4811 -0.5124  0.2415
  124MOL   O18042246   5.063   5.512   1.917 -0.3716  0.6266 -0.5086
  124MOL   H18142247   5.178   5.388   1.727  0.5894  1.1102  2.9438
  124MOL   H18242248   5.015   5.402   1.672 -0.2621 -0.8476 -0.1362
  124MOL   H18342249   5.091   5.306   1.946 -1.3775  0.2352  1.1252
  124MOL   H18442250   4.825   5.557   1.906 -1.0708  0.5727  1.3176
  124MOL   H18542251   4.588   5.517   1.959  0.3109  0.7106  0.2818
  124MOL   H18642252   4.519   5.277   2.012  0.6218  0.5850  0.3200
  124MOL   H18742253   4.679   5.094   1.984 -0.0474 -0.2410  1.3694
  124MOL   H18842254   4.912   5.138   1.919  0.2977 -0.0297  1.9671
  124MOL   C18942255   5.182   5.529   1.998 -0.4217  0.1671 -0.7297
  124MOL   C19042256   5.158   5.653   2.090  0.3501 -0.4100  0.4406
  124MOL   C19142257   5.135   5.783   2.003 -0.8139  0.2999  0.8435
  124MOL   C19242258   5.011   5.843   2.005  0.4867  0.7290 -0.0934
  124MOL   C19342259   4.978   5.961   1.940 -0.3674  0.4440  0.2704
  124MOL   C19442260   5.081   6.024   1.864  0.1437 -0.2895  0.3956
  124MOL   C19542261   5.205   5.957   1.852 -0.5623  0.0912 -0.7971
  124MOL   C19642262   5.237   5.838   1.924  0.4901  0.2526  0.0468
  124MOL   O19742263   5.286   5.668   2.163  0.3155 -0.4517  0.2410
  124MOL   H19842264   5.203   5.443   2.062  4.0532  0.7583 -1.2145
  124MOL   H19942265   5.267   5.536   1.930  1.1097 -1.9171  0.8859
  124MOL   H20042266   5.078   5.634   2.161  0.1738  0.8129  0.5665
  124MOL   H20142267   4.936   5.802   2.071  0.0429  2.4237  0.4728
  124MOL   H20242268   4.877   5.997   1.946 -1.6761 -3.2490  2.0113
  124MOL   H20342269   5.063   6.117   1.813  0.9269  0.4523  1.4574
  124MOL   H20442270   5.286   5.993   1.790  0.1038  3.0354  1.6375
  124MOL   H20542271   5.335   5.793   1.921  0.5738  0.2702  2.1796
  124MOL   C20642272   5.297   5.774   2.261 -0.2169 -0.7234  0.7045
  124MOL   C20742273   5.437   5.766   2.321  0.0426  0.1261 -0.2862
  124MOL   C20842274   5.459   5.871   2.433  0.5507  0.2357 -0.3088
  124MOL   C20942275   5.457   5.825   2.571 -0.1474 -0.1127 -0.1156
  124MOL   C21042276   5.482   5.914   2.671  0.4356 -0.6073 -0.0476
  124MOL   C21142277   5.483   6.054   2.644  0.2818  0.3060 -0.7952
  124MOL   C21242278   5.483   6.098   2.509  0.2508  0.2885 -0.2204
  124MOL   C21342279   5.477   6.006   2.405  0.4002  0.0765  0.1762
  124MOL   O21442280   5.535   5.790   2.221  0.0363  0.6426  0.3324
  124MOL   H21542281   5.295   5.875   2.222  1.8543 -1.0421 -0.3281
  124MOL   H21642282   5.213   5.767   2.330 -1.4079 -0.3063 -0.7037
  124MOL   H21742283   5.447   5.670   2.371 -3.1215  1.2055  2.5736
  124MOL   H21842284   5.444   5.721   2.597 -0.2348 -0.1446 -0.2888
  124MOL   H21942285   5.480   5.873   2.771  0.5643 -2.3461 -0.7251
  124MOL   H22042286   5.490   6.121   2.728  0.2127  1.5278 -1.7476
  124MOL   H22142287   5.491   6.204   2.492 -0.1808  0.6448  1.6214
  124MOL   H22242288   5.492   6.036   2.302  0.3741  1.9539  0.7010
  124MOL   C22342289   5.586   5.675   2.147  0.7367 -0.1029  0.2169
  124MOL   C22442290   5.701   5.730   2.058 -0.5028 -0.2105 -1.0992
  124MOL   C22542291   5.663   5.846   1.966 -0.3511  0.0590 -0.1352
  124MOL   C22642292   5.608   5.816   1.843 -0.2949  0.4941  0.0752
  124MOL   C22742293   5.562   5.924   1.765 -0.8883  0.0431 -0.6318
  124MOL   C22842294   5.555   6.059   1.807 -0.1554  0.6257  0.0009
  124MOL   C22942295   5.618   6.091   1.930 -0.2693  0.0363 -0.3956
  124MOL   C23042296   5.675   5.983   2.001 -0.2217  0.2822  0.1115
  124MOL   O23142297   5.807   5.753   2.145  0.5673  0.0510 -0.4339
  124MOL   H23242298   5.629   5.604   2.217  0.0875 -1.6351 -0.8965
  124MOL   H23342299   5.507   5.625   2.090  1.4782  0.8207 -1.6716
  124MOL   H23442300   5.730   5.643   1.999  2.1153  0.2649 -0.5776
  124MOL   H23542301   5.625   5.714   1.812 -0.9037 -0.4833  2.7541
  124MOL   H23642302   5.527   5.893   1.668 -1.6701  2.4047 -1.1340
  124MOL   H23742303   5.514   6.136   1.743  1.2477  1.8519  0.5412
  124MOL   H23842304   5.628   6.193   1.963 -0.0059 -0.2113  0.2987
  124MOL   H23942305   5.707   6.009   2.101 -1.6202  0.6560  0.4847
  124MOL   C24042306   5.931   5.758   2.083 -0.5363 -0.2253 -0.2225
  124MOL   C24142307   6.039   5.804   2.186  0.3650 -0.7197  0.3652
  124MOL   C24242308   6.009   5.947   2.245 -0.0238  0.7850 -0.3606
  124MOL   C24342309   6.089   6.056   2.215 -0.0419  0.0692  0.4497
  124MOL   C24442310   6.068   6.182   2.273 -0.2411  0.1809 -0.3218
  124MOL   C24542311   5.951   6.203   2.352 -0.1876  0.7432 -0.0357
  124MOL   C24642312   5.875   6.092   2.393  0.3274  0.2626 -0.2927
  124MOL   C24742313   5.900   5.971   2.336 -0.7427 -0.1193 -0.1866
  124MOL   O24842314   6.039   5.707   2.283 -0.2659  0.6025 -0.2096
  124MOL   H24942315   5.958   5.670   2.025  2.1457  0.8539 -0.7185
  124MOL   H25042316   5.928   5.848   2.021 -1.0003  0.8681  1.3508
  124MOL   H25142317   6.142   5.808   2.150  0.2681  0.3520  0.1875
  124MOL   H25242318   6.179   6.031   2.160  0.0870  1.5830 -0.0355
  124MOL   H25342319   6.136   6.266   2.265  2.1862 -1.6682  0.3141
  124MOL   H25442320   5.933   6.303   2.390 -1.6819 -0.4012  2.3758
  124MOL   H25542321   5.789   6.107   2.456  0.1031  0.7534 -0.7055
  124MOL   H25642322   5.833   5.887   2.349 -0.9102 -0.0700 -0.7181
  124MOL   C25742323   6.144   5.710   2.380  0.3399  0.1485 -0.6003
  124MOL   C25842324   6.067   5.703   2.517  1.0225 -0.9047  0.6735
  124MOL   C25942325   6.165   5.751   2.623  0.5280  0.1071  1.0982
  124MOL   C26042326   6.181   5.887   2.642  0.1926  0.1825 -0.8316
  124MOL   C26142327   6.260   5.931   2.755 -0.1478  0.0221 -0.6395
  124MOL   C26242328   6.330   5.840   2.841  0.0763  0.5936  1.0590
  124MOL   C26342329   6.327   5.707   2.811  0.7001  0.5235 -0.6350
  124MOL   C26442330   6.247   5.662   2.703  0.0259  0.3055 -0.3786
  124MOL   O26542331   6.034   5.569   2.548  0.6668 -0.4456 -0.0300
  124MOL   H26642332   6.202   5.802   2.372  0.0099  0.1456 -3.6566
  124MOL   H26742333   6.201   5.621   2.355 -1.4172 -1.6156  1.5017
  124MOL   H26842334   5.979   5.768   2.513  0.5693 -1.5922 -0.9998
  124MOL   H26942335   6.129   5.956   2.577  0.3482  0.2059 -0.9309
  124MOL   H27042336   6.276   6.035   2.779  1.6591 -0.3599 -0.1234
  124MOL   H27142337   6.400   5.872   2.917 -1.3809 -0.5222  2.9117
  124MOL   H27242338   6.378   5.631   2.869 -1.4595 -0.5194 -0.0613
  124MOL   H27342339   6.227   5.557   2.688  1.1540  0.3766 -2.4901
  124MOL   C27442340   5.890   5.556   2.556  0.7282  0.5937  0.0673
  124MOL   C27542341   5.854   5.405   2.563 -0.7514 -0.4379  0.1105
  124MOL   C27642342   5.702   5.400   2.546 -0.0339  0.5348  0.6038
  124MOL   C27742343   5.611   5.439   2.652  1.1427 -0.2448  0.1418
  124MOL   C27842344   5.470   5.440   2.628  0.2534  0.5787  0.2886
  124MOL   C27942345   5.418   5.407   2.503 -0.5699  0.5171  0.4209
  124MOL   C28042346   5.506   5.369   2.398 -0.3209  0.2083  0.3904
  124MOL   C28142347   5.643   5.368   2.422  0.1104 -0.4336 -0.0015
  124MOL   O28242348   5.892   5.352   2.686  0.3432  0.4553  0.4428
  124MOL   H28342349   5.845   5.612   2.638  0.4703 -1.3433  1.2709
  124MOL   H28442350   5.834   5.603   2.475  0.5407 -1.2261 -0.8832
  124MOL   H28542351   5.898   5.336   2.492 -2.0594 -0.9985 -0.1709
  124MOL   H28642352   5.655   5.455   2.749  1.5668  1.3663 -0.3026
  124MOL   H28742353   5.399   5.466   2.706  1.3580 -0.4582  1.6809
  124MOL   H28842354   5.313   5.421   2.482 -0.2884  2.1738  0.1170
  124MOL   H28942355   5.461   5.345   2.303 -1.1811 -1.2791  1.1605
  124MOL   H29042356   5.712   5.335   2.346 -0.2635 -0.0741 -0.4949
  124MOL   C29142357   5.855   5.223   2.724 -0.2388  0.0574 -0.2555
  124MOL   C29242358   5.919   5.172   2.851  0.0837 -0.4199 -0.2784
  124MOL   C29342359   6.067   5.154   2.843 -0.3458  0.1201  0.4606
  124MOL   C29442360   6.125   5.031   2.879 -0.0093  0.0538 -0.4082
  124MOL   C29542361   6.266   5.010   2.870  0.1123  0.5698 -0.1106
  124MOL   C29642362   6.351   5.109   2.821  0.8013  0.1336 -0.3386
  124MOL   C29742363   6.294   5.240   2.799  0.6096 -0.0959 -0.1396
  124MOL   C29842364   6.152   5.260   2.804 -0.2473  0.4554  0.2763
  124MOL   O29942365   5.886   5.271   2.948 -0.3205  0.0056  0.0398
  124MOL   H30042366   5.872   5.146   2.650  1.7998  0.3328 -0.1184
  124MOL   H30142367   5.750   5.211   2.749  0.4763 -1.3071  2.2852
  124MOL   H30242368   5.868   5.083   2.887 -0.6109  0.4615  0.9641
  124MOL   H30342369   6.078   4.946   2.927 -0.4905 -0.6543 -2.0875
  124MOL   H30442370   6.306   4.912   2.890 -1.2223  0.1068  0.3691
  124MOL   H30542371   6.458   5.096   2.809  1.2747  2.6975  0.8378
  124MOL   H30642372   6.365   5.316   2.769  3.1791 -3.4287 -2.9839
  124MOL   H30742373   6.116   5.360   2.782  2.0280  1.1766 -0.2660
  124MOL   C30842374   5.907   5.228   3.085  1.0604 -0.1963 -0.5135
  124MOL   C30942375   5.887   5.349   3.178  0.2574  0.7168  0.1692
  124MOL   C31042376   5.857   5.302   3.319 -0.1750 -1.0577  0.2692
  124MOL   C31142377   5.721   5.283   3.362  0.3077  0.2424  0.2996
  124MOL   C31242378   5.697   5.240   3.491 -0.1782  0.4697  0.5150
  124MOL   C31342379   5.803   5.203   3.581 -0.0699 -0.1801 -0.4357
  124MOL   C31442380   5.932   5.230   3.542 -0.0244 -0.2320 -0.6932
  124MOL   C31542381   5.958   5.283   3.414  0.0280  0.0703 -0.6514
  124MOL   O31642382   5.999   5.438   3.177 -0.4033 -0.2474  0.3266
  124MOL   H31742383   6.006   5.185   3.098 -0.0535 -2.2268  1.5491
  124MOL   H31842384   5.829   5.154   3.103  0.7221 -0.0942 -1.5150
  124MOL   H31942385   5.797   5.407   3.157 -1.3231 -1.1459  1.6808
  124MOL   H32042386   5.641   5.307   3.293 -0.3533 -1.6334  0.3900
  124MOL   H32142387   5.591   5.230   3.508 -0.0041  1.4045  2.1589
  124MOL   H32242388   5.789   5.149   3.673  0.5961 -0.7832 -0.6889
  124MOL   H32342389   6.011   5.196   3.607 -1.4952 -1.6488  0.4243
  124MOL   H32442390   6.062   5.289   3.387 -0.1594 -0.0198 -1.3849
  124MOL   C32542391   6.003   5.538   3.075  0.0427  0.2320 -0.9093
  124MOL   C32642392   6.135   5.614   3.092 -0.4884 -0.3872  0.3055
  124MOL   C32742393   6.157   5.708   3.210 -0.8117  0.6020  0.0325
  124MOL   C32842394   6.199   5.843   3.191 -0.1818 -0.0062  0.0674
  124MOL   C32942395   6.248   5.918   3.298 -0.4856  0.4193  0.6091
  124MOL   C33042396   6.244   5.878   3.428  0.4409 -0.1477 -0.0629
  124MOL   C33142397   6.197   5.751   3.450  1.1762  0.0218 -0.0518
  124MOL   C33242398   6.158   5.663   3.346 -0.0244 -0.2820 -0.0059
  124MOL   O33342399   6.245   5.523   3.069  0.9836  0.0585  0.6967
  124MOL   H33442400   5.919   5.606   3.063 -1.8918 -1.9365  0.1959
  124MOL   H33542401   5.989   5.480   2.984  1.5820 -3.3010  0.9937
  124MOL   H33642402   6.139   5.675   3.001 -1.8612 -1.0252 -0.1904
  124MOL   H33742403   6.201   5.886   3.091  0.0133  3.3977  1.4811
  124MOL   H33842404   6.283   6.017   3.271 -1.3615  0.9290  1.3287
  124MOL   H33942405   6.270   5.949   3.506  0.2666  1.3757 -1.3647
  124MOL   H34042406   6.186   5.719   3.553  0.7095  0.7867  0.1379
  124MOL   H34142407   6.120   5.564   3.366 -0.2426 -0.3028 -0.5289
  124MOL   H34242408   6.229   5.456   3.134 -3.0741  1.2323  1.0594
  125MOL     C142409   7.058   1.779   3.927  0.6866  0.5544  0.2568
  125MOL     C242410   7.126   1.808   4.058  0.3387 -0.0500 -0.3485
  125MOL     C342411   7.239   1.917   4.041 -0.2354  0.7676 -0.4982
  125MOL     C442412   7.371   1.887   3.998  0.1838 -0.3777 -0.3085
  125MOL     C542413   7.462   1.993   3.972 -0.1815 -0.0118 -0.1793
  125MOL     C642414   7.434   2.124   4.006 -0.5882  0.3978  0.2999
  125MOL     C742415   7.305   2.157   4.051  0.4255 -0.0411 -0.7122
  125MOL     C842416   7.207   2.058   4.062  0.0790  0.1443 -0.0168
  125MOL     O942417   7.175   1.678   4.115  0.1375  0.3590  0.0747
  125MOL    H1042418   7.014   1.869   3.882  2.7381  1.3939 -0.1026
  125MOL    H1142419   7.123   1.739   3.850  0.6654  3.5339 -1.4190
  125MOL    H1242420   7.044   1.840   4.122  0.6189 -1.4692  0.7602
  125MOL    H1342421   7.401   1.784   3.984 -0.7005 -0.6260 -0.3653
  125MOL    H1442422   7.556   1.960   3.932 -0.8773 -1.2572 -0.8372
  125MOL    H1542423   7.514   2.192   3.980  0.0301 -1.0055 -1.5350
  125MOL    H1642424   7.276   2.260   4.064  2.4620  0.3817  0.6941
  125MOL    H1742425   7.108   2.087   4.094 -0.3240 -0.7111 -0.4774
  125MOL    H1842426   6.973   1.712   3.939 -0.0759  1.3317 -0.6779
  125MOL    C1942427   7.219   1.697   4.249  0.9834  0.3555  0.1270
  125MOL    C2042428   7.293   1.568   4.299 -0.5711  0.3000  0.1741
  125MOL    C2142429   7.342   1.597   4.440 -0.6127 -0.1038 -0.2106
  125MOL    C2242430   7.257   1.575   4.550  0.0738  0.3363  0.2881
  125MOL    C2342431   7.310   1.593   4.675  0.3838  0.1429 -0.5675
  125MOL    C2442432   7.444   1.619   4.693  0.7833  0.3349  0.0274
  125MOL    C2542433   7.528   1.651   4.590  0.1556 -0.5608  0.5321
  125MOL    C2642434   7.476   1.640   4.465 -0.2310  1.1868 -0.6289
  125MOL    O2742435   7.408   1.539   4.218  0.4100  0.1018  0.3119
  125MOL    H2842436   7.296   1.774   4.248 -0.6980  2.0952 -2.3522
  125MOL    H2942437   7.131   1.716   4.312  1.1470  1.3947  0.0476
  125MOL    H3042438   7.225   1.484   4.317 -0.4032 -0.2047 -1.4764
  125MOL    H3142439   7.151   1.561   4.537 -0.1789  2.0224  0.3718
  125MOL    H3242440   7.254   1.579   4.766 -1.9153  1.0064 -1.7858
  125MOL    H3342441   7.481   1.631   4.794 -0.1497 -1.4618  0.6034
  125MOL    H3442442   7.632   1.675   4.606  0.2936 -0.3747 -0.6155
  125MOL    H3542443   7.535   1.674   4.381 -2.7506  1.7429 -2.2329
  125MOL    C3642444   7.376   1.448   4.105  0.5368 -0.3564 -0.8246
  125MOL    C3742445   7.491   1.429   4.001 -0.2718  0.3722  0.3650
  125MOL    C3842446   7.622   1.404   4.069 -0.0603 -0.2298 -0.0036
  125MOL    C3942447   7.741   1.468   4.028  0.2755 -0.2295  0.3187
  125MOL    C4042448   7.865   1.416   4.071  0.4339  0.2179 -0.3605
  125MOL    C4142449   7.871   1.305   4.158 -0.0370 -0.6862  0.0473
  125MOL    C4242450   7.750   1.250   4.203  0.6276  0.0347 -0.2948
  125MOL    C4342451   7.624   1.301   4.156 -0.3252 -0.1440  0.8842
  125MOL    O4442452   7.485   1.537   3.905  0.3656  0.5525  0.0805
  125MOL    H4542453   7.352   1.355   4.157 -2.9548  1.9790  1.9796
  125MOL    H4642454   7.289   1.474   4.045  0.5000  0.8474 -0.2690
  125MOL    H4742455   7.474   1.335   3.947 -1.1621 -1.1765  3.2285
  125MOL    H4842456   7.737   1.559   3.971 -1.5833 -2.0908 -2.6601
  125MOL    H4942457   7.961   1.462   4.053  0.6652  0.1742  0.7573
  125MOL    H5042458   7.963   1.258   4.190 -0.3077 -0.8865  0.5576
  125MOL    H5142459   7.765   1.166   4.270 -1.4397  0.9214  1.3423
  125MOL    H5242460   7.536   1.250   4.193 -1.0536  0.8743  0.5660
  125MOL    C5342461   7.398   1.526   3.792 -0.1960 -0.6121  0.0301
  125MOL    C5442462   7.431   1.646   3.696  0.9069  0.5862 -0.1977
  125MOL    C5542463   7.574   1.662   3.672 -0.3818  0.3710 -0.7501
  125MOL    C5642464   7.661   1.732   3.758  1.0492 -0.0466  0.8968
  125MOL    C5742465   7.795   1.757   3.726 -0.0092  0.8358  0.0385
  125MOL    C5842466   7.844   1.720   3.599  0.5997  0.3193  0.0111
  125MOL    C5942467   7.760   1.649   3.512 -0.2620 -0.1615  0.1158
  125MOL    C6042468   7.630   1.624   3.549 -0.7673  0.0449  0.2411
  125MOL    O6142469   7.361   1.599   3.575  0.2881 -0.1317  0.1716
  125MOL    H6242470   7.412   1.431   3.741  1.3748 -0.1086 -0.4917
  125MOL    H6342471   7.293   1.523   3.822 -1.5121  1.0528 -4.0502
  125MOL    H6442472   7.384   1.738   3.733 -0.1717  0.5777 -1.4949
  125MOL    H6542473   7.615   1.752   3.854  1.1569  0.5377  0.8218
  125MOL    H6642474   7.861   1.803   3.798 -1.4132 -0.4926  2.2344
  125MOL    H6742475   7.947   1.733   3.570  1.1292 -0.6034  1.4455
  125MOL    H6842476   7.803   1.619   3.417 -1.7414  2.4595 -1.4607
  125MOL    H6942477   7.565   1.583   3.473  1.5177  0.1828 -1.8245
  125MOL    C7042478   7.220   1.629   3.563 -0.1524  0.4422  0.3340
  125MOL    C7142479   7.154   1.517   3.472  0.1491 -0.9570  0.3368
  125MOL    C7242480   7.139   1.385   3.545 -0.8899  0.0682 -0.4788
  125MOL    C7342481   7.243   1.289   3.546 -0.0361 -0.4025 -0.6829
  125MOL    C7442482   7.233   1.176   3.638  0.1586 -0.0548  0.3545
  125MOL    C7542483   7.128   1.171   3.726  0.0320  0.8218 -0.4077
  125MOL    C7642484   7.022   1.261   3.726  0.4571  0.1543 -0.0344
  125MOL    C7742485   7.030   1.364   3.635  0.0931 -0.4093 -1.0968
  125MOL    O7842486   7.236   1.506   3.357  0.4557 -0.0796  0.2006
  125MOL    H7942487   7.160   1.632   3.654 -0.1880 -1.4856  0.3838
  125MOL    H8042488   7.202   1.728   3.519 -1.5264  0.0317 -0.0698
  125MOL    H8142489   7.060   1.572   3.466 -0.6920 -2.2689  1.3129
  125MOL    H8242490   7.333   1.302   3.488  0.7770 -1.5960  0.2962
  125MOL    H8342491   7.306   1.097   3.647 -1.4261 -1.4864  0.9509
  125MOL    H8442492   7.125   1.095   3.803  0.2306 -0.4675 -1.6472
  125MOL    H8542493   6.940   1.252   3.797  0.1282  0.5592 -0.3643
  125MOL    H8642494   6.951   1.438   3.642  0.7843  0.2406  0.1224
  125MOL    C8742495   7.166   1.467   3.243  0.1282 -0.4169  0.2625
  125MOL    C8842496   7.271   1.475   3.122  0.0259 -0.0284  0.4212
  125MOL    C8942497   7.203   1.479   2.990 -0.4997  0.2537 -0.6742
  125MOL    C9042498   7.091   1.400   2.958  0.0716  0.1628  0.2212
  125MOL    C9142499   7.019   1.428   2.840 -0.5884 -0.2150 -0.0097
  125MOL    C9242500   7.079   1.514   2.744 -0.6059  0.2510 -0.0137
  125MOL    C9342501   7.196   1.587   2.777  0.6737 -0.7671  0.3678
  125MOL    C9442502   7.267   1.568   2.893  0.5221 -0.0630  0.5368
  125MOL    O9542503   7.372   1.368   3.113 -0.2332  0.1633  0.4411
  125MOL    H9642504   7.084   1.536   3.222  0.8375  0.6581  0.9529
  125MOL    H9742505   7.142   1.363   3.264 -0.6194  0.1109  2.0790
  125MOL    H9842506   7.321   1.571   3.133 -0.3430  0.3189 -0.8459
  125MOL    H9942507   7.062   1.332   3.037  0.1269 -0.8607 -0.6243
  125MOL   H10042508   6.917   1.392   2.829 -1.0099  0.5556  1.2238
  125MOL   H10142509   7.021   1.532   2.654 -0.2449 -2.3910 -0.8388
  125MOL   H10242510   7.225   1.666   2.710  1.0897 -0.6440  0.6914
  125MOL   H10342511   7.357   1.625   2.907  0.5539  0.4454 -1.5456
  125MOL   C10442512   7.479   1.376   3.203  0.0643  0.0272  0.4684
  125MOL   C10542513   7.611   1.373   3.128 -0.1558  0.7803  0.0542
  125MOL   C10642514   7.612   1.475   3.011  0.0730 -0.6457  0.2386
  125MOL   C10742515   7.640   1.612   3.036  0.1210 -0.0151 -0.2773
  125MOL   C10842516   7.644   1.710   2.927  0.2809  1.0006  0.4246
  125MOL   C10942517   7.607   1.666   2.799 -0.1751 -0.1847  0.4791
  125MOL   C11042518   7.575   1.532   2.771  0.4322 -0.2414 -0.1665
  125MOL   C11142519   7.585   1.438   2.875  0.3126  0.0643  0.3341
  125MOL   O11242520   7.713   1.404   3.226  0.6247 -0.2972 -0.4535
  125MOL   H11342521   7.482   1.460   3.272 -1.9328  0.6527 -0.1512
  125MOL   H11442522   7.463   1.289   3.266 -0.4360 -0.3419 -0.1515
  125MOL   H11542523   7.620   1.273   3.085 -1.2157  2.0150 -3.1741
  125MOL   H11642524   7.664   1.641   3.137 -0.6886  2.5303 -0.7869
  125MOL   H11742525   7.671   1.812   2.949  0.6580  0.5402  2.1998
  125MOL   H11842526   7.592   1.735   2.717  1.9325 -1.5431 -1.1112
  125MOL   H11942527   7.549   1.500   2.671  0.5468  3.3919 -1.4447
  125MOL   H12042528   7.559   1.335   2.855 -0.8111  0.1745  1.1912
  125MOL   C12142529   7.844   1.352   3.206  0.3061 -0.2568  0.1451
  125MOL   C12242530   7.861   1.216   3.283 -0.3291 -0.2772  1.1350
  125MOL   C12342531   7.838   1.241   3.431  0.3823  0.5089 -0.4491
  125MOL   C12442532   7.940   1.209   3.523 -0.4908  0.0270  0.4185
  125MOL   C12542533   7.923   1.223   3.664 -0.0934 -0.1877 -0.4169
  125MOL   C12642534   7.801   1.278   3.708 -0.0506  0.1861  0.5264
  125MOL   C12742535   7.692   1.300   3.616 -0.4263  0.2219 -0.1368
  125MOL   C12842536   7.709   1.272   3.484  0.3624 -0.3296  0.1003
  125MOL   O12942537   7.778   1.116   3.220  0.4415 -0.3450 -0.1344
  125MOL   H13042538   7.916   1.423   3.246  1.4639 -1.1091 -0.3768
  125MOL   H13142539   7.866   1.331   3.101 -1.2966 -0.8182 -0.0913
  125MOL   H13242540   7.965   1.183   3.272  0.4491  2.5037 -0.4058
  125MOL   H13342541   8.039   1.188   3.486 -1.4926  0.8537 -2.9256
  125MOL   H13442542   8.010   1.210   3.728 -0.0241  0.0973 -0.4560
  125MOL   H13542543   7.796   1.302   3.813 -0.9792 -0.9423  0.7525
  125MOL   H13642544   7.594   1.325   3.653 -0.8740 -3.7822  1.6361
  125MOL   H13742545   7.628   1.278   3.413  0.0512  0.0113  0.4764
  125MOL   C13842546   7.794   0.989   3.286  0.0145  0.9364  0.4490
  125MOL   C13942547   7.720   0.887   3.200 -0.3313  0.3498 -0.0592
  125MOL   C14042548   7.575   0.917   3.161  0.1305 -0.5368  0.2366
  125MOL   C14142549   7.511   0.821   3.082  0.2370 -0.3631  0.0527
  125MOL   C14242550   7.380   0.835   3.039  0.0402 -0.9382  0.4367
  125MOL   C14342551   7.310   0.954   3.073 -0.4404  0.7431  0.4744
  125MOL   C14442552   7.368   1.047   3.159 -0.9241 -0.3137  0.4279
  125MOL   C14542553   7.499   1.032   3.203 -0.4040 -0.2331 -0.5507
  125MOL   O14642554   7.797   0.855   3.084  0.2481  0.5265 -0.1311
  125MOL   H14742555   7.734   0.988   3.377 -0.2541  0.5740  0.2683
  125MOL   H14842556   7.901   0.970   3.293 -0.2767 -0.7019  0.6012
  125MOL   H14942557   7.712   0.790   3.249 -0.4809 -1.0625 -2.7532
  125MOL   H15042558   7.570   0.733   3.058 -0.0797 -0.8350  0.9921
  125MOL   H15142559   7.332   0.757   2.981 -2.0223  0.3490  0.3824
  125MOL   H15242560   7.219   0.975   3.018 -0.7879  1.1316  1.1853
  125MOL   H15342561   7.311   1.135   3.184 -2.4285 -0.6737 -1.6694
  125MOL   H15442562   7.537   1.109   3.268  0.7262 -0.8112 -0.5098
  125MOL   C15542563   7.849   0.953   2.997 -0.0716  0.1004  1.0190
  125MOL   C15642564   7.922   0.885   2.885  0.1198  0.5174  0.0430
  125MOL   C15742565   8.030   0.790   2.925 -0.1928 -0.6368  0.7521
  125MOL   C15842566   0.086   0.826   2.900  0.2020  0.6704  0.6359
  125MOL   C15942567   0.183   0.728   2.937 -0.1659  0.3884 -0.0512
  125MOL   C16042568   0.146   0.599   2.986 -0.2471 -0.0551 -0.4275
  125MOL   C16142569   0.013   0.567   3.013  0.0962 -0.4975 -0.0415
  125MOL   C16242570   7.993   0.663   2.987 -0.1965  0.2306  0.6104
  125MOL   O16342571   7.831   0.819   2.804 -0.0499  0.1159  0.1002
  125MOL   H16442572   7.918   1.026   3.038  1.2696  0.0446 -1.0724
  125MOL   H16542573   7.766   1.009   2.954 -0.4709 -0.5332  0.9442
  125MOL   H16642574   7.961   0.965   2.823 -1.0111  1.6947  0.8378
  125MOL   H16742575   0.107   0.918   2.846 -1.2468 -0.6516 -2.3309
  125MOL   H16842576   0.286   0.743   2.906  0.4487 -0.7051  1.3793
  125MOL   H16942577   0.219   0.521   3.001 -0.0615  0.4249  1.3757
  125MOL   H17042578   8.074   0.465   3.043 -0.5237  0.0636  1.5368
  125MOL   H17142579   7.892   0.634   3.009 -0.4171  0.2309 -0.3463
  125MOL   C17242580   7.867   0.807   2.670 -0.5308 -0.4236  0.4610
  125MOL   C17342581   7.775   0.700   2.608 -0.4871 -0.1373  0.1421
  125MOL   C17442582   7.840   0.642   2.482  0.4772 -0.5138 -0.7416
  125MOL   C17542583   7.874   0.506   2.476 -0.6130 -0.5973  0.0421
  125MOL   C17642584   7.904   0.443   2.355  0.0063 -0.4078 -0.4492
  125MOL   C17742585   7.919   0.522   2.240 -0.3088 -0.0055 -0.2080
  125MOL   C17842586   7.899   0.659   2.245  0.5079 -0.0377  0.2460
  125MOL   C17942587   7.858   0.720   2.369 -0.7786 -0.3768 -0.5456
  125MOL   O18042588   7.644   0.740   2.588  0.6028 -0.4673  0.3867
  125MOL   H18142589   7.836   0.905   2.632 -3.1350  0.0978  3.7349
  125MOL   H18242590   7.972   0.782   2.653 -0.0268  1.2308  1.0244
  125MOL   H18342591   7.763   0.612   2.672 -1.2526 -0.0639  0.1057
  125MOL   H18442592   7.867   0.450   2.568 -0.1530 -0.1381  0.3622
  125MOL   H18542593   7.907   0.335   2.348 -1.3656 -0.4896  0.1348
  125MOL   H18642594   7.943   0.479   2.144 -0.3703 -0.0477 -0.2051
  125MOL   H18742595   7.908   0.723   2.158  1.6608  2.2226  1.9730
  125MOL   H18842596   7.847   0.827   2.378  1.1790 -0.1184 -0.8901
  125MOL   C18942597   7.558   0.755   2.699  0.1086 -0.4100  0.0902
  125MOL   C19042598   7.415   0.755   2.643  0.4280  0.6352  0.9792
  125MOL   C19142599   7.346   0.893   2.614 -0.0880  0.5447  0.0037
  125MOL   C19242600   7.295   0.919   2.483 -0.0022 -0.0195 -0.2840
  125MOL   C19342601   7.229   1.041   2.463 -0.2895 -0.2011 -0.5664
  125MOL   C19442602   7.202   1.130   2.564  0.2095  0.1826 -0.3352
  125MOL   C19542603   7.250   1.102   2.695 -0.1489  0.1995  0.1396
  125MOL   C19642604   7.320   0.985   2.717  0.6929 -0.1055  0.3026
  125MOL   O19742605   7.330   0.673   2.722  0.0563  0.3777  0.3973
  125MOL   H19842606   7.584   0.679   2.773  1.5337  0.9226  1.0059
  125MOL   H19942607   7.563   0.851   2.751 -0.0684  0.1057 -0.8310
  125MOL   H20042608   7.418   0.696   2.552 -2.7053 -1.2336  2.0012
  125MOL   H20142609   7.305   0.856   2.395  0.3199 -0.2799 -0.0605
  125MOL   H20242610   7.191   1.061   2.364 -1.3538 -0.1218 -0.1456
  125MOL   H20342611   7.146   1.215   2.531 -0.5480 -0.8302 -1.7167
  125MOL   H20442612   7.220   1.160   2.782 -0.8709 -0.2185  0.1744
  125MOL   H20542613   7.361   0.964   2.815 -1.1698 -0.9036  0.9339
  125MOL   C20642614   7.220   0.617   2.658  0.9281 -0.4698  0.4389
  125MOL   C20742615   7.103   0.576   2.758  0.5145  0.2521  0.9042
  125MOL   C20842616   7.023   0.455   2.722 -0.4747  0.7805 -0.6205
  125MOL   C20942617   7.015   0.344   2.805  0.4343  0.0574 -0.2769
  125MOL   C21042618   6.959   0.226   2.756  0.7292 -0.5653  0.0389
  125MOL   C21142619   6.894   0.225   2.635  0.2966 -0.5571  0.4316
  125MOL   C21242620   6.879   0.347   2.562 -0.2630  0.4592 -0.2957
  125MOL   C21342621   6.953   0.455   2.603 -0.5518  1.1123  0.2286
  125MOL   O21442622   7.013   0.685   2.782 -0.0126  0.7124 -0.0488
  125MOL   H21542623   7.181   0.683   2.581 -1.4353  1.4019  3.1362
  125MOL   H21642624   7.256   0.540   2.590 -0.9374  0.0356 -1.1586
  125MOL   H21742625   7.147   0.556   2.856 -1.6045  0.6157  1.9478
  125MOL   H21842626   7.066   0.339   2.899 -0.4586 -0.1841  0.2035
  125MOL   H21942627   6.968   0.141   2.821  1.3403 -0.2462  0.3766
  125MOL   H22042628   6.855   0.136   2.587 -0.5266  0.1479 -0.2324
  125MOL   H22142629   6.828   0.354   2.467  0.7250 -0.3723 -0.9090
  125MOL   H22242630   6.971   0.538   2.536  0.3402 -0.8550 -2.0311
  125MOL   C22342631   7.050   0.784   2.878  0.2934  0.2733 -0.5250
  125MOL   C22442632   6.926   0.855   2.940  0.4060 -0.3721  0.3141
  125MOL   C22542633   6.836   0.924   2.846  0.3423  0.9657 -0.4699
  125MOL   C22642634   6.716   0.863   2.813 -0.4449  0.1483 -0.6850
  125MOL   C22742635   6.643   0.915   2.702 -0.7062 -0.2291 -0.3337
  125MOL   C22842636   6.686   1.040   2.649  0.3043 -0.1527 -0.0695
  125MOL   C22942637   6.802   1.109   2.691 -0.2241 -0.6017  0.2525
  125MOL   C23042638   6.878   1.045   2.789  0.3631  0.3002  0.7274
  125MOL   O23142639   6.854   0.752   3.019 -0.9410  0.2917  0.0244
  125MOL   H23242640   7.097   0.741   2.966  2.5283 -0.0974 -1.8631
  125MOL   H23342641   7.116   0.858   2.833  0.2493  1.4528  1.2829
  125MOL   H23442642   6.971   0.929   3.007 -0.5138  1.9483 -1.5640
  125MOL   H23542643   6.677   0.776   2.865  2.3438 -0.9103 -0.2636
  125MOL   H23642644   6.553   0.866   2.669 -0.2350 -0.8080 -0.7724
  125MOL   H23742645   6.620   1.081   2.573 -0.4809  1.0081  1.1981
  125MOL   H23842646   6.829   1.204   2.648 -0.3973 -0.0863  1.2472
  125MOL   H23942647   6.964   1.094   2.832  0.1204 -0.3851  2.0145
  125MOL   C24042648   6.802   0.800   3.147 -0.0891  0.8073  0.0262
  125MOL   C24142649   6.753   0.696   3.237 -0.0002  0.4419 -0.7089
  125MOL   C24242650   6.758   0.736   3.383 -0.2373 -0.1250 -0.4492
  125MOL   C24342651   6.876   0.731   3.456  0.3108  0.1092 -0.2640
  125MOL   C24442652   6.881   0.753   3.597 -0.0354 -0.5963 -0.5313
  125MOL   C24542653   6.759   0.751   3.665 -1.1013 -0.2531  0.1095
  125MOL   C24642654   6.639   0.766   3.596  0.4996 -0.2907  0.2724
  125MOL   C24742655   6.638   0.756   3.456  0.6945  0.0930  0.1961
  125MOL   O24842656   6.619   0.668   3.208 -0.6244  0.6180 -0.3316
  125MOL   H24942657   6.882   0.855   3.195 -0.3561  1.0142  0.2304
  125MOL   H25042658   6.720   0.870   3.134 -0.1723  0.5863 -0.6801
  125MOL   H25142659   6.803   0.599   3.226 -1.9746 -0.7469  0.4680
  125MOL   H25242660   6.966   0.717   3.397  0.1829  1.3995 -0.7724
  125MOL   H25342661   6.975   0.759   3.650 -0.0972  0.1420 -0.5041
  125MOL   H25442662   6.764   0.758   3.773  1.7266 -1.6377  0.0929
  125MOL   H25542663   6.545   0.781   3.647  0.7043  2.7444 -0.1590
  125MOL   H25642664   6.543   0.764   3.405 -0.1747 -0.4280  1.6950
  125MOL   C25742665   6.575   0.532   3.226 -0.3790 -0.6669  0.3401
  125MOL   C25842666   6.620   0.410   3.139  0.3919 -0.1779 -0.0714
  125MOL   C25942667   6.594   0.437   2.991  0.1326  0.1732 -1.2132
  125MOL   C26042668   6.693   0.506   2.915 -0.0812 -0.0175 -0.4448
  125MOL   C26142669   6.667   0.538   2.781 -0.2357  0.5315 -0.0694
  125MOL   C26242670   6.544   0.505   2.721  0.5837  0.6882 -0.7529
  125MOL   C26342671   6.441   0.442   2.795 -0.4361  0.3784 -0.0451
  125MOL   C26442672   6.468   0.405   2.933 -0.5815 -0.0528 -0.1319
  125MOL   O26542673   6.540   0.300   3.185 -0.6797 -0.5606  0.5972
  125MOL   H26642674   6.466   0.533   3.217 -0.4724 -0.3413  1.4263
  125MOL   H26742675   6.596   0.502   3.329  0.9437 -0.4323  0.1479
  125MOL   H26842676   6.725   0.391   3.160  1.0347  3.9250  0.7391
  125MOL   H26942677   6.790   0.523   2.960 -0.7984  3.2168 -0.0607
  125MOL   H27042678   6.748   0.569   2.718 -0.5761 -1.9644 -1.8029
  125MOL   H27142679   6.530   0.532   2.617 -1.0680 -0.0846 -0.7446
  125MOL   H27242680   6.349   0.410   2.748 -2.0839  0.8409  2.7656
  125MOL   H27342681   6.393   0.357   2.994  1.6177 -1.2106  1.7153
  125MOL   C27442682   6.546   0.175   3.118  0.8882 -0.5922  0.2988
  125MOL   C27542683   6.632   0.065   3.182 -0.0873  0.5927  0.2307
  125MOL   C27642684   6.618   0.066   3.337 -0.2093  0.5996 -0.7130
  125MOL   C27742685   6.711   0.141   3.418  0.0136  0.0650  0.1897
  125MOL   C27842686   6.696   0.147   3.558  0.0033 -0.0367 -0.7141
  125MOL   C27942687   6.588   0.085   3.624  0.3499  0.4098 -0.3688
  125MOL   C28042688   6.495   0.009   3.546 -0.4363 -0.1708 -0.4458
  125MOL   C28142689   6.507   0.007   3.403  0.7284 -0.2800 -0.2758
  125MOL   O28242690   6.764   0.077   3.148 -0.4437 -0.6707 -0.1187
  125MOL   H28342691   6.445   0.136   3.110  0.7056  0.0211 -0.4713
  125MOL   H28442692   6.582   0.172   3.015  0.1984  2.0898 -0.0711
  125MOL   H28542693   6.597   8.044   3.158  1.4802  0.6764 -2.6845
  125MOL   H28642694   6.789   0.195   3.367  1.1306  0.6686  2.4638
  125MOL   H28742695   6.779   0.197   3.607  1.4471 -2.1728 -0.9008
  125MOL   H28842696   6.583   0.085   3.731 -1.9764 -0.9428 -0.4327
  125MOL   H28942697   6.414   8.040   3.598 -0.2676  0.9536  0.8897
  125MOL   H29042698   6.436   8.044   3.334  2.5235 -1.5349 -1.3920
  125MOL   C29142699   6.848   8.042   3.174 -0.1156  0.6900  0.5395
  125MOL   C29242700   6.993   0.001   3.117 -0.5238  0.8719 -0.2957
  125MOL   C29342701   7.048   0.128   3.195  0.4059 -0.3882 -0.8867
  125MOL   C29442702   7.125   0.116   3.313 -0.0785  0.3051 -0.4488
  125MOL   C29542703   7.155   0.228   3.392  0.7769 -0.4626 -0.1616
  125MOL   C29642704   7.112   0.357   3.353 -0.4570 -0.2140 -0.0587
  125MOL   C29742705   7.041   0.369   3.233 -0.2844  0.2602 -0.1493
  125MOL   C29842706   6.999   0.258   3.162 -0.6438  0.0996  0.8632
  125MOL   O29942707   7.081   7.968   3.123  0.1981 -0.1110  0.1354
  125MOL   H30042708   6.811   7.954   3.122 -2.5818  1.8121  0.3330
  125MOL   H30142709   6.844   8.020   3.280 -1.1465  0.3460  0.4340
  125MOL   H30242710   6.980   0.026   3.012 -0.2613  1.7113 -0.1352
  125MOL   H30342711   7.157   0.017   3.345  0.1378  0.1073 -1.2750
  125MOL   H30442712   7.223   0.208   3.474  0.4009 -1.6510 -0.1279
  125MOL   H30542713   7.124   0.439   3.422  0.1911  0.9620 -1.5504
  125MOL   H30642714   7.009   0.466   3.197 -1.1578  0.4665  1.1387
  125MOL   H30742715   6.922   0.272   3.087 -1.0188 -1.0847  1.0158
  125MOL   C30842716   7.205   7.965   3.058 -0.5201  0.3146 -0.2214
  125MOL   C30942717   7.219   7.848   2.955 -0.4926  0.1328  0.4093
  125MOL   C31042718   7.090   7.835   2.874  0.2956  0.0882 -0.7873
  125MOL   C31142719   7.074   7.909   2.759  0.5777  0.4258 -0.6938
  125MOL   C31242720   6.947   7.908   2.691  0.5029 -0.6447 -0.4333
  125MOL   C31342721   6.846   7.812   2.731  0.2791 -0.7332  0.0918
  125MOL   C31442722   6.864   7.741   2.852  0.0134  0.2943 -0.1869
  125MOL   C31542723   6.988   7.752   2.922  0.0167 -0.1012 -0.2394
  125MOL   O31642724   7.329   7.868   2.875  0.4675 -0.1747 -0.2838
  125MOL   H31742725   7.285   7.947   3.129 -0.5869 -1.7761 -0.6512
  125MOL   H31842726   7.223   8.059   3.005  2.1971 -0.5048 -0.7852
  125MOL   H31942727   7.229   7.758   3.015 -1.6550  0.3357  0.9329
  125MOL   H32042728   7.146   7.983   2.728  0.1094  1.5797  0.9009
  125MOL   H32142729   6.922   7.974   2.610 -1.7080 -1.1306 -0.1866
  125MOL   H32242730   6.753   7.787   2.683  0.2482 -2.4264  0.9731
  125MOL   H32342731   6.783   7.675   2.878  1.8244 -2.3058 -0.9799
  125MOL   H32442732   6.996   7.699   3.016  0.8247 -0.5700 -0.5735
  125MOL   C32542733   7.453   7.891   2.939 -0.1720  1.0827  0.1439
  125MOL   C32642734   7.582   7.853   2.857 -0.5386 -0.2479  0.3336
  125MOL   C32742735   7.593   7.907   2.714 -0.1400 -0.4407 -0.1195
  125MOL   C32842736   7.591   8.043   2.686  0.4472  0.6442  0.8365
  125MOL   C32942737   7.622   0.011   2.555 -0.6932  0.3321  0.1927
  125MOL   C33042738   7.654   8.003   2.450 -0.1117 -0.0339  0.7159
  125MOL   C33142739   7.663   7.862   2.480  0.2070  0.0041 -0.4416
  125MOL   C33242740   7.634   7.813   2.614  0.2387  0.1814 -0.6237
  125MOL   O33342741   7.699   7.895   2.926 -0.2729 -0.1773  0.0601
  125MOL   H33442742   7.454   7.825   3.025  0.7512  3.0510  1.6661
  125MOL   H33542743   7.467   7.992   2.977  1.4787  0.4101  1.3782
  125MOL   H33642744   7.577   7.745   2.840  0.1943  0.0682 -2.1396
  125MOL   H33742745   7.559   0.032   2.763  0.0169  2.7801 -1.1825
  125MOL   H33842746   7.609   0.115   2.533  1.0859  0.0739 -2.2929
  125MOL   H33942747   7.688   8.054   2.360  0.0398 -1.1916  0.1111
  125MOL   H34042748   7.688   7.792   2.402  0.4097  0.6126 -0.9249
  125MOL   H34142749   7.646   7.707   2.631  0.7927  0.1926 -0.9439
  125MOL   H34242750   7.777   7.858   2.888 -0.5658 -1.2274  0.4556
  126MOL     C142751   6.847   0.383   6.282 -0.7684 -0.5816  0.4202
  126MOL     C242752   6.859   0.335   6.433  0.5229 -0.3962 -0.4111
  126MOL     C342753   6.780   0.205   6.449 -0.7848 -0.7879 -0.0074
  126MOL     C442754   6.659   0.202   6.521 -0.1383 -0.0247 -0.1769
  126MOL     C542755   6.592   0.078   6.531 -0.0210  0.5826  0.7140
  126MOL     C642756   6.643   8.044   6.465 -0.4392  0.3751  0.3950
  126MOL     C742757   6.757   8.055   6.384 -0.8828 -0.6428 -0.4188
  126MOL     C842758   6.831   0.093   6.378 -0.5140  0.5549 -0.2756
  126MOL     O942759   6.822   0.430   6.533  0.3494  0.2993 -0.0233
  126MOL    H1042760   6.747   0.412   6.253 -1.4244 -0.0077  3.0830
  126MOL    H1142761   6.917   0.466   6.269  0.9257 -1.9662  0.4074
  126MOL    H1242762   6.960   0.300   6.449  0.4532 -0.1928  0.4708
  126MOL    H1342763   6.617   0.291   6.565  1.3717  0.8872 -0.5383
  126MOL    H1442764   6.500   0.070   6.587  0.4503 -0.8330  1.3031
  126MOL    H1542765   6.583   7.954   6.468 -0.1080  0.1271 -0.3498
  126MOL    H1642766   6.782   7.971   6.321  0.6888 -0.8382  0.4532
  126MOL    H1742767   6.917   0.108   6.315  0.6915  0.1926  1.2627
  126MOL    H1842768   6.892   0.315   6.210 -1.5247  0.6692 -1.2669
  126MOL    C1942769   6.912   0.540   6.541 -0.7512 -0.2531  0.1212
  126MOL    C2042770   6.904   0.622   6.667 -0.6587 -0.1357 -0.2316
  126MOL    C2142771   6.763   0.665   6.699  0.1519 -0.2834 -0.0478
  126MOL    C2242772   6.680   0.576   6.769  0.2497  0.6136  0.7249
  126MOL    C2342773   6.548   0.614   6.803  0.3034  0.1495 -0.5655
  126MOL    C2442774   6.492   0.735   6.752 -0.1892 -0.2307 -0.1522
  126MOL    C2542775   6.574   0.820   6.681  0.0797  0.0655  0.5864
  126MOL    C2642776   6.712   0.791   6.655 -0.2884  0.0538  0.5267
  126MOL    O2742777   6.986   0.730   6.657 -0.0831 -0.6237  0.0267
  126MOL    H2842778   7.016   0.507   6.543 -0.1312  1.6026  0.3134
  126MOL    H2942779   6.888   0.597   6.451  1.1888  1.4049  0.5926
  126MOL    H3042780   6.941   0.555   6.744  1.1796  0.9452 -0.1483
  126MOL    H3142781   6.718   0.482   6.807  2.0204  0.6019 -1.0339
  126MOL    H3242782   6.486   0.548   6.862  0.9839 -0.3705 -0.4334
  126MOL    H3342783   6.390   0.766   6.771  0.0795 -0.2346  1.3799
  126MOL    H3442784   6.540   0.914   6.640 -1.9980 -1.4958 -1.4034
  126MOL    H3542785   6.770   0.863   6.600 -1.3574 -0.9697 -2.0070
  126MOL    C3642786   7.030   0.777   6.781 -0.4024 -0.0270  0.0649
  126MOL    C3742787   7.161   0.710   6.829  0.4117 -0.0362 -0.0434
  126MOL    C3842788   7.266   0.727   6.717 -0.2819  0.1376 -0.7499
  126MOL    C3942789   7.359   0.625   6.686  0.1355 -0.3615  0.2641
  126MOL    C4042790   7.468   0.657   6.604  0.8230 -0.3125 -0.0334
  126MOL    C4142791   7.485   0.782   6.545 -0.3088 -0.5467  0.2564
  126MOL    C4242792   7.392   0.891   6.576 -1.1798 -0.5561  0.0967
  126MOL    C4342793   7.290   0.860   6.673 -0.4118 -0.4394  0.3911
  126MOL    O4442794   7.151   0.582   6.874 -0.1476 -0.0229  0.5216
  126MOL    H4542795   7.045   0.882   6.755  3.1316  0.1358  2.4282
  126MOL    H4642796   6.953   0.775   6.858 -1.0428 -2.2502 -0.6039
  126MOL    H4742797   7.194   0.765   6.917 -2.6895  2.4192 -0.3138
  126MOL    H4842798   7.342   0.525   6.723 -1.8740 -0.4095 -0.7579
  126MOL    H4942799   7.532   0.570   6.595 -0.3242 -1.2803  1.0441
  126MOL    H5042800   7.569   0.804   6.481 -0.7465 -0.9419 -0.4669
  126MOL    H5142801   7.406   0.993   6.543  2.4563 -0.1279  2.6758
  126MOL    H5242802   7.231   0.945   6.703  0.9504  0.0080  1.8607
  126MOL    C5342803   7.131   0.562   7.010  0.1623 -0.4675 -0.5694
  126MOL    C5442804   7.130   0.416   7.060  0.2183  0.3201 -0.0836
  126MOL    C5542805   7.010   0.345   6.990  0.4244 -0.0259 -0.2413
  126MOL    C5642806   6.891   0.320   7.070  0.5613  0.1109 -0.3027
  126MOL    C5742807   6.775   0.264   7.012  0.1113 -0.1242  0.2572
  126MOL    C5842808   6.783   0.227   6.878 -0.1628  1.0252  0.5962
  126MOL    C5942809   6.899   0.239   6.798 -0.3592  0.0425 -0.1261
  126MOL    C6042810   7.013   0.305   6.855 -0.4870 -0.2631  0.6939
  126MOL    O6142811   7.254   0.351   7.045  1.0007  0.5191  0.3212
  126MOL    H6242812   7.214   0.605   7.067 -0.3957 -0.1000 -0.0171
  126MOL    H6342813   7.043   0.612   7.051  0.2958 -0.2445 -0.5567
  126MOL    H6442814   7.116   0.422   7.168  2.6829 -1.0380  0.3435
  126MOL    H6542815   6.889   0.367   7.167  2.0770 -3.8349  1.7268
  126MOL    H6642816   6.678   0.263   7.060 -0.9133 -2.3551 -1.7474
  126MOL    H6742817   6.700   0.176   6.832 -0.1470 -0.0174  1.6938
  126MOL    H6842818   6.897   0.210   6.694 -3.9595 -0.0737 -0.0882
  126MOL    H6942819   7.100   0.335   6.799 -1.6246 -2.2208 -2.2518
  126MOL    C7042820   7.269   0.238   7.128  0.4972 -0.4555 -0.5155
  126MOL    C7142821   7.384   0.148   7.074  0.4883  0.2437 -0.1180
  126MOL    C7242822   7.497   0.233   7.029 -0.3262 -0.1237  0.6939
  126MOL    C7342823   7.598   0.266   7.123 -1.2078  0.5515 -1.2663
  126MOL    C7442824   7.700   0.362   7.093 -0.2669  0.6091 -0.4474
  126MOL    C7542825   7.696   0.415   6.963 -0.3561 -0.0873  0.4967
  126MOL    C7642826   7.594   0.381   6.867 -0.7092 -0.6719  0.1700
  126MOL    C7742827   7.491   0.292   6.900  0.4926  0.9503 -0.4271
  126MOL    O7842828   7.333   0.070   6.968  0.3191  0.4973 -0.2867
  126MOL    H7942829   7.285   0.273   7.230  0.0204  1.1051 -0.9685
  126MOL    H8042830   7.179   0.176   7.133  1.2248 -1.3688  3.5893
  126MOL    H8142831   7.417   0.079   7.152  1.9530 -0.0835 -1.0217
  126MOL    H8242832   7.604   0.223   7.222 -1.3731 -1.4414 -2.0957
  126MOL    H8342833   7.779   0.395   7.158  1.5573 -0.6994 -1.9542
  126MOL    H8442834   7.755   0.499   6.931 -0.0143 -0.6535 -0.3838
  126MOL    H8542835   7.585   0.434   6.773 -2.3910 -0.4862  0.4111
  126MOL    H8642836   7.407   0.262   6.839  0.3265 -1.6334  1.0289
  126MOL    C8742837   7.410   8.029   6.947 -0.2455  0.0509 -0.3549
  126MOL    C8842838   7.392   7.972   6.801 -0.2381  0.6077 -0.4381
  126MOL    C8942839   7.378   0.009   6.701  0.0297 -0.0083 -0.4157
  126MOL    C9042840   7.246   0.063   6.669  0.3914  0.1758  0.1713
  126MOL    C9142841   7.231   0.175   6.585  0.2526 -0.1060 -0.2228
  126MOL    C9242842   7.352   0.221   6.521  0.3227  0.0907  0.5296
  126MOL    C9342843   7.482   0.172   6.553 -0.7948 -0.3174  0.7478
  126MOL    C9442844   7.492   0.066   6.642 -0.6231  0.1185  0.2672
  126MOL    O9542845   7.279   7.880   6.807  0.5610 -0.0138  0.0518
  126MOL    H9642846   7.395   7.951   7.021 -0.0169  1.5474  1.2912
  126MOL    H9742847   7.515   8.050   6.967 -0.1926  0.7343 -1.2914
  126MOL    H9842848   7.482   7.913   6.780  0.6952  1.1067  1.9817
  126MOL    H9942849   7.165   0.021   6.726  0.6921  1.9866  1.9805
  126MOL   H10042850   7.134   0.212   6.556  0.3145  0.8569  0.8089
  126MOL   H10142851   7.344   0.313   6.464  1.6383  0.2128  0.5092
  126MOL   H10242852   7.571   0.215   6.509 -1.3108  1.2442  1.2145
  126MOL   H10342853   7.589   0.021   6.658 -0.8390 -0.4557 -0.0290
  126MOL   C10442854   7.259   7.784   6.706  0.2697 -0.2178  0.4063
  126MOL   C10542855   7.314   7.640   6.729 -0.3208  0.7145  1.2107
  126MOL   C10642856   7.247   7.538   6.632  0.5489 -0.2397 -0.5704
  126MOL   C10742857   7.280   7.528   6.495 -0.2306 -0.1832 -0.2366
  126MOL   C10842858   7.216   7.441   6.406 -0.0979  0.1460 -0.9587
  126MOL   C10942859   7.129   7.351   6.457 -0.5829  0.2584 -0.6656
  126MOL   C11042860   7.076   7.363   6.589  0.9093 -1.1130 -0.1195
  126MOL   C11142861   7.139   7.454   6.678 -0.0890 -0.3453 -0.7543
  126MOL   O11242862   7.456   7.641   6.716  0.5579 -0.6866 -0.1936
  126MOL   H11342863   7.151   7.770   6.696 -0.2722  3.6869 -0.3579
  126MOL   H11442864   7.288   7.825   6.609 -0.8966 -2.4683 -0.9394
  126MOL   H11542865   7.295   7.605   6.831 -1.0739 -0.7683  0.5758
  126MOL   H11642866   7.358   7.596   6.463  0.2375 -0.5756  0.0607
  126MOL   H11742867   7.237   7.443   6.300  0.2013 -1.4063 -0.9467
  126MOL   H11842868   7.083   7.272   6.399  0.1568 -0.8961  0.2937
  126MOL   H11942869   6.990   7.308   6.624  1.5874 -1.7677  0.5419
  126MOL   H12042870   7.101   7.457   6.779 -0.4852 -0.3521 -0.9028
  126MOL   C12142871   7.532   7.532   6.769  0.8258 -0.4050 -0.0344
  126MOL   C12242872   7.682   7.568   6.775 -0.9294 -0.3059  0.3215
  126MOL   C12342873   7.705   7.691   6.860 -0.0171 -0.1666 -0.2095
  126MOL   C12442874   7.727   7.814   6.803  0.0768  0.0143 -0.1478
  126MOL   C12542875   7.773   7.924   6.879  0.3515  0.3699  0.0240
  126MOL   C12642876   7.768   7.921   7.020 -1.1308  0.5396  0.0993
  126MOL   C12742877   7.747   7.793   7.082 -0.1845  0.0119 -0.1696
  126MOL   C12842878   7.721   7.676   7.002 -0.0797  0.4377  0.1669
  126MOL   O12942879   7.747   7.454   6.829 -0.0748 -0.4967  0.1264
  126MOL   H13042880   7.520   7.436   6.718  0.2841  0.3410 -1.3391
  126MOL   H13142881   7.491   7.518   6.869  1.1849  1.5352  0.3983
  126MOL   H13242882   7.717   7.577   6.672  0.8853 -0.4083  0.9157
  126MOL   H13342883   7.734   7.819   6.695 -0.0200 -1.8728 -0.2628
  126MOL   H13442884   7.793   8.020   6.833  0.4618  0.1276 -0.4364
  126MOL   H13542885   7.788   7.997   7.094 -1.6477 -0.8170  1.6753
  126MOL   H13642886   7.767   7.779   7.187  1.7066 -1.1191 -0.6490
  126MOL   H13742887   7.708   7.579   7.047  3.0445  0.2624  0.7713
  126MOL   C13842888   7.849   7.387   6.756  0.2308  0.3746  0.3508
  126MOL   C13942889   7.877   7.256   6.814 -1.0355 -0.4232 -0.4171
  126MOL   C14042890   7.759   7.159   6.803 -0.4430  0.4454  0.2145
  126MOL   C14142891   7.665   7.146   6.910 -0.1817  0.7071  0.0574
  126MOL   C14242892   7.557   7.062   6.895  0.1847 -0.4192 -0.2698
  126MOL   C14342893   7.536   6.991   6.775 -0.0510  0.8889 -0.7954
  126MOL   C14442894   7.625   7.007   6.670 -0.5431  0.3754  0.9721
  126MOL   C14542895   7.739   7.088   6.679 -0.0558  0.2763 -0.8034
  126MOL   O14642896   7.978   7.200   6.731  0.1072  0.1778  0.3864
  126MOL   H14742897   7.942   7.445   6.753  1.1500 -1.0643  0.2373
  126MOL   H14842898   7.816   7.375   6.653 -0.0105  1.3060  0.3148
  126MOL   H14942899   7.916   7.255   6.916  0.9979 -0.2849 -1.1613
  126MOL   H15042900   7.661   7.204   7.002 -3.0463  2.3185 -1.0223
  126MOL   H15142901   7.493   7.052   6.982 -2.0041  0.6345 -1.6888
  126MOL   H15242902   7.449   6.932   6.751  2.3791 -2.4593 -1.8434
  126MOL   H15342903   7.605   6.964   6.573 -0.0271  2.4794 -0.1091
  126MOL   H15442904   7.804   7.089   6.592  1.0100 -0.8155 -0.0299
  126MOL   C15542905   0.033   7.230   6.771  0.2560  0.7315  0.1189
  126MOL   C15642906   0.124   7.128   6.698 -0.0068 -0.3631  0.0179
  126MOL   C15742907   0.065   6.982   6.696 -0.1105 -0.5137  0.4072
  126MOL   C15842908   0.003   6.939   6.813 -0.3604  0.0152  0.0241
  126MOL   C15942909   8.050   6.798   6.818  0.9590  0.0850 -0.2182
  126MOL   C16042910   0.013   6.704   6.724  0.4508  0.4306  0.1934
  126MOL   C16142911   0.067   6.754   6.602  1.1233 -0.0809  0.0599
  126MOL   C16242912   0.092   6.891   6.591  0.0532 -0.2318 -0.3271
  126MOL   O16342913   0.145   7.174   6.561  0.4887  0.3510 -0.3458
  126MOL   H16442914   0.040   7.215   6.879 -0.5950 -0.3259  0.0413
  126MOL   H16542915   0.061   7.330   6.741  0.5587  0.3698 -0.7982
  126MOL   H16642916   0.216   7.136   6.755  0.5593 -1.9262 -0.6426
  126MOL   H16742917   8.056   7.006   6.893  1.4304 -2.0609  2.4518
  126MOL   H16842918   8.004   6.759   6.908  2.9274  1.5610  1.5101
  126MOL   H16942919   8.055   6.603   6.733 -0.4693  0.8520  1.2276
  126MOL   H17042920   0.078   6.692   6.514 -0.0120 -0.3717  0.1086
  126MOL   H17142921   0.137   6.932   6.502  1.8681 -1.2093  0.1288
  126MOL   C17242922   0.277   7.213   6.527  0.1218 -0.0951  0.1568
  126MOL   C17342923   0.270   7.331   6.425 -0.1590 -0.1081  0.4315
  126MOL   C17442924   0.404   7.353   6.356 -0.5059  0.5852 -0.5144
  126MOL   C17542925   0.412   7.361   6.212  0.4495 -0.5353 -0.9628
  126MOL   C17642926   0.532   7.396   6.148  0.3957 -0.2232  0.8789
  126MOL   C17742927   0.646   7.404   6.221 -0.2171  0.4959  0.0532
  126MOL   C17842928   0.647   7.376   6.365  0.2616  0.4668  0.5772
  126MOL   C17942929   0.525   7.359   6.429  0.1577  0.1375  0.5305
  126MOL   O18042930   0.226   7.452   6.490 -0.3444  0.2911 -0.1076
  126MOL   H18142931   0.335   7.257   6.608  1.3721 -1.2050 -0.1245
  126MOL   H18242932   0.340   7.133   6.489 -0.8982 -0.2296 -1.3150
  126MOL   H18342933   0.201   7.299   6.347  0.6542 -0.3526 -0.1839
  126MOL   H18442934   0.322   7.360   6.153 -0.4381 -2.9481  0.3687
  126MOL   H18542935   0.531   7.407   6.040 -1.5756 -0.0302  0.8891
  126MOL   H18642936   0.735   7.418   6.161  0.9878  1.0180  1.9159
  126MOL   H18742937   0.741   7.370   6.417  2.1929 -2.9711 -3.0068
  126MOL   H18842938   0.527   7.350   6.537  0.9268 -1.4246  0.4039
  126MOL   C18942939   0.084   7.466   6.490 -0.0134 -0.2763  0.1989
  126MOL   C19042940   0.057   7.590   6.581  0.2817  0.4239  0.4675
  126MOL   C19142941   0.098   7.721   6.516  0.8011 -0.0828  0.7084
  126MOL   C19242942   0.234   7.745   6.494 -0.1511  0.4188 -0.1437
  126MOL   C19342943   0.279   7.858   6.427 -0.2039  0.3219  0.1702
  126MOL   C19442944   0.192   7.949   6.371 -0.1989 -0.3529 -0.5602
  126MOL   C19542945   0.060   7.939   6.414 -0.3352 -0.0890 -0.2146
  126MOL   C19642946   0.016   7.829   6.489 -0.2466  0.9664 -1.1821
  126MOL   O19742947   0.134   7.570   6.703 -0.2737  0.1299 -0.5632
  126MOL   H19842948   0.056   7.498   6.390 -0.7132 -0.0569  0.4624
  126MOL   H19942949   0.025   7.383   6.527 -0.8054  1.6278  3.4125
  126MOL   H20042950   8.030   7.589   6.599  0.0780 -0.6112 -0.7345
  126MOL   H20142951   0.311   7.673   6.518 -1.4844 -0.6072  1.1311
  126MOL   H20242952   0.385   7.872   6.408 -0.4848  0.3673 -1.4862
  126MOL   H20342953   0.234   8.030   6.313 -1.4542  2.6492  2.5536
  126MOL   H20442954   8.073   8.018   6.384 -0.8881 -0.9001 -1.1312
  126MOL   H20542955   7.991   7.816   6.511  0.1766 -0.2923  0.1304
  126MOL   C20642956   0.102   7.651   6.823 -0.5271 -0.2611 -0.9645
  126MOL   C20742957   0.202   7.622   6.942 -0.2148  0.0422 -0.2906
  126MOL   C20842958   0.185   7.481   7.002 -0.5409 -0.1529  0.5167
  126MOL   C20942959   0.074   7.457   7.086 -0.3485 -0.3119 -0.2146
  126MOL   C21042960   0.068   7.330   7.160 -0.0866 -0.9104 -0.7719
  126MOL   C21142961   0.167   7.231   7.143 -0.0702 -0.4275  0.3039
  126MOL   C21242962   0.277   7.261   7.052 -0.4992  0.1757  0.4085
  126MOL   C21342963   0.282   7.379   6.976  0.7979  0.1634  0.1983
  126MOL   O21442964   0.185   7.725   7.042  0.2673 -0.1382 -0.4027
  126MOL   H21542965   0.117   7.753   6.788 -1.0195 -0.4417 -1.7250
  126MOL   H21642966   8.077   7.635   6.848 -1.0492  2.6571 -1.1096
  126MOL   H21742967   0.308   7.625   6.915  0.4498  1.1068  2.2797
  126MOL   H21842968   8.075   7.530   7.095 -0.1705 -0.0832 -0.5118
  126MOL   H21942969   8.055   7.314   7.213  0.2493 -1.0452 -0.2230
  126MOL   H22042970   0.158   7.139   7.199 -1.1423 -0.5573 -0.0621
  126MOL   H22142971   0.355   7.187   7.038 -2.0904 -1.4226 -0.2338
  126MOL   H22242972   0.363   7.409   6.912  0.8491  0.1751  0.2684
  126MOL   C22342973   0.286   7.720   7.146  0.7122 -0.1061 -0.6828
  126MOL   C22442974   0.370   7.844   7.126  0.1072  0.4425 -0.4546
  126MOL   C22542975   0.448   7.860   7.249  0.1713 -0.0275  0.5680
  126MOL   C22642976   0.418   7.956   7.342 -0.6292  0.3679  0.0076
  126MOL   C22742977   0.507   7.983   7.448 -0.3859 -0.3318  0.2173
  126MOL   C22842978   0.625   7.907   7.465  0.7567 -0.3609 -0.6506
  126MOL   C22942979   0.659   7.807   7.369 -0.4410 -0.3204 -0.2509
  126MOL   C23042980   0.571   7.793   7.262 -0.5090 -0.3139  0.0306
  126MOL   O23142981   0.451   7.824   7.015 -0.2697  0.0044  0.7609
  126MOL   H23242982   0.232   7.728   7.240  0.3474  1.0210 -0.9850
  126MOL   H23342983   0.347   7.630   7.135  1.9610  0.6662 -0.0663
  126MOL   H23442984   0.299   7.925   7.110 -0.9355 -0.4610 -0.4531
  126MOL   H23542985   0.323   8.007   7.333 -0.6658  0.0281 -1.7250
  126MOL   H23642986   0.478   8.055   7.523 -0.0400  0.3354 -0.2832
  126MOL   H23742987   0.683   7.929   7.553 -0.3710 -0.5055  0.1470
  126MOL   H23842988   0.747   7.745   7.375  0.1943  0.6107  0.1121
  126MOL   H23942989   0.589   7.725   7.180  1.7361 -1.6650  1.5908
  126MOL   C24042990   0.423   7.903   6.903  0.7176 -0.5795 -0.6186
  126MOL   C24142991   0.541   7.987   6.866  0.6216 -0.0106 -0.0346
  126MOL   C24242992   0.512   8.042   6.729  0.0008  0.4347 -0.2695
  126MOL   C24342993   0.422   0.070   6.721  0.0648 -0.0547 -0.1968
  126MOL   C24442994   0.410   0.135   6.602 -0.5072 -0.4027 -0.0203
  126MOL   C24542995   0.479   0.100   6.482  0.1240  0.1141  1.1495
  126MOL   C24642996   0.571   8.070   6.489 -0.3664  0.1554  0.5413
  126MOL   C24742997   0.589   8.006   6.618 -0.1523  0.0206 -0.2864
  126MOL   O24842998   0.556   0.017   6.957 -0.5605 -0.2103  0.1720
  126MOL   H24942999   0.397   7.835   6.822 -0.0192  0.1098 -0.9692
  126MOL   H25043000   0.332   7.962   6.915 -1.4520 -3.5918 -1.7876
  126MOL   H25143001   0.629   7.923   6.867  0.5181 -0.1416  1.2387
  126MOL   H25243002   0.371   0.087   6.815  0.3354 -0.1905 -0.0227
  126MOL   H25343003   0.339   0.216   6.591  1.3950  1.6437  1.9554
  126MOL   H25443004   0.461   0.142   6.385 -1.1098 -2.4215  0.2452
  126MOL   H25543005   0.619   8.035   6.399 -0.3348  1.5635  0.0005
  126MOL   H25643006   0.662   7.928   6.628  0.2346  0.4504  0.2301
  126MOL   C25743007   0.668   0.014   7.041  0.5534  0.5994  0.1658
  126MOL   C25843008   0.808   0.039   6.981 -0.1231 -0.9026  0.6799
  126MOL   C25943009   0.915   8.070   7.079  1.3897  0.2667  0.0511
  126MOL   C26043010   0.967   7.934   7.085  0.3832 -0.0967  0.0645
  126MOL   C26143011   1.042   7.892   7.193  1.0559  0.1207  0.2465
  126MOL   C26243012   1.111   7.988   7.277  0.0124  0.2779 -0.0075
  126MOL   C26343013   1.071   0.043   7.268  0.1765  0.2653  0.2560
  126MOL   C26443014   0.975   0.082   7.167  0.0389 -0.3261  0.5933
  126MOL   O26543015   0.818   0.178   6.957 -0.7073  0.0174  0.4120
  126MOL   H26643016   0.663   8.003   7.101  0.4710 -0.1541 -0.9801
  126MOL   H26743017   0.659   0.094   7.114 -1.1477  0.2589  0.3397
  126MOL   H26843018   0.833   8.068   6.887 -0.2229 -1.4802  0.9613
  126MOL   H26943019   0.928   7.861   7.016 -0.7301  2.0769 -1.6656
  126MOL   H27043020   1.065   7.787   7.199 -0.4688 -0.5038 -3.5528
  126MOL   H27143021   1.188   7.955   7.346  1.1187  0.9897 -0.8890
  126MOL   H27243022   1.130   0.118   7.318 -2.2235  0.5306  2.7992
  126MOL   H27343023   0.954   0.187   7.155  0.3832 -0.5022 -1.6408
  126MOL   C27443024   0.750   0.224   6.840 -0.2578 -0.5281 -0.0549
  126MOL   C27543025   0.672   0.344   6.886  0.2764  0.4643  0.4682
  126MOL   C27643026   0.558   0.388   6.797 -0.6468 -0.0268 -0.1330
  126MOL   C27743027   0.424   0.393   6.840 -0.2124 -0.0014  0.3355
  126MOL   C27843028   0.320   0.429   6.753  0.5908 -0.0329 -0.2054
  126MOL   C27943029   0.350   0.472   6.622 -0.2116 -0.6182 -0.6843
  126MOL   C28043030   0.486   0.464   6.578  0.6381 -0.6858  0.0977
  126MOL   C28143031   0.581   0.423   6.665  0.1155  0.4124  0.1586
  126MOL   O28243032   0.771   0.452   6.903 -0.5204 -0.1006  0.4751
  126MOL   H28343033   0.826   0.248   6.765  1.1031 -0.4732  1.3056
  126MOL   H28443034   0.678   0.156   6.795 -1.2914 -0.9954  2.2695
  126MOL   H28543035   0.622   0.324   6.980  0.4722 -0.0116  0.4731
  126MOL   H28643036   0.402   0.364   6.942 -1.1121 -0.7245 -0.0631
  126MOL   H28743037   0.222   0.440   6.796  1.3672 -0.6839  1.8127
  126MOL   H28843038   0.279   0.530   6.565 -1.1392  0.5730  1.6103
  126MOL   H28943039   0.500   0.481   6.472 -0.8305  0.6745  0.1003
  126MOL   H29043040   0.680   0.424   6.620  0.2552 -1.9790  0.3824
  126MOL   C29143041   0.725   0.570   6.972  0.0739 -0.4309  0.1765
  126MOL   C29243042   0.842   0.659   7.022  0.4132  0.1331  0.0074
  126MOL   C29343043   0.918   0.595   7.138 -0.3916  0.3054  0.1640
  126MOL   C29443044   0.990   0.478   7.118  0.2608  0.4940 -0.1506
  126MOL   C29543045   1.071   0.431   7.214 -0.1900 -0.4476  0.7250
  126MOL   C29643046   1.077   0.492   7.339 -0.3846  0.4524  0.1834
  126MOL   C29743047   1.008   0.608   7.365 -0.1656 -0.2585  0.0397
  126MOL   C29843048   0.923   0.662   7.260  0.2108 -0.1392 -0.7024
  126MOL   O29943049   0.929   0.680   6.905  0.7254 -0.2376  0.5452
  126MOL   H30043050   0.652   0.549   7.050 -0.1978 -1.4094 -0.3333
  126MOL   H30143051   0.666   0.630   6.902  0.3977 -0.5208 -0.1749
  126MOL   H30243052   0.807   0.761   7.041  1.3244  0.3563  0.4714
  126MOL   H30343053   0.986   0.432   7.020 -3.5474  1.1674 -0.3858
  126MOL   H30443054   1.123   0.338   7.195 -0.5247 -0.4133 -0.4369
  126MOL   H30543055   1.143   0.445   7.411  0.1565 -1.8871 -1.7501
  126MOL   H30643056   1.009   0.656   7.461  2.0634 -0.5709  0.1907
  126MOL   H30743057   0.880   0.758   7.283  0.8433 -0.5608  2.4725
  126MOL   C30843058   1.048   0.751   6.932  0.2039 -0.5753  1.2684
  126MOL   C30943059   1.109   0.800   6.795 -0.2060  0.1085 -0.0440
  126MOL   C31043060   1.224   0.897   6.813  0.2638 -0.3420  0.9391
  126MOL   C31143061   1.211   1.016   6.886  0.6113  1.0708 -0.0538
  126MOL   C31243062   1.308   1.116   6.894  0.3852  0.0044 -0.4233
  126MOL   C31343063   1.431   1.091   6.833  0.5190 -0.2389  0.3856
  126MOL   C31443064   1.455   0.968   6.766 -0.4482 -0.7500  0.2416
  126MOL   C31543065   1.350   0.875   6.747 -0.3038 -0.4149  0.2106
  126MOL   O31643066   1.148   0.692   6.719 -0.1672  0.3000 -0.0756
  126MOL   H31743067   1.119   0.685   6.982 -0.7188 -2.3608  0.2834
  126MOL   H31843068   1.023   0.839   6.990  2.1287  1.2807 -0.6175
  126MOL   H31943069   1.033   0.864   6.750  2.8053  1.9171 -2.7249
  126MOL   H32043070   1.114   1.031   6.932  0.3201 -1.2266  0.1423
  126MOL   H32143071   1.286   1.207   6.947 -0.5840  0.3428 -1.3811
  126MOL   H32243072   1.513   1.160   6.843  1.7340 -1.3522 -1.5495
  126MOL   H32343073   1.548   0.936   6.721 -1.3339 -1.2522 -1.2866
  126MOL   H32443074   1.355   0.781   6.695  0.5047 -0.3637  0.1988
  126MOL   C32543075   1.041   0.617   6.652  0.7681 -0.5020  1.2526
  126MOL   C32643076   1.106   0.530   6.541  0.5121 -0.3605 -0.2782
  126MOL   C32743077   0.999   0.440   6.471 -0.0399 -0.4939  0.0194
  126MOL   C32843078   0.976   0.315   6.526  0.2816  0.1563  0.0172
  126MOL   C32943079   0.868   0.237   6.477  0.4629  0.3276  1.4018
  126MOL   C33043080   0.791   0.281   6.364 -0.5296  0.0750 -0.2705
  126MOL   C33143081   0.816   0.409   6.308 -0.2037 -0.0850 -0.8141
  126MOL   C33243082   0.925   0.482   6.354  0.1565  0.5025  0.0934
  126MOL   O33343083   1.149   0.632   6.447  0.1041 -0.3521  0.1087
  126MOL   H33443084   0.965   0.674   6.601  1.5067 -1.1404 -0.5884
  126MOL   H33543085   0.991   0.553   6.725 -0.8565 -0.2127  0.4061
  126MOL   H33643086   1.195   0.473   6.568 -0.6039 -1.3531  1.3727
  126MOL   H33743087   1.026   0.272   6.611 -2.1799  0.0110  1.4500
  126MOL   H33843088   0.838   0.147   6.528  2.6505  0.2519  2.6088
  126MOL   H33943089   0.707   0.223   6.329  0.2819 -2.4296  1.7846
  126MOL   H34043090   0.753   0.453   6.232  0.2764  1.3600 -0.3898
  126MOL   H34143091   0.951   0.574   6.305 -1.0564  1.2842  0.8991
  126MOL   H34243092   1.175   0.699   6.508 -0.0585 -1.3142  1.2430
  127MOL     C143093   6.611   1.249   2.972 -0.2516  0.8931 -0.0690
  127MOL     C243094   6.697   1.319   3.082  0.7456  0.2832 -0.0187
  127MOL     C343095   6.713   1.240   3.207 -0.0312 -0.0176  0.3956
  127MOL     C443096   6.842   1.190   3.243 -0.5065  0.6839  0.7256
  127MOL     C543097   6.855   1.108   3.360  0.3608 -0.0392 -0.2234
  127MOL     C643098   6.745   1.074   3.437 -0.0854  0.4905 -0.4626
  127MOL     C743099   6.613   1.119   3.396  0.4740 -0.3982 -0.3015
  127MOL     C843100   6.597   1.195   3.281 -0.2721  0.5906 -0.3252
  127MOL     O943101   6.634   1.442   3.104 -0.3058  0.2096 -0.3401
  127MOL    H1043102   6.596   1.307   2.880 -1.3925  0.6219 -0.0556
  127MOL    H1143103   6.666   1.160   2.944 -1.5563 -0.3968  1.4016
  127MOL    H1243104   6.785   1.341   3.021 -0.9608  0.8494 -2.3808
  127MOL    H1343105   6.929   1.213   3.184 -0.8824 -0.2316 -0.2137
  127MOL    H1443106   6.946   1.062   3.395  0.3092 -0.2879 -0.4065
  127MOL    H1543107   6.752   1.016   3.528 -1.0858 -0.6013 -1.0722
  127MOL    H1643108   6.528   1.088   3.455  0.9787 -0.6463  0.2904
  127MOL    H1743109   6.497   1.228   3.257  0.0080  0.2031 -2.0978
  127MOL    H1843110   6.523   1.203   3.016  1.0204 -1.4525  0.0998
  127MOL    C1943111   6.712   1.546   3.158 -0.5506 -0.2443  0.6267
  127MOL    C2043112   6.695   1.677   3.069  0.0230 -0.1474  0.5660
  127MOL    C2143113   6.552   1.718   3.020 -1.0375 -0.0773  0.4900
  127MOL    C2243114   6.512   1.679   2.892  0.1482  0.5985 -0.3326
  127MOL    C2343115   6.384   1.719   2.847  0.2015 -0.0079 -0.4646
  127MOL    C2443116   6.297   1.789   2.935  0.1427 -0.2140  1.0442
  127MOL    C2543117   6.338   1.832   3.064 -0.5581  0.5649  0.1791
  127MOL    C2643118   6.467   1.789   3.108 -0.2016 -0.1772  0.2454
  127MOL    O2743119   6.771   1.655   2.945  0.8742 -0.1788  0.5312
  127MOL    H2843120   6.672   1.559   3.259 -0.3676  1.9103  0.4389
  127MOL    H2943121   6.816   1.516   3.172 -0.5904 -1.0576 -0.7799
  127MOL    H3043122   6.745   1.748   3.135  1.2825 -0.1796 -0.3349
  127MOL    H3143123   6.561   1.613   2.822 -2.8666 -2.1025 -0.0460
  127MOL    H3243124   6.344   1.684   2.753 -0.3189  1.1507 -0.6904
  127MOL    H3343125   6.198   1.814   2.901  1.4275  0.3060 -2.5647
  127MOL    H3443126   6.278   1.897   3.127  0.4936  1.3112  0.4331
  127MOL    H3543127   6.504   1.818   3.206  2.8637 -0.6901 -0.6833
  127MOL    C3643128   6.826   1.773   2.873  0.3039  0.1471 -0.2774
  127MOL    C3743129   6.967   1.823   2.929  0.6006 -0.5024 -0.0336
  127MOL    C3843130   6.943   1.896   3.065  0.5070 -0.3824 -0.1400
  127MOL    C3943131   6.846   1.992   3.081 -0.3721  0.0588  0.3351
  127MOL    C4043132   6.810   2.043   3.205 -0.0713  0.0496 -0.2453
  127MOL    C4143133   6.889   2.003   3.313 -0.0006 -0.0012 -0.1301
  127MOL    C4243134   7.005   1.923   3.297  0.8017  0.0569 -0.3022
  127MOL    C4343135   7.032   1.864   3.172  0.3278  0.5964 -0.3744
  127MOL    O4443136   7.022   1.898   2.830 -0.4046 -0.3676 -0.5089
  127MOL    H4543137   6.843   1.729   2.775  3.9904  1.4033 -0.2998
  127MOL    H4643138   6.758   1.858   2.872  1.6757  1.2656 -0.4048
  127MOL    H4743139   7.030   1.740   2.960  2.2168  1.3431  1.6891
  127MOL    H4843140   6.800   2.042   2.997  0.9330 -1.1277 -1.1249
  127MOL    H4943141   6.742   2.126   3.213 -0.5925 -0.2663 -1.2901
  127MOL    H5043142   6.875   2.052   3.408 -0.2060  0.9061 -0.6224
  127MOL    H5143143   7.065   1.901   3.383 -1.1882  1.1126  1.3911
  127MOL    H5243144   7.113   1.795   3.153 -0.1444 -0.3107  0.8355
  127MOL    C5343145   7.153   1.958   2.859 -0.2899 -1.1239 -0.2519
  127MOL    C5443146   7.192   2.023   2.724  0.6249  0.1555 -0.0675
  127MOL    C5543147   7.335   2.073   2.730  0.0699  0.4154 -0.1174
  127MOL    C5643148   7.438   1.979   2.704  0.5866 -0.2811  0.1267
  127MOL    C5743149   7.573   2.022   2.726 -0.6943  0.3498 -0.2596
  127MOL    C5843150   7.594   2.154   2.755 -0.2646  0.4824  0.4529
  127MOL    C5943151   7.491   2.251   2.779  0.1891 -0.3761  0.2501
  127MOL    C6043152   7.356   2.205   2.766  0.4050 -0.5979  0.0697
  127MOL    O6143153   7.174   1.918   2.625  0.5713 -0.0127 -0.3302
  127MOL    H6243154   7.159   2.029   2.942 -1.9340 -3.4722  1.9439
  127MOL    H6343155   7.222   1.875   2.877 -0.1161 -0.7651  0.7713
  127MOL    H6443156   7.128   2.108   2.703 -1.6045 -1.2862  0.7274
  127MOL    H6543157   7.427   1.878   2.665 -0.7020  0.4816 -1.5568
  127MOL    H6643158   7.650   1.950   2.705 -1.6452 -0.5625 -0.7015
  127MOL    H6743159   7.697   2.185   2.752 -0.6311  1.8807  1.4014
  127MOL    H6843160   7.511   2.354   2.801  0.5444 -0.2619 -0.5729
  127MOL    H6943161   7.279   2.281   2.772  1.6645  0.7550 -0.6228
  127MOL    C7043162   7.188   1.970   2.492  0.7372 -0.2145 -0.6867
  127MOL    C7143163   7.195   1.864   2.379 -0.3003 -0.3012 -0.1460
  127MOL    C7243164   7.324   1.782   2.381  0.4314 -0.6011 -0.0306
  127MOL    C7343165   7.447   1.847   2.344  0.3910 -0.2910 -1.2091
  127MOL    C7443166   7.567   1.772   2.353 -0.1017 -0.0735  0.6320
  127MOL    C7543167   7.572   1.637   2.389 -0.2769 -0.1189 -0.6124
  127MOL    C7643168   7.447   1.585   2.430 -0.3330  0.0501 -0.4788
  127MOL    C7743169   7.320   1.647   2.426  0.1148  0.0326  0.0428
  127MOL    O7843170   7.183   1.929   2.259 -0.3633  0.4514 -0.1039
  127MOL    H7943171   7.108   2.035   2.457  0.4792 -0.1043  0.0943
  127MOL    H8043172   7.284   2.022   2.497  1.3736 -1.4527  0.1687
  127MOL    H8143173   7.119   1.789   2.399 -0.0272 -0.3770  0.6121
  127MOL    H8243174   7.445   1.952   2.321 -0.4660 -0.4133 -1.7261
  127MOL    H8343175   7.659   1.819   2.324 -1.9573  2.4607 -1.4023
  127MOL    H8443176   7.662   1.578   2.391 -1.2132 -1.5339 -0.0470
  127MOL    H8543177   7.438   1.480   2.457 -0.0940  0.2962  0.5814
  127MOL    H8643178   7.228   1.600   2.459  0.0927 -0.9149 -1.3538
  127MOL    C8743179   7.196   1.846   2.147  0.2656 -0.1165  0.4650
  127MOL    C8843180   7.161   1.942   2.031 -0.0801 -0.0735 -0.3969
  127MOL    C8943181   7.086   1.874   1.917 -0.1102  0.7663  0.2562
  127MOL    C9043182   7.157   1.829   1.800  0.2607 -0.6839  0.2915
  127MOL    C9143183   7.080   1.777   1.693  0.0324 -0.6532 -0.3378
  127MOL    C9243184   6.946   1.745   1.718  0.4608  0.4201  0.4480
  127MOL    C9343185   6.878   1.780   1.830 -0.1343  0.4193  0.0178
  127MOL    C9443186   6.950   1.845   1.933  0.0954  1.2114 -0.4094
  127MOL    O9543187   7.291   1.995   1.986 -0.5674  0.5994  0.0041
  127MOL    H9643188   7.128   1.763   2.167  2.2987 -2.3124 -1.4861
  127MOL    H9743189   7.290   1.799   2.120 -0.2198 -0.5226 -0.5305
  127MOL    H9843190   7.094   2.019   2.069 -1.8596 -2.0095  0.4500
  127MOL    H9943191   7.263   1.839   1.785  0.3476 -1.5500  0.3195
  127MOL   H10043192   7.136   1.746   1.606  0.7394 -0.2423 -0.0377
  127MOL   H10143193   6.883   1.685   1.652 -0.1310  0.1361  1.2600
  127MOL   H10243194   6.771   1.770   1.830 -0.2486  1.5417  0.4678
  127MOL   H10343195   6.899   1.879   2.022 -1.8375  0.4871 -1.2130
  127MOL   C10443196   7.285   2.122   1.911  0.8682  0.1045 -0.4099
  127MOL   C10543197   7.414   2.135   1.824 -0.2806 -0.4349 -0.2250
  127MOL   C10643198   7.533   2.135   1.923 -0.4181  0.0434  0.6902
  127MOL   C10743199   7.576   2.021   1.992 -0.7189  0.3728 -0.5370
  127MOL   C10843200   7.683   2.030   2.084 -0.5219  0.5148 -0.1371
  127MOL   C10943201   7.747   2.151   2.102  0.1421 -0.1158  0.3123
  127MOL   C11043202   7.701   2.272   2.036  0.3184 -0.4586 -0.2105
  127MOL   C11143203   7.594   2.257   1.943 -0.0885 -0.4535 -0.6631
  127MOL   O11243204   7.416   2.029   1.721  0.3942 -0.7134 -0.2778
  127MOL   H11343205   7.198   2.119   1.845  1.2994 -0.9542 -0.9443
  127MOL   H11443206   7.268   2.204   1.981  0.9493 -0.4442  0.2610
  127MOL   H11543207   7.416   2.228   1.766 -1.6677 -2.0246 -2.9165
  127MOL   H11643208   7.521   1.930   1.968 -1.9751  1.0227 -0.1594
  127MOL   H11743209   7.701   1.935   2.132 -4.4140 -0.6545 -0.8504
  127MOL   H11843210   7.836   2.144   2.163 -0.5960  0.2131  1.4396
  127MOL   H11943211   7.757   2.364   2.045 -1.7999  0.8547 -0.2285
  127MOL   H12043212   7.561   2.343   1.886  1.9513  0.8387  0.0453
  127MOL   C12143213   7.513   2.049   1.629 -0.5726  0.5329  0.0922
  127MOL   C12243214   7.585   1.912   1.611 -0.1114 -0.5310 -0.1245
  127MOL   C12343215   7.642   1.896   1.468  0.1818  0.0874 -0.7900
  127MOL   C12443216   7.567   1.814   1.387  0.6658 -0.2644  0.4601
  127MOL   C12543217   7.614   1.794   1.260 -0.0586 -0.4798  0.4699
  127MOL   C12643218   7.734   1.851   1.210 -1.0449 -0.0639 -0.5576
  127MOL   C12743219   7.809   1.938   1.291 -0.4127 -0.6164  0.4228
  127MOL   C12843220   7.757   1.964   1.416 -0.2758  0.8392  0.0523
  127MOL   O12943221   7.690   1.913   1.705 -0.4605  0.8506 -0.4414
  127MOL   H13043222   7.585   2.130   1.642  1.8263 -1.3459 -1.0683
  127MOL   H13143223   7.455   2.086   1.544 -0.2272 -1.9660 -1.2672
  127MOL   H13243224   7.516   1.830   1.632 -1.0044 -0.0882 -1.2789
  127MOL   H13343225   7.477   1.765   1.420  1.2103 -1.9230 -0.4333
  127MOL   H13443226   7.562   1.728   1.192  2.0328 -1.8555  0.1921
  127MOL   H13543227   7.763   1.820   1.110 -0.0074  0.4346 -0.4200
  127MOL   H13643228   7.890   2.001   1.258 -1.0754 -0.8442 -1.7477
  127MOL   H13743229   7.808   2.038   1.476 -1.1828  1.0590  0.5565
  127MOL   C13843230   7.757   1.788   1.717  0.0033 -0.8487  0.0407
  127MOL   C13943231   7.879   1.804   1.810 -0.8353  0.1155 -1.1757
  127MOL   C14043232   7.909   1.673   1.875  0.2224  0.4115 -1.6108
  127MOL   C14143233   7.805   1.614   1.954  0.7523  0.7935  0.2620
  127MOL   C14243234   7.831   1.496   2.025  0.0496  0.7482  0.1211
  127MOL   C14343235   7.955   1.427   2.003  0.0263 -0.2918  0.9029
  127MOL   C14443236   8.053   1.476   1.917  0.2839  0.2254  0.1947
  127MOL   C14543237   8.027   1.602   1.853 -0.2008  0.3275 -0.9883
  127MOL   O14643238   7.997   1.845   1.737  0.4911 -0.2901  0.4999
  127MOL   H14743239   7.805   1.760   1.623 -2.4297 -0.1736 -1.4511
  127MOL   H14843240   7.692   1.703   1.739  0.0850 -1.0734 -0.5765
  127MOL   H14943241   7.845   1.869   1.891 -1.2665 -0.5839 -0.7879
  127MOL   H15043242   7.714   1.668   1.975 -0.4743 -1.3203  0.4364
  127MOL   H15143243   7.749   1.463   2.089  0.1968 -0.8106 -0.4679
  127MOL   H15243244   7.980   1.334   2.053  1.5559 -0.1524  0.4285
  127MOL   H15343245   0.068   1.429   1.902 -0.9116 -1.8436 -1.1001
  127MOL   H15443246   0.033   1.639   1.799  1.4769  1.6422  2.4641
  127MOL   C15543247   7.989   1.987   1.723 -0.1187 -0.1396 -0.2686
  127MOL   C15643248   0.034   2.051   1.661  0.5889 -0.0326 -0.2717
  127MOL   C15743249   0.019   2.202   1.642  0.1918  0.6216 -0.0664
  127MOL   C15843250   8.041   2.253   1.520  0.0122  0.6921 -0.4248
  127MOL   C15943251   8.039   2.395   1.506  0.2867 -0.1021 -0.3828
  127MOL   C16043252   0.003   2.484   1.604 -0.2904  0.2911 -0.5650
  127MOL   C16143253   0.047   2.431   1.723 -0.2907  0.4351 -0.1579
  127MOL   C16243254   0.060   2.289   1.750  0.1872  0.4091 -0.5135
  127MOL   O16343255   0.144   2.019   1.735  0.1456  0.4026 -0.1063
  127MOL   H16443256   7.957   2.045   1.810  2.0668  0.4085  0.1937
  127MOL   H16543257   7.915   2.010   1.645  0.4108  0.1552 -0.6856
  127MOL   H16643258   0.048   2.019   1.557  0.6551  0.7516 -0.5010
  127MOL   H16743259   8.003   2.202   1.433 -2.1703 -1.9165  1.9595
  127MOL   H16843260   8.001   2.439   1.415  0.7836 -1.4077 -1.2439
  127MOL   H16943261   8.076   2.592   1.602 -5.0742  0.2631  4.2409
  127MOL   H17043262   0.071   2.491   1.810 -2.5558  3.6908 -1.6639
  127MOL   H17143263   0.100   2.245   1.840  0.0367  0.2170 -0.5380
  127MOL   C17243264   0.230   1.919   1.689 -0.3027 -0.8084 -0.4415
  127MOL   C17343265   0.327   1.974   1.574  0.1738  0.0506 -0.4607
  127MOL   C17443266   0.381   2.115   1.615  0.4206 -0.2368  0.5267
  127MOL   C17543267   0.339   2.231   1.547  0.2447 -0.4436 -0.0278
  127MOL   C17643268   0.393   2.353   1.589  0.2048  0.6293 -0.5304
  127MOL   C17743269   0.479   2.361   1.703 -0.2055  0.5916 -0.1036
  127MOL   C17843270   0.510   2.243   1.778 -0.5534 -0.3660 -0.9746
  127MOL   C17943271   0.457   2.121   1.733 -0.8340 -0.5050  0.4733
  127MOL   O18043272   0.272   1.961   1.442 -0.1724  0.2888 -0.9708
  127MOL   H18143273   0.296   1.902   1.774  1.0129  2.0695 -0.8316
  127MOL   H18243274   0.195   1.820   1.657  0.0465 -0.8922 -0.5727
  127MOL   H18343275   0.410   1.904   1.581  2.0619  1.9552 -2.8747
  127MOL   H18443276   0.272   2.229   1.463  0.0225 -1.8321  0.1650
  127MOL   H18543277   0.366   2.440   1.531  1.2263  0.5144 -1.1821
  127MOL   H18643278   0.516   2.459   1.729 -0.5597  0.5909  0.4138
  127MOL   H18743279   0.578   2.254   1.861 -3.2054  3.0119  0.8802
  127MOL   H18843280   0.486   2.028   1.781  1.6772 -0.6699 -1.2635
  127MOL   C18943281   0.367   1.996   1.332 -0.1145 -0.1345  0.4578
  127MOL   C19043282   0.443   1.877   1.271 -0.6020 -0.1402 -0.2859
  127MOL   C19143283   0.356   1.766   1.213  0.2123 -0.4122  0.6916
  127MOL   C19243284   0.296   1.790   1.093 -0.6609  0.2487 -0.5176
  127MOL   C19343285   0.207   1.695   1.031 -0.9257  0.2293  0.2418
  127MOL   C19443286   0.175   1.578   1.103  0.6516 -0.1730  0.0374
  127MOL   C19543287   0.251   1.544   1.221  0.1467 -0.1963 -0.3960
  127MOL   C19643288   0.332   1.641   1.282  0.6105 -0.3865  0.0780
  127MOL   O19743289   0.538   1.822   1.368  0.2279  0.3026  0.5469
  127MOL   H19843290   0.310   2.024   1.244  2.3424  0.6517 -0.9329
  127MOL   H19943291   0.436   2.077   1.355  0.3835 -0.1762 -0.8518
  127MOL   H20043292   0.502   1.914   1.187  1.7172 -1.3908  0.7436
  127MOL   H20143293   0.316   1.883   1.041  1.7206 -0.0035 -0.1474
  127MOL   H20243294   0.151   1.720   0.942  0.7247 -1.3764 -1.2844
  127MOL   H20343295   0.104   1.508   1.061 -2.1170  0.6074  3.2179
  127MOL   H20443296   0.230   1.450   1.270 -1.4860  0.9256  1.1217
  127MOL   H20543297   0.376   1.620   1.378  0.9738  0.4029  0.0903
  127MOL   C20643298   0.646   1.898   1.409 -0.4289 -0.0375 -0.3380
  127MOL   C20743299   0.726   1.830   1.522  0.5788  0.1731  0.7032
  127MOL   C20843300   0.762   1.687   1.484  1.0077  0.5933 -0.0340
  127MOL   C20943301   0.664   1.583   1.507 -0.0207 -0.4878  0.0517
  127MOL   C21043302   0.694   1.452   1.480  0.1935 -0.0538  1.0230
  127MOL   C21143303   0.823   1.418   1.437  0.0618 -0.0176  0.2124
  127MOL   C21243304   0.918   1.520   1.412 -0.5502 -0.3379 -0.0290
  127MOL   C21343305   0.893   1.653   1.436  1.1359  0.2564 -1.3849
  127MOL   O21443306   0.662   1.843   1.649 -0.3631  0.1009  0.2443
  127MOL   H21543307   0.709   1.921   1.323 -1.8041  0.1970 -1.2923
  127MOL   H21643308   0.618   1.998   1.440 -0.5978 -0.0370 -0.4878
  127MOL   H21743309   0.820   1.885   1.516  1.3980 -1.0981  1.5703
  127MOL   H21843310   0.567   1.604   1.551 -0.0747 -2.1626  0.7671
  127MOL   H21943311   0.613   1.382   1.493 -1.0911  1.3983  1.0179
  127MOL   H22043312   0.836   1.317   1.402  1.5799  0.8020 -1.7151
  127MOL   H22143313   1.016   1.499   1.371 -0.3352  2.2952 -0.9252
  127MOL   H22243314   0.970   1.727   1.423  0.2377  0.9567 -2.8276
  127MOL   C22343315   0.759   1.827   1.754  0.4905  0.0354 -0.6406
  127MOL   C22443316   0.812   1.962   1.799 -0.2654  0.4423 -0.0789
  127MOL   C22543317   0.861   1.963   1.945  0.3327 -0.1448 -0.3468
  127MOL   C22643318   0.759   1.936   2.035  0.1340  1.0626  0.1141
  127MOL   C22743319   0.790   1.929   2.175  0.1549  0.4648 -0.2079
  127MOL   C22843320   0.922   1.934   2.216  0.2914 -0.5696 -0.4915
  127MOL   C22943321   1.024   1.957   2.128  0.3617 -0.0584  0.3488
  127MOL   C23043322   0.994   1.972   1.991  0.6411 -0.1929  0.2100
  127MOL   O23143323   0.907   2.016   1.711  0.0914  0.0397  0.0956
  127MOL   H23243324   0.706   1.782   1.838  0.0359  0.7924 -0.5169
  127MOL   H23343325   0.842   1.762   1.727  0.7446  0.6300 -1.3147
  127MOL   H23443326   0.721   2.021   1.792 -0.4446 -0.0269 -2.2249
  127MOL   H23543327   0.656   1.918   2.008  0.3021  0.5215 -0.1797
  127MOL   H23643328   0.712   1.912   2.247 -0.2374  1.1656 -0.4628
  127MOL   H23743329   0.950   1.913   2.318  1.1234 -0.6701 -0.7330
  127MOL   H23843330   1.120   1.934   2.171  0.1121 -0.8263  0.4999
  127MOL   H23943331   1.072   1.974   1.916  0.3600 -0.7533 -0.1089
  127MOL   C24043332   0.925   2.161   1.727  0.6496  0.2203 -0.2995
  127MOL   C24143333   1.005   2.206   1.606 -0.2478 -0.3660  0.9167
  127MOL   C24243334   0.971   2.133   1.474 -0.1637  0.6030  0.4193
  127MOL   C24343335   0.873   2.187   1.387 -0.2439  0.5313  0.2728
  127MOL   C24443336   0.872   2.137   1.254 -0.2093  0.5961 -0.2712
  127MOL   C24543337   0.959   2.038   1.206  0.0575  0.2396  0.1168
  127MOL   C24643338   1.041   1.978   1.297 -0.1784 -0.3820 -0.6254
  127MOL   C24743339   1.049   2.024   1.435 -0.1361 -0.1023 -0.5761
  127MOL   O24843340   0.970   2.346   1.599  0.5145 -0.3209  0.1283
  127MOL   H24943341   0.829   2.211   1.726  0.6337  0.2070  0.4402
  127MOL   H25043342   0.970   2.199   1.819 -0.9449  2.9049 -0.6071
  127MOL   H25143343   1.111   2.197   1.629 -0.1830 -0.0939  0.7270
  127MOL   H25243344   0.810   2.266   1.425  1.2453  0.8131  2.2503
  127MOL   H25343345   0.800   2.182   1.187 -0.6544  0.5405  0.1681
  127MOL   H25443346   0.947   2.008   1.103  0.9405 -1.3427  0.4570
  127MOL   H25543347   1.116   1.910   1.260  0.8253  0.8458 -0.8870
  127MOL   H25643348   1.130   1.992   1.499 -0.1585  1.2773  0.1484
  127MOL   C25743349   1.067   2.422   1.524 -0.2286 -0.9931  0.1252
  127MOL   C25843350   1.042   2.570   1.535  0.1965 -0.6594  0.3517
  127MOL   C25943351   0.910   2.616   1.470 -0.1376  0.8389  0.1582
  127MOL   C26043352   0.900   2.634   1.331  0.3041  0.1819  0.1379
  127MOL   C26143353   0.776   2.662   1.270 -0.4829 -0.5793 -0.1415
  127MOL   C26243354   0.674   2.703   1.359  0.0098  0.2976 -0.0901
  127MOL   C26343355   0.688   2.701   1.498  0.4709 -0.0234 -0.7064
  127MOL   C26443356   0.805   2.651   1.553  0.3848  0.3140 -0.6086
  127MOL   O26543357   1.150   2.637   1.485  0.4480 -0.9290  0.4194
  127MOL   H26643358   1.065   2.401   1.418  1.3585 -1.5172  0.1929
  127MOL   H26743359   1.163   2.393   1.567 -0.5702 -0.6021  1.1799
  127MOL   H26843360   1.033   2.599   1.640  0.8818 -2.3693  0.9047
  127MOL   H26943361   0.976   2.601   1.262 -0.2388  0.5369 -0.6335
  127MOL   H27043362   0.768   2.665   1.163 -1.3327  2.0465 -0.0542
  127MOL   H27143363   0.583   2.742   1.317 -0.6253  0.7480  1.6630
  127MOL   H27243364   0.606   2.735   1.560  0.9691 -4.5364  2.7315
  127MOL   H27343365   0.812   2.622   1.657 -1.8518 -0.1153 -0.5600
  127MOL   C27443366   1.161   2.770   1.538  0.6643 -0.4878 -0.0406
  127MOL   C27543367   1.285   2.843   1.475 -0.6800 -0.0077 -0.3135
  127MOL   C27643368   1.283   2.843   1.322  0.0926  0.2281  0.2205
  127MOL   C27743369   1.378   2.766   1.251  0.4493 -0.4570  0.2596
  127MOL   C27843370   1.373   2.752   1.110 -0.0691  0.8762 -1.0418
  127MOL   C27943371   1.267   2.821   1.039 -0.4891  0.1789  0.4130
  127MOL   C28043372   1.163   2.875   1.107 -0.4162 -1.1926 -0.5193
  127MOL   C28143373   1.173   2.888   1.247  0.0080 -0.3837 -0.0207
  127MOL   O28243374   1.401   2.802   1.551 -0.3577 -0.1218  1.3315
  127MOL   H28343375   1.075   2.831   1.511  1.1606 -0.0339 -0.6077
  127MOL   H28443376   1.173   2.776   1.646  1.5459  0.9584 -0.2111
  127MOL   H28543377   1.274   2.949   1.498 -0.5263 -0.0110 -0.2255
  127MOL   H28643378   1.448   2.712   1.314 -0.4675  1.1977  2.8001
  127MOL   H28743379   1.443   2.686   1.061  0.4794 -0.3316  1.2838
  127MOL   H28843380   1.264   2.808   0.932  0.1905  2.0545  0.1503
  127MOL   H28943381   1.077   2.919   1.058 -1.0494 -0.1938  1.4414
  127MOL   H29043382   1.102   2.950   1.300  0.3567  0.1926 -0.2185
  127MOL   C29143383   1.507   2.894   1.559  0.2968 -0.2015 -0.1409
  127MOL   C29243384   1.590   2.835   1.675  0.7830 -0.4995  0.4283
  127MOL   C29343385   1.669   2.713   1.636 -0.1867 -0.4982  0.4222
  127MOL   C29443386   1.766   2.725   1.540  1.1753  0.3057 -0.2867
  127MOL   C29543387   1.847   2.613   1.509  0.1431  0.3104  0.0534
  127MOL   C29643388   1.829   2.487   1.573 -0.4338 -0.5104  0.6047
  127MOL   C29743389   1.722   2.475   1.665  0.0334 -0.4785  0.7192
  127MOL   C29843390   1.649   2.592   1.702 -0.6418  0.4447 -0.0044
  127MOL   O29943391   1.675   2.949   1.701  0.0439  0.5703 -0.0077
  127MOL   H30043392   1.464   2.989   1.588  1.2972  0.8576 -2.0120
  127MOL   H30143393   1.555   2.905   1.461  1.2280  0.6753  0.4119
  127MOL   H30243394   1.523   2.821   1.760  2.3743 -0.7459  1.6566
  127MOL   H30343395   1.779   2.819   1.488  1.7327  1.4196  1.7902
  127MOL   H30443396   1.934   2.619   1.446  1.5354  2.2247  2.0851
  127MOL   H30543397   1.891   2.405   1.540  0.8000  0.3406  0.7624
  127MOL   H30643398   1.700   2.379   1.710  0.8343 -0.7200  0.6028
  127MOL   H30743399   1.592   2.577   1.792  0.6893 -1.9773  0.4783
  127MOL   C30843400   1.733   2.958   1.836  0.6337 -0.3829  0.0237
  127MOL   C30943401   1.811   3.088   1.840  0.3050 -1.0781 -0.3172
  127MOL   C31043402   1.729   3.220   1.833  0.2219 -0.1133  0.5533
  127MOL   C31143403   1.652   3.261   1.944  0.1833 -0.1164 -0.4611
  127MOL   C31243404   1.576   3.384   1.929  0.3274  0.3026 -0.7747
  127MOL   C31343405   1.587   3.458   1.809  0.0208  0.2094  0.0307
  127MOL   C31443406   1.660   3.414   1.703 -0.5638  0.2162  0.3947
  127MOL   C31543407   1.732   3.294   1.715 -0.1828 -0.5778  1.1541
  127MOL   O31643408   1.870   3.075   1.969  0.0967 -0.0134 -0.0854
  127MOL   H31743409   1.802   2.874   1.839  0.7740 -0.2595  0.3092
  127MOL   H31843410   1.668   2.962   1.923  2.9850 -3.7649  2.0389
  127MOL   H31943411   1.889   3.085   1.764  0.1840  0.6189 -0.5206
  127MOL   H32043412   1.654   3.211   2.040  0.2644 -0.4169 -0.6191
  127MOL   H32143413   1.520   3.418   2.014 -0.1187  0.3859 -1.1023
  127MOL   H32243414   1.540   3.555   1.806  2.5880  1.4871 -0.8564
  127MOL   H32343415   1.664   3.468   1.609  0.7480 -1.8200 -0.7735
  127MOL   H32443416   1.789   3.258   1.631 -3.2280 -0.2055 -1.1616
  127MOL   C32543417   1.996   3.150   1.981 -0.5992 -0.7888  1.0342
  127MOL   C32643418   2.081   3.091   2.100  0.8793  0.6377 -0.5922
  127MOL   C32743419   1.998   3.050   2.226 -0.4571  0.5280  0.3098
  127MOL   C32843420   1.903   3.136   2.277  0.4853  0.4841 -0.0362
  127MOL   C32943421   1.836   3.107   2.401  0.5021  0.6644 -0.2590
  127MOL   C33043422   1.868   2.991   2.476 -0.1858 -0.4703 -0.5122
  127MOL   C33143423   1.971   2.904   2.426 -0.1693  0.0926 -0.1988
  127MOL   C33243424   2.033   2.933   2.300 -0.3960  0.2123  0.3080
  127MOL   O33343425   2.153   2.985   2.032 -0.0825  0.3543  0.0405
  127MOL   H33443426   1.963   3.253   2.000  2.4886 -0.1734  3.5074
  127MOL   H33543427   2.050   3.144   1.886 -1.0722 -1.6397  0.8196
  127MOL   H33643428   2.142   3.177   2.127  0.7289  0.6171 -0.1798
  127MOL   H33743429   1.877   3.226   2.222 -0.9927 -0.6258 -1.1820
  127MOL   H33843430   1.756   3.173   2.429  0.0119 -0.1141  0.1887
  127MOL   H33943431   1.804   2.975   2.561 -2.2375  1.7864 -1.5538
  127MOL   H34043432   1.994   2.814   2.481 -2.6971  0.2248  1.1888
  127MOL   H34143433   2.105   2.858   2.272  1.9519  1.7411  2.0096
  127MOL   H34243434   2.092   2.918   2.006 -0.7961  0.7698  0.6200
  128MOL     C143435   4.366   3.702   6.081  0.5575 -0.4064  0.0560
  128MOL     C243436   4.217   3.749   6.089 -0.1091  0.2571 -0.2608
  128MOL     C343437   4.188   3.861   5.991 -0.3979  0.0549 -0.3460
  128MOL     C443438   4.164   3.991   6.036 -0.0889  0.2845 -0.1121
  128MOL     C543439   4.143   4.096   5.947  0.6574  0.6155  0.1392
  128MOL     C643440   4.137   4.071   5.808 -0.1265 -0.2352 -0.2475
  128MOL     C743441   4.149   3.936   5.767  0.1047 -0.3742  0.1903
  128MOL     C843442   4.181   3.833   5.852  0.2501  0.2254 -0.0866
  128MOL     O943443   4.193   3.781   6.226 -0.4856  0.8811  0.3322
  128MOL    H1043444   4.438   3.775   6.118 -0.2235  0.7137 -0.6166
  128MOL    H1143445   4.385   3.617   6.147  0.7266  2.0364  3.2391
  128MOL    H1243446   4.153   3.666   6.060 -1.1817  0.6393  0.9439
  128MOL    H1343447   4.169   4.011   6.142  1.2833 -1.0792  0.0997
  128MOL    H1443448   4.123   4.197   5.979  1.3436  0.9779 -0.5556
  128MOL    H1543449   4.109   4.155   5.747 -0.1601  0.9999  1.4375
  128MOL    H1643450   4.135   3.915   5.662  1.5760 -0.9157  0.0983
  128MOL    H1743451   4.187   3.733   5.813 -1.2318  0.8249 -1.9656
  128MOL    H1843452   4.397   3.672   5.981 -0.8128 -0.9954 -0.2089
  128MOL    C1943453   4.055   3.797   6.261 -0.2291 -0.1211  1.1017
  128MOL    C2043454   4.033   3.806   6.418 -0.5017  0.2738 -0.0710
  128MOL    C2143455   4.124   3.905   6.482 -0.4847  0.4551 -0.3059
  128MOL    C2243456   4.262   3.875   6.492  0.0154 -0.0786  0.0023
  128MOL    C2343457   4.347   3.964   6.559 -0.0138 -0.1510 -0.4324
  128MOL    C2443458   4.298   4.086   6.606 -0.4426  0.1212  0.3128
  128MOL    C2543459   4.159   4.104   6.608 -0.4883  0.1219 -0.3349
  128MOL    C2643460   4.074   4.025   6.538 -0.6729  0.7645 -0.2995
  128MOL    O2743461   4.055   3.672   6.467  0.1271  0.7563  0.1039
  128MOL    H2843462   4.001   3.880   6.215  0.7299 -0.1657 -0.1128
  128MOL    H2943463   3.995   3.709   6.240  0.5821 -0.0279 -1.7193
  128MOL    H3043464   3.930   3.835   6.441 -1.0418 -0.5022 -1.5049
  128MOL    H3143465   4.282   3.776   6.454 -1.0818 -0.0610 -0.6470
  128MOL    H3243466   4.451   3.940   6.579  0.3763  1.6218 -0.3199
  128MOL    H3343467   4.367   4.155   6.653  0.3145 -0.2918 -0.1880
  128MOL    H3443468   4.123   4.198   6.648  0.7496 -0.0876  1.3398
  128MOL    H3543469   3.969   4.053   6.534 -0.2861  2.3415  0.3277
  128MOL    C3643470   4.041   3.653   6.609 -0.7845  0.3732 -0.1338
  128MOL    C3743471   4.006   3.506   6.622  0.5676 -0.2463  0.3417
  128MOL    C3843472   3.918   3.487   6.748 -0.2055  0.6109  0.2681
  128MOL    C3943473   3.772   3.498   6.740 -1.0113 -0.0711  0.1732
  128MOL    C4043474   3.706   3.509   6.861  0.9291  0.5494  0.7076
  128MOL    C4143475   3.775   3.484   6.984 -0.2794 -0.7422 -0.0591
  128MOL    C4243476   3.916   3.462   6.993 -0.2723 -0.1293 -0.8626
  128MOL    C4343477   3.984   3.460   6.872 -0.4587 -0.0849  0.4398
  128MOL    O4443478   4.130   3.437   6.621  0.1334 -0.1329 -0.5023
  128MOL    H4543479   4.137   3.680   6.653  0.1805  0.5045 -2.2582
  128MOL    H4643480   3.961   3.716   6.647 -2.1153 -0.5506 -1.3573
  128MOL    H4743481   3.937   3.468   6.546 -1.9783  2.2836  1.3039
  128MOL    H4843482   3.715   3.501   6.648 -1.9227  0.9621  0.7475
  128MOL    H4943483   3.599   3.520   6.860  0.4988 -2.5936  3.6618
  128MOL    H5043484   3.704   3.491   7.065  0.2430  0.4375  0.3119
  128MOL    H5143485   3.960   3.444   7.090 -0.6243  3.1223 -0.0501
  128MOL    H5243486   4.090   3.440   6.881  0.0456  2.1493 -0.2983
  128MOL    C5343487   4.139   3.301   6.582  0.0044 -0.3381  0.7593
  128MOL    C5443488   4.200   3.278   6.447 -0.1591 -0.6441  0.2199
  128MOL    C5543489   4.341   3.347   6.453  0.7466 -0.3792 -0.7503
  128MOL    C5643490   4.374   3.481   6.410 -0.1308  0.4623  0.1993
  128MOL    C5743491   4.505   3.536   6.421 -0.1941 -0.4592 -0.1001
  128MOL    C5843492   4.603   3.462   6.488 -0.1512 -0.4677  0.6972
  128MOL    C5943493   4.573   3.334   6.535  0.3225  0.2560  0.7760
  128MOL    C6043494   4.443   3.276   6.514  0.3035  0.4797 -0.4392
  128MOL    O6143495   4.203   3.134   6.420 -0.1452 -0.1386 -0.2946
  128MOL    H6243496   4.196   3.238   6.651 -3.0380 -3.7232  0.3509
  128MOL    H6343497   4.040   3.256   6.580  0.2530 -0.8575 -0.1761
  128MOL    H6443498   4.150   3.320   6.360  0.2711 -0.4325  0.0698
  128MOL    H6543499   4.299   3.550   6.374 -0.8014 -1.7837 -2.9305
  128MOL    H6643500   4.530   3.628   6.370  0.1185 -0.5328 -0.0840
  128MOL    H6743501   4.707   3.491   6.490 -0.1580 -0.0803 -2.4610
  128MOL    H6843502   4.645   3.268   6.581  0.6235  0.3175  0.3982
  128MOL    H6943503   4.423   3.175   6.545 -0.1659  1.0305  1.1367
  128MOL    C7043504   4.083   3.070   6.384  0.0465  0.0273  0.1137
  128MOL    C7143505   4.043   2.962   6.495 -0.1294  0.5540  0.2100
  128MOL    C7243506   3.979   2.834   6.448 -0.0320  0.2652 -0.0423
  128MOL    C7343507   3.857   2.797   6.503 -0.3913  1.1019 -0.4880
  128MOL    C7443508   3.788   2.680   6.465 -0.7250 -0.0467 -0.4031
  128MOL    C7543509   3.846   2.593   6.373 -0.7164  0.5808 -0.3581
  128MOL    C7643510   3.975   2.625   6.326 -0.3371  0.3901  0.4857
  128MOL    C7743511   4.044   2.741   6.363 -0.8513 -1.0441  0.2341
  128MOL    O7843512   3.977   3.020   6.606  0.1510  0.1076  0.0638
  128MOL    H7943513   4.000   3.140   6.371  0.2242 -0.2300 -2.6401
  128MOL    H8043514   4.102   3.022   6.288  2.3579  2.1693 -0.5487
  128MOL    H8143515   4.143   2.924   6.515 -1.1363 -1.9209  0.7352
  128MOL    H8243516   3.807   2.866   6.569 -1.2302  0.6652 -0.6574
  128MOL    H8343517   3.688   2.657   6.497 -0.8465  1.5908  0.4434
  128MOL    H8443518   3.796   2.500   6.353 -0.3915  0.3510 -0.1192
  128MOL    H8543519   4.015   2.557   6.253 -1.0854  0.5516 -0.0977
  128MOL    H8643520   4.139   2.753   6.313 -1.1830  0.3003 -0.1034
  128MOL    C8743521   4.030   2.968   6.732  0.4773 -0.6631  0.1722
  128MOL    C8843522   3.981   3.055   6.854 -0.5374  0.0697  0.4606
  128MOL    C8943523   4.066   3.029   6.979 -0.2831 -0.5577 -0.1888
  128MOL    C9043524   4.045   2.911   7.050 -0.2031  0.3836  0.4621
  128MOL    C9143525   4.104   2.894   7.176 -0.0736 -0.1343  0.5355
  128MOL    C9243526   4.198   2.986   7.226 -0.1832 -0.2014  0.3201
  128MOL    C9343527   4.228   3.096   7.145  0.0663 -0.6334  0.3033
  128MOL    C9443528   4.159   3.125   7.026 -0.2131 -0.3169  0.3559
  128MOL    O9543529   3.841   3.023   6.861 -0.2899 -0.6389  0.2014
  128MOL    H9643530   4.138   2.980   6.735  0.3292  1.2762 -1.2318
  128MOL    H9743531   4.004   2.864   6.754  0.6507 -0.8725 -0.5872
  128MOL    H9843532   3.991   3.161   6.834 -0.0362 -0.2087 -0.7881
  128MOL    H9943533   3.974   2.838   7.014  1.6940 -0.9231 -0.7631
  128MOL   H10043534   4.079   2.811   7.240  0.8248  0.3804  1.5837
  128MOL   H10143535   4.242   2.968   7.324 -0.6223 -2.6848  0.1067
  128MOL   H10243536   4.296   3.172   7.183 -0.2787 -0.7523  1.1648
  128MOL   H10343537   4.173   3.211   6.962 -2.1390 -0.8182 -0.7943
  128MOL   C10443538   3.765   3.099   6.947 -0.2727  0.2251  0.2471
  128MOL   C10543539   3.620   3.090   6.914 -0.0187  0.9409  0.4084
  128MOL   C10643540   3.568   3.157   6.794 -0.3334  0.0416  0.4815
  128MOL   C10743541   3.462   3.249   6.800 -1.2039 -0.1949 -0.1896
  128MOL   C10843542   3.430   3.334   6.689 -0.2541  0.4710 -0.5002
  128MOL   C10943543   3.482   3.312   6.564  0.1845 -0.2557 -0.5112
  128MOL   C11043544   3.571   3.207   6.550 -0.2541 -0.5718 -0.0138
  128MOL   C11143545   3.620   3.135   6.663  0.1194 -0.0325  0.0377
  128MOL   O11243546   3.581   2.949   6.916 -0.7265  0.6943  0.5070
  128MOL   H11343547   3.785   3.065   7.048  0.9789 -1.4879 -0.5535
  128MOL   H11443548   3.793   3.203   6.932  0.4310  0.1217  0.8436
  128MOL   H11543549   3.557   3.133   6.992  0.1219  0.0021  1.0629
  128MOL   H11643550   3.420   3.270   6.898 -0.2711 -0.7590  0.3378
  128MOL   H11743551   3.352   3.406   6.705  0.6971  0.9915  2.1336
  128MOL   H11843552   3.445   3.371   6.482 -0.7942  0.6307  0.5465
  128MOL   H11943553   3.606   3.166   6.456  2.0474  2.4519 -0.5495
  128MOL   H12043554   3.703   3.066   6.659  1.3078  1.4327 -1.3556
  128MOL   C12143555   3.553   2.896   7.044 -0.3562  0.1172  0.2636
  128MOL   C12243556   3.549   2.738   7.042  0.7575 -0.1550 -0.4183
  128MOL   C12343557   3.674   2.657   7.022  0.0382  0.4279  0.4639
  128MOL   C12443558   3.727   2.651   6.894 -0.3054  0.3307  0.3623
  128MOL   C12543559   3.855   2.577   6.878  0.5824 -0.3095  1.0612
  128MOL   C12643560   3.921   2.518   6.985 -0.5420 -0.3648  0.3146
  128MOL   C12743561   3.867   2.535   7.113  0.6019  0.2796 -0.3774
  128MOL   C12843562   3.752   2.610   7.135 -0.6336 -0.3025  0.0884
  128MOL   O12943563   3.482   2.704   7.166 -0.4307 -0.3792 -0.6471
  128MOL   H13043564   3.454   2.927   7.076 -1.7816 -1.9817 -2.0089
  128MOL   H13143565   3.630   2.934   7.112 -0.9627  0.6193  0.6718
  128MOL   H13243566   3.488   2.709   6.956  0.5214 -0.4111 -0.1663
  128MOL   H13343567   3.663   2.683   6.813 -0.4093  0.5416  0.5264
  128MOL   H13443568   3.894   2.577   6.778 -0.4947  2.2608  0.5836
  128MOL   H13543569   4.015   2.467   6.972  0.0668  1.0044 -0.6625
  128MOL   H13643570   3.922   2.506   7.202 -1.4360  0.1675  0.8786
  128MOL   H13743571   3.712   2.626   7.234 -1.5721  1.9038 -0.6215
  128MOL   C13843572   3.395   2.592   7.171  0.5238  1.0448 -0.4068
  128MOL   C13943573   3.313   2.596   7.301  0.6352  0.7243 -0.2233
  128MOL   C14043574   3.394   2.599   7.431  0.3945  0.7638 -0.0117
  128MOL   C14143575   3.440   2.722   7.486  0.8696 -0.1494  0.0250
  128MOL   C14243576   3.508   2.712   7.609  0.1915 -0.0077  0.0062
  128MOL   C14343577   3.529   2.588   7.671 -0.4516 -0.2489  0.4888
  128MOL   C14443578   3.494   2.465   7.615 -0.0881  0.0182  0.5286
  128MOL   C14543579   3.428   2.470   7.489  0.6806  0.0707 -0.0298
  128MOL   O14643580   3.234   2.712   7.294 -0.1954 -0.3987 -1.1312
  128MOL   H14743581   3.465   2.508   7.164  0.9366  1.0422  2.9824
  128MOL   H14843582   3.325   2.589   7.088 -0.3961  1.2555  0.3676
  128MOL   H14943583   3.241   2.514   7.298  0.1913  1.1065 -0.0189
  128MOL   H15043584   3.430   2.820   7.441 -1.2753 -0.1919  0.3243
  128MOL   H15143585   3.532   2.801   7.665  1.5649 -0.1972 -0.2534
  128MOL   H15243586   3.577   2.594   7.768 -0.8431 -0.7563  0.7135
  128MOL   H15343587   3.512   2.375   7.672 -1.9292  0.1205  1.3163
  128MOL   H15443588   3.397   2.376   7.446 -1.3128  0.3707  0.6962
  128MOL   C15543589   3.105   2.716   7.361 -0.3441  0.4406 -0.4898
  128MOL   C15643590   3.028   2.841   7.316 -0.2121  0.0724 -0.2436
  128MOL   C15743591   3.100   2.971   7.340 -0.1332  0.0502  0.2735
  128MOL   C15843592   3.053   3.062   7.435  0.1734 -0.2090 -0.4632
  128MOL   C15943593   3.130   3.177   7.460 -0.1751 -0.6418 -0.0541
  128MOL   C16043594   3.227   3.216   7.371  0.5319  0.0418  0.1372
  128MOL   C16143595   3.255   3.137   7.262 -0.1709 -0.1040 -0.4042
  128MOL   C16243596   3.198   3.010   7.248 -0.4309 -0.7007 -0.5077
  128MOL   O16343597   2.974   2.835   7.180  0.0866  0.2288  0.1922
  128MOL   H16443598   3.126   2.719   7.468  2.8833  0.1840 -1.0727
  128MOL   H16543599   3.035   2.637   7.336  0.1214 -0.3436  0.6541
  128MOL   H16643600   2.937   2.830   7.374 -0.2840  1.8673  0.0065
  128MOL   H16743601   2.972   3.029   7.498  0.2459 -0.1513 -0.3372
  128MOL   H16843602   3.115   3.225   7.556  0.1358 -0.8170  0.0811
  128MOL   H16943603   3.297   3.293   7.400  0.0366 -0.0873  1.6883
  128MOL   H17043604   3.345   3.153   7.204 -0.5358 -0.0596 -0.9552
  128MOL   H17143605   3.248   2.946   7.176  0.1307 -3.2684  2.0539
  128MOL   C17243606   2.842   2.897   7.153 -0.1564  0.1494 -0.3306
  128MOL   C17343607   2.818   2.907   7.001 -0.2147  0.3569  0.4737
  128MOL   C17443608   2.913   3.007   6.939  0.4449  0.5787 -0.1712
  128MOL   C17543609   2.879   3.143   6.931 -0.4909 -0.6171 -0.1440
  128MOL   C17643610   2.976   3.233   6.877  0.5394 -0.1734  0.5899
  128MOL   C17743611   3.098   3.188   6.831  0.9798 -0.5825 -0.2629
  128MOL   C17843612   3.140   3.055   6.852 -1.0658  0.8904  0.4413
  128MOL   C17943613   3.044   2.962   6.893  0.4794 -0.6233 -0.6385
  128MOL   O18043614   2.675   2.951   6.990  0.6136  0.0652 -0.1579
  128MOL   H18143615   2.757   2.838   7.189  0.2193 -1.0520 -1.3779
  128MOL   H18243616   2.836   2.984   7.218 -3.6509 -0.7839  0.7012
  128MOL   H18343617   2.828   2.809   6.953  0.0188  1.5952 -2.0587
  128MOL   H18443618   2.787   3.176   6.978 -0.9233  0.3520 -1.6340
  128MOL   H18543619   2.951   3.335   6.855  0.5173 -0.4846 -0.8323
  128MOL   H18643620   3.167   3.268   6.805 -1.7802  2.2083  0.6857
  128MOL   H18743621   3.235   3.027   6.809 -1.3394 -1.6622  1.4018
  128MOL   H18843622   3.076   2.861   6.914  2.3270  0.0534 -0.0988
  128MOL   C18943623   2.614   2.943   6.856  0.0302  0.3280 -0.3193
  128MOL   C19043624   2.563   2.809   6.810 -0.7477  0.5252  0.3111
  128MOL   C19143625   2.502   2.716   6.921  0.6806  0.1016 -0.3223
  128MOL   C19243626   2.369   2.732   6.972  0.0065 -0.7976  0.2474
  128MOL   C19343627   2.318   2.649   7.074 -0.0210  0.1616 -0.0984
  128MOL   C19443628   2.401   2.546   7.127  0.3217 -0.3206 -0.1773
  128MOL   C19543629   2.530   2.516   7.070  0.4819  0.5512 -0.1422
  128MOL   C19643630   2.575   2.600   6.962  0.2011 -0.3775  0.4911
  128MOL   O19743631   2.664   2.740   6.733  0.0500  0.1471 -0.2141
  128MOL   H19843632   2.531   3.014   6.854  0.8902  1.4453  1.9168
  128MOL   H19943633   2.679   2.993   6.784  2.7110 -1.2256  0.9500
  128MOL   H20043634   2.486   2.839   6.739 -0.6002 -0.5921 -0.3272
  128MOL   H20143635   2.309   2.811   6.930  1.1511 -1.8180 -3.4182
  128MOL   H20243636   2.221   2.673   7.115  0.6741  1.5359  0.7687
  128MOL   H20343637   2.365   2.484   7.208 -2.0175 -0.3517 -1.2130
  128MOL   H20443638   2.596   2.438   7.106  0.5666  1.7811  2.4502
  128MOL   H20543639   2.670   2.576   6.917  0.3910 -2.7805  2.0499
  128MOL   C20643640   2.625   2.722   6.596  0.5144  0.0312  0.2148
  128MOL   C20743641   2.741   2.667   6.515 -0.0165  0.3555 -0.4859
  128MOL   C20843642   2.752   2.716   6.370 -0.1376 -1.1096 -0.5801
  128MOL   C20943643   2.646   2.691   6.277  0.4598 -0.2623 -0.6120
  128MOL   C21043644   2.645   2.739   6.141 -0.0095 -0.2447 -0.2232
  128MOL   C21143645   2.755   2.826   6.104 -0.4971  0.3941  0.4175
  128MOL   C21243646   2.853   2.857   6.197  0.6721 -0.5607  0.8267
  128MOL   C21343647   2.854   2.801   6.323  0.9705  0.2556 -0.9401
  128MOL   O21443648   2.722   2.526   6.513  0.1219  0.1438  0.6866
  128MOL   H21543649   2.534   2.663   6.593 -0.1168  0.9683  0.7306
  128MOL   H21643650   2.605   2.817   6.547 -1.0619 -0.3992 -0.0094
  128MOL   H21743651   2.839   2.701   6.548  0.0293  1.6932 -1.9533
  128MOL   H21843652   2.563   2.634   6.316  2.0779 -1.5213  1.1074
  128MOL   H21943653   2.561   2.725   6.074 -1.3853 -0.7121  1.5624
  128MOL   H22043654   2.750   2.868   6.005  0.1506 -0.7613 -0.1149
  128MOL   H22143655   2.935   2.921   6.169 -1.0817  3.0008  3.4059
  128MOL   H22243656   2.931   2.825   6.395  1.0746 -1.5157 -0.4244
  128MOL   C22343657   2.742   2.455   6.636  0.3153  0.2289 -0.1476
  128MOL   C22443658   2.884   2.431   6.682  0.5401  0.3798 -0.4709
  128MOL   C22543659   2.882   2.398   6.831  0.7425  0.1106  0.7490
  128MOL   C22643660   2.830   2.274   6.874 -0.6551 -0.2901 -0.1214
  128MOL   C22743661   2.835   2.242   7.012 -0.2440  0.2568  0.6148
  128MOL   C22843662   2.881   2.331   7.110  0.6628  0.7664  0.1163
  128MOL   C22943663   2.920   2.461   7.065  0.0835  1.1968  0.6300
  128MOL   C23043664   2.923   2.493   6.933 -0.0011  0.4803  0.1403
  128MOL   O23143665   2.939   2.324   6.605  0.1123 -0.1705 -0.1441
  128MOL   H23243666   2.686   2.499   6.718 -2.3167 -1.1497 -1.1409
  128MOL   H23343667   2.694   2.358   6.623 -1.2942  0.7837  1.5684
  128MOL   H23443668   2.943   2.521   6.666 -0.5213  1.0188 -0.8381
  128MOL   H23543669   2.793   2.211   6.794 -1.2195 -1.6465  1.1878
  128MOL   H23643670   2.784   2.152   7.042  1.9011 -0.8031  1.1464
  128MOL   H23743671   2.872   2.311   7.215  0.8141  1.6552  0.3054
  128MOL   H23843672   2.952   2.540   7.131  1.5042  0.0457  1.3736
  128MOL   H23943673   2.966   2.587   6.903 -0.0700  0.0170 -1.4567
  128MOL   C24043674   3.075   2.304   6.633 -0.6659  0.3085 -0.2743
  128MOL   C24143675   3.129   2.181   6.559 -0.0217 -0.1059  0.5143
  128MOL   C24243676   3.037   2.064   6.563  0.2792  0.4128  0.0284
  128MOL   C24343677   2.934   2.046   6.466 -0.6179 -0.3489  0.7169
  128MOL   C24443678   2.847   1.934   6.482  0.6162  0.1632  0.2671
  128MOL   C24543679   2.857   1.843   6.591 -0.2681 -0.2219 -0.5018
  128MOL   C24643680   2.955   1.863   6.689 -0.1765 -0.7184  0.2240
  128MOL   C24743681   3.050   1.971   6.668  0.1177  0.9641  0.0639
  128MOL   O24843682   3.159   2.234   6.431 -0.0478 -0.3530 -0.0154
  128MOL   H24943683   3.135   2.394   6.620  0.9511 -0.2094  3.0388
  128MOL   H25043684   3.084   2.278   6.739  0.4921 -0.2833 -0.5014
  128MOL   H25143685   3.222   2.152   6.606  0.2774 -1.0340 -0.6161
  128MOL   H25243686   2.926   2.118   6.386 -0.7886 -1.4694 -0.2906
  128MOL   H25343687   2.775   1.929   6.402  0.2138  2.5318  0.4201
  128MOL   H25443688   2.801   1.753   6.607 -1.8080  0.8954  0.4711
  128MOL   H25543689   2.954   1.794   6.772 -0.3031 -1.2179 -0.1898
  128MOL   H25643690   3.126   1.980   6.744 -0.2702 -0.2484  0.6140
  128MOL   C25743691   3.237   2.146   6.350 -0.3535 -0.7190  0.1314
  128MOL   C25843692   3.351   2.218   6.279  0.8274 -0.5453 -0.2102
  128MOL   C25943693   3.442   2.287   6.382  0.7791  0.3864 -0.0251
  128MOL   C26043694   3.401   2.396   6.461 -0.7222  0.4172  0.2948
  128MOL   C26143695   3.495   2.461   6.541 -0.0770 -0.2144 -0.3317
  128MOL   C26243696   3.624   2.408   6.565 -0.3811 -0.1821  0.2812
  128MOL   C26343697   3.666   2.303   6.485 -0.0469 -0.1877 -0.1738
  128MOL   C26443698   3.575   2.245   6.392 -0.1108 -1.1666  0.0515
  128MOL   O26543699   3.298   2.315   6.185  0.0476  0.3428  0.3679
  128MOL   H26643700   3.178   2.102   6.270 -0.7342  1.9459 -1.1169
  128MOL   H26743701   3.276   2.062   6.407 -0.9022 -2.3696 -1.8879
  128MOL   H26843702   3.402   2.136   6.227  0.7945 -0.0119 -1.0908
  128MOL   H26943703   3.301   2.431   6.442 -1.0429 -0.5900  0.1097
  128MOL   H27043704   3.463   2.546   6.599  0.7413 -0.7539  0.9532
  128MOL   H27143705   3.698   2.452   6.630 -1.7226  0.3285  1.4960
  128MOL   H27243706   3.768   2.271   6.500 -0.5471 -2.6174 -1.6712
  128MOL   H27343707   3.612   2.163   6.331 -0.7671 -1.1543 -0.3744
  128MOL   C27443708   3.386   2.340   6.077  0.1613 -0.3356  0.6461
  128MOL   C27543709   3.381   2.485   6.023 -0.0904  0.6956 -0.2680
  128MOL   C27643710   3.434   2.507   5.880 -0.0949  0.6723 -0.1842
  128MOL   C27743711   3.565   2.475   5.860 -0.6424  0.6594  0.0520
  128MOL   C27843712   3.626   2.501   5.732  0.2557 -0.1661 -0.0546
  128MOL   C27943713   3.542   2.529   5.623 -0.1990  0.0013  0.2712
  128MOL   C28043714   3.406   2.550   5.643 -0.4783 -0.0818  0.4276
  128MOL   C28143715   3.358   2.542   5.772 -0.1314 -0.5273  0.3603
  128MOL   O28243716   3.457   2.564   6.116  0.1750 -0.2487  0.8845
  128MOL   H28343717   3.489   2.315   6.104  0.0030 -1.4866  0.2342
  128MOL   H28443718   3.356   2.276   5.994 -0.8925  0.2997  0.5250
  128MOL   H28543719   3.277   2.517   6.019 -0.3750 -0.0133  1.1969
  128MOL   H28643720   3.634   2.452   5.939 -0.6038 -0.7730 -0.3949
  128MOL   H28743721   3.733   2.490   5.724 -0.1774 -2.6833 -3.6958
  128MOL   H28843722   3.587   2.539   5.525  1.8315  0.4827  1.2147
  128MOL   H28943723   3.347   2.585   5.560  0.2399 -0.7683 -0.3754
  128MOL   H29043724   3.258   2.578   5.790 -0.1458  0.2427 -1.1546
  128MOL   C29143725   3.467   2.703   6.101  0.1597  0.1535  0.5644
  128MOL   C29243726   3.332   2.774   6.126  0.3367 -0.0600  0.4685
  128MOL   C29343727   3.292   2.764   6.279  0.7209 -0.0576 -0.2792
  128MOL   C29443728   3.336   2.847   6.378 -0.1938 -0.7411  0.8646
  128MOL   C29543729   3.304   2.827   6.513 -0.0505 -0.6382  0.2746
  128MOL   C29643730   3.202   2.740   6.553  0.1546  0.2779  0.4023
  128MOL   C29743731   3.144   2.658   6.452 -0.3938  0.0964 -0.3692
  128MOL   C29843732   3.197   2.663   6.318  0.1910 -0.3654  0.3017
  128MOL   O29943733   3.336   2.907   6.077  0.0585 -0.7720 -0.8472
  128MOL   H30043734   3.496   2.730   6.000  0.3306  0.8033  0.7879
  128MOL   H30143735   3.550   2.733   6.164 -0.1565  2.1807  0.0235
  128MOL   H30243736   3.251   2.720   6.077  1.0888  1.4919 -2.6053
  128MOL   H30343737   3.413   2.920   6.359  0.7233 -1.8312  0.2765
  128MOL   H30443738   3.351   2.890   6.587  0.8673  0.2229 -1.0320
  128MOL   H30543739   3.176   2.735   6.658  0.3917 -0.0581  0.4469
  128MOL   H30643740   3.064   2.588   6.475 -0.6978  1.3805  2.7965
  128MOL   H30743741   3.162   2.593   6.244 -0.6143  0.7226 -0.3574
  128MOL   C30843742   3.204   2.972   6.086 -0.4723  0.5201 -0.1392
  128MOL   C30943743   3.212   3.101   6.000  0.0390  0.1415  0.3941
  128MOL   C31043744   3.073   3.142   5.963 -0.0376  0.0250  0.1121
  128MOL   C31143745   3.027   3.137   5.831 -0.3483  0.2184 -0.3582
  128MOL   C31243746   2.889   3.161   5.804 -0.0069  0.1680  0.9819
  128MOL   C31343747   2.794   3.172   5.906 -0.0234  0.2612 -0.2299
  128MOL   C31443748   2.840   3.187   6.042 -0.4208 -0.1139  0.0236
  128MOL   C31543749   2.978   3.171   6.067 -0.1033 -0.1274 -0.0305
  128MOL   O31643750   3.247   3.211   6.082 -0.0643  0.4267  0.0462
  128MOL   H31743751   3.175   2.987   6.190  1.2313 -1.5871  0.6650
  128MOL   H31843752   3.128   2.905   6.046 -1.1427 -0.0788  2.0733
  128MOL   H31943753   3.276   3.086   5.913  0.4838 -1.9909  1.0479
  128MOL   H32043754   3.094   3.116   5.749 -0.3294  1.0938 -0.5741
  128MOL   H32143755   2.849   3.158   5.704 -2.1484 -1.1630  1.8457
  128MOL   H32243756   2.690   3.195   5.892 -0.3870 -1.3119 -0.2400
  128MOL   H32343757   2.770   3.203   6.123 -0.7469 -1.7578  0.0829
  128MOL   H32443758   3.000   3.177   6.173 -3.6046  0.4012  0.7338
  128MOL   C32543759   3.386   3.239   6.086  0.3695 -0.0303 -0.3717
  128MOL   C32643760   3.409   3.355   6.183  0.4233 -0.0584  0.0658
  128MOL   C32743761   3.555   3.396   6.200 -0.1120 -0.0547  0.2720
  128MOL   C32843762   3.656   3.300   6.194  0.0637 -0.0838 -0.4254
  128MOL   C32943763   3.792   3.332   6.222  0.1898  0.0192 -0.0470
  128MOL   C33043764   3.829   3.464   6.264 -0.0835  1.0556  0.3351
  128MOL   C33143765   3.732   3.566   6.261  0.4457  0.8264  0.3049
  128MOL   C33243766   3.596   3.531   6.233  0.4674 -0.1456 -1.3168
  128MOL   O33343767   3.326   3.455   6.142  0.3156  0.2516  0.5258
  128MOL   H33443768   3.420   3.266   5.986  0.0564  0.1682 -0.4236
  128MOL   H33543769   3.439   3.147   6.111 -0.9781 -0.7358 -0.0312
  128MOL   H33643770   3.371   3.313   6.276  0.3058 -1.1050 -0.4399
  128MOL   H33743771   3.638   3.197   6.167  0.7982 -0.6565  1.1808
  128MOL   H33843772   3.859   3.248   6.215  1.1246  0.6187  1.6100
  128MOL   H33943773   3.930   3.494   6.287  0.2968  0.3275 -0.3502
  128MOL   H34043774   3.763   3.668   6.273  1.1538  0.6187  0.2484
  128MOL   H34143775   3.527   3.612   6.251 -0.3795 -1.1267 -0.0633
  128MOL   H34243776   3.241   3.419   6.122 -0.4100  1.2882  1.6882
  129MOL     C143777   3.537   5.728   7.793  0.6549 -0.3261 -0.3951
  129MOL     C243778   3.438   5.730   7.674 -0.4009 -0.2252 -0.4655
  129MOL     C343779   3.443   5.877   7.629  0.2596 -0.1822 -0.0990
  129MOL     C443780   3.509   5.925   7.519  0.1736  0.5653 -0.2338
  129MOL     C543781   3.519   6.058   7.481  1.1029  0.0369  0.5508
  129MOL     C643782   3.454   6.155   7.562  0.5998 -0.0781 -0.0593
  129MOL     C743783   3.378   6.108   7.673  0.0755 -0.9053  0.4847
  129MOL     C843784   3.370   5.970   7.702  0.6635  0.1582  0.3681
  129MOL     O943785   3.321   5.677   7.734 -0.4765 -0.0060 -0.4370
  129MOL    H1043786   3.632   5.773   7.762  1.7161 -2.6323 -0.6113
  129MOL    H1143787   3.499   5.776   7.882 -1.9461 -3.3356  0.2131
  129MOL    H1243788   3.471   5.662   7.595  0.9852 -0.2560  0.1412
  129MOL    H1343789   3.558   5.844   7.466  0.0056  1.7825 -2.2972
  129MOL    H1443790   3.564   6.090   7.388 -1.2804 -0.4026 -0.7963
  129MOL    H1543791   3.468   6.260   7.544  0.4015  0.4161  2.4464
  129MOL    H1643792   3.328   6.180   7.735 -1.8109  1.5368 -3.6841
  129MOL    H1743793   3.311   5.938   7.786  1.2455 -2.8624 -0.2954
  129MOL    H1843794   3.562   5.626   7.822  1.7216  0.1531  0.4210
  129MOL    C1943795   3.220   5.640   7.645  0.1883  0.4983  0.0148
  129MOL    C2043796   3.243   5.504   7.564  0.5182 -0.7375 -0.2018
  129MOL    C2143797   3.285   5.532   7.426  0.4915  0.3713  0.4599
  129MOL    C2243798   3.193   5.586   7.337 -0.2580 -0.6586  0.0114
  129MOL    C2343799   3.239   5.630   7.211  0.1353 -0.2189 -0.1983
  129MOL    C2443800   3.368   5.602   7.168  1.0376 -0.2033 -0.3267
  129MOL    C2543801   3.459   5.549   7.264  0.1856 -0.2110 -0.1300
  129MOL    C2643802   3.415   5.517   7.391 -0.8500 -0.0716 -0.0844
  129MOL    O2743803   3.136   5.413   7.569  0.1872 -0.6898  0.4311
  129MOL    H2843804   3.124   5.633   7.696  0.3438 -1.5654  0.0607
  129MOL    H2943805   3.205   5.718   7.570 -1.5506  0.9940  0.8327
  129MOL    H3043806   3.323   5.447   7.610 -1.0720 -0.8142  2.5798
  129MOL    H3143807   3.092   5.609   7.367  0.8615  1.5774  2.2222
  129MOL    H3243808   3.171   5.675   7.140  1.2272  0.1830 -1.0127
  129MOL    H3343809   3.393   5.622   7.065 -2.0868  1.6955 -0.7597
  129MOL    H3443810   3.561   5.536   7.232 -0.2126 -1.8389 -0.7725
  129MOL    H3543811   3.492   5.467   7.447  0.7713  2.8902  0.3731
  129MOL    C3643812   3.103   5.350   7.693  0.2917 -0.1375 -0.3684
  129MOL    C3743813   2.994   5.247   7.649  0.5741 -0.1215  0.6297
  129MOL    C3843814   2.884   5.320   7.579  0.2902  0.4004 -0.0365
  129MOL    C3943815   2.882   5.351   7.442  0.0175 -0.2149  0.5356
  129MOL    C4043816   2.775   5.427   7.383 -0.3380  0.4560 -0.1877
  129MOL    C4143817   2.663   5.460   7.455  0.4078  0.0959 -0.1166
  129MOL    C4243818   2.664   5.435   7.594  0.1087 -0.2937 -0.2771
  129MOL    C4343819   2.774   5.366   7.656 -0.7000  0.2448 -0.1368
  129MOL    O4443820   2.954   5.193   7.777  0.2239 -0.2253  0.2466
  129MOL    H4543821   3.197   5.300   7.714 -0.4488 -2.0920 -1.6341
  129MOL    H4643822   3.073   5.412   7.778 -1.8376  0.0976 -1.2571
  129MOL    H4743823   3.037   5.170   7.585 -3.7911 -1.6210 -0.6912
  129MOL    H4843824   2.961   5.317   7.377 -0.8121  0.2063 -0.7160
  129MOL    H4943825   2.783   5.454   7.278 -0.9902 -2.6731 -1.0942
  129MOL    H5043826   2.575   5.505   7.411  1.6863  0.7046 -2.1451
  129MOL    H5143827   2.584   5.464   7.660  0.9902 -0.6134  0.9543
  129MOL    H5243828   2.767   5.354   7.763  1.7199 -3.9812 -0.3232
  129MOL    C5343829   2.864   5.089   7.774 -0.6681  0.4219  0.0331
  129MOL    C5443830   2.791   5.080   7.912  0.1343  0.4302 -0.6311
  129MOL    C5543831   2.882   5.039   8.030  0.1013  0.5568 -0.7622
  129MOL    C5643832   2.842   4.936   0.039 -0.1708 -0.8236  0.4928
  129MOL    C5743833   2.923   4.898   0.150 -0.0197 -0.7962 -0.3425
  129MOL    C5843834   3.050   4.960   0.168 -0.4746 -0.4565  1.0721
  129MOL    C5943835   3.089   5.056   0.074 -0.3065 -0.0217 -0.0764
  129MOL    C6043836   3.006   5.104   8.055 -0.2315 -0.2005  0.3588
  129MOL    O6143837   2.726   5.201   7.935  0.3641 -0.0477  0.2849
  129MOL    H6243838   2.786   5.094   7.698 -0.5753  2.2352  0.0341
  129MOL    H6343839   2.910   4.994   7.746 -2.0391 -0.2309 -0.0489
  129MOL    H6443840   2.717   5.000   7.904 -0.2276  0.7142 -0.0811
  129MOL    H6543841   2.748   4.886   0.023  0.3427 -1.1988 -1.5479
  129MOL    H6643842   2.884   4.817   0.209  0.0613  0.3076  1.2460
  129MOL    H6743843   3.112   4.931   0.252  0.5661 -0.2354  0.3980
  129MOL    H6843844   3.191   5.087   0.091 -1.3318  2.1291  2.7502
  129MOL    H6943845   3.042   5.187   7.996  1.5466 -1.8344 -0.9100
  129MOL    C7043846   2.645   5.200   8.050  0.4142 -0.1989  0.1560
  129MOL    C7143847   2.565   5.325   8.056  0.3615  0.4114  0.1517
  129MOL    C7243848   2.489   5.359   7.932  0.0150  0.1888  0.6620
  129MOL    C7343849   2.443   5.495   7.902  0.5073 -0.8066 -0.3011
  129MOL    C7443850   2.378   5.518   7.779 -0.2117  0.0790  0.0181
  129MOL    C7543851   2.340   5.415   7.694  0.4181  0.3437 -0.2440
  129MOL    C7643852   2.362   5.286   7.734 -0.2485  0.3020  0.0780
  129MOL    C7743853   2.438   5.253   7.845  0.7090  0.0261 -0.7442
  129MOL    O7843854   2.640   5.430   0.041 -0.3534  0.6149 -0.1070
  129MOL    H7943855   2.581   5.112   8.058 -0.7520  0.5375 -0.8890
  129MOL    H8043856   2.703   5.203   0.062  1.1117 -0.1420 -0.2841
  129MOL    H8143857   2.482   5.308   0.045  0.6973  2.2139  1.0158
  129MOL    H8243858   2.487   5.576   7.957 -0.6019  0.2418 -0.9352
  129MOL    H8343859   2.352   5.617   7.745  1.3592  0.6230  0.3259
  129MOL    H8443860   2.276   5.429   7.608  0.3678 -1.1848 -0.4675
  129MOL    H8543861   2.323   5.203   7.677  0.0197 -0.2443  0.6917
  129MOL    H8643862   2.471   5.155   7.876 -0.3514 -1.2608 -3.5301
  129MOL    C8743863   2.757   5.467   8.043  0.8268  0.9985 -0.1805
  129MOL    C8843864   2.831   5.589   0.032  0.3993  0.4003  0.6156
  129MOL    C8943865   2.740   5.705   0.007  0.2269 -0.4898 -0.4448
  129MOL    C9043866   2.632   5.720   0.098  0.0032  0.3593  0.0160
  129MOL    C9143867   2.542   5.825   0.067 -0.1979  0.2600 -0.0506
  129MOL    C9243868   2.550   5.913   8.034  0.4598  0.4607  0.6573
  129MOL    C9343869   2.653   5.884   7.943  0.2871  0.1277 -0.0635
  129MOL    C9443870   2.756   5.793   7.982 -0.5169 -0.7421 -0.8012
  129MOL    O9543871   2.961   5.612   8.061  0.3950 -0.0741  0.2137
  129MOL    H9643872   2.720   5.505   7.947 -0.1804  0.9680  0.1877
  129MOL    H9743873   2.824   5.383   8.030  1.4157  0.9865  2.5896
  129MOL    H9843874   2.835   5.560   0.137  0.1597 -0.6393  0.3448
  129MOL    H9943875   2.625   5.657   0.186 -0.8799 -2.0908 -1.7249
  129MOL   H10043876   2.458   5.849   0.129  0.1921 -1.5840  1.2456
  129MOL   H10143877   2.477   5.988   8.007 -0.0479  0.3244  1.6409
  129MOL   H10243878   2.658   5.939   7.850  1.2994 -0.0675 -0.1358
  129MOL   H10343879   2.839   5.765   7.918  0.1550 -1.3491  0.3265
  129MOL   C10443880   3.057   5.531   0.044 -0.0749  0.6424  0.0076
  129MOL   C10543881   3.186   5.538   8.044 -0.3495 -0.4713 -0.3875
  129MOL   C10643882   3.276   5.643   0.017  0.4025 -0.1941  0.2762
  129MOL   C10743883   3.366   5.599   0.118 -0.6304 -0.2517  0.6115
  129MOL   C10843884   3.446   5.687   0.183  0.0005 -1.1875 -0.4093
  129MOL   C10943885   3.438   5.824   0.148 -0.4146 -0.1006 -0.7188
  129MOL   C11043886   3.359   5.871   0.050 -0.0891 -0.4555 -0.4871
  129MOL   C11143887   3.278   5.781   8.061 -0.1847 -0.1027 -0.0408
  129MOL   O11243888   3.246   5.412   8.047 -0.1148 -0.1921  0.5418
  129MOL   H11343889   3.075   5.554   0.149  0.0830 -0.6718  0.2845
  129MOL   H11443890   3.028   5.426   0.043 -1.5826  1.0548 -1.1288
  129MOL   H11543891   3.156   5.554   7.940  1.6735 -0.8319 -1.0393
  129MOL   H11643892   3.364   5.496   0.151 -1.3781 -1.0727 -1.8915
  129MOL   H11743893   3.509   5.654   0.264  0.5591 -0.5665 -0.5826
  129MOL   H11843894   3.507   5.881   0.209  0.0388 -0.9395 -0.4443
  129MOL   H11943895   3.366   5.970   0.007 -0.0972  0.0056  0.5652
  129MOL   H12043896   3.209   5.811   7.984 -0.0389  0.8502  0.1909
  129MOL   C12143897   3.355   5.407   7.954 -0.4981  0.2797  0.3244
  129MOL   C12243898   3.418   5.272   7.946  0.0314 -0.2255  0.3665
  129MOL   C12343899   3.513   5.257   7.830 -0.4628 -0.2480  0.2030
  129MOL   C12443900   3.482   5.209   7.704 -0.1652 -0.1542  0.3297
  129MOL   C12543901   3.575   5.203   7.600 -0.4103 -0.4103  0.0494
  129MOL   C12643902   3.706   5.244   7.629  0.8435 -0.1010  0.8743
  129MOL   C12743903   3.747   5.290   7.754  0.6942 -0.8558 -0.5750
  129MOL   C12843904   3.649   5.301   7.855  0.6899 -0.5658 -0.2882
  129MOL   O12943905   3.480   5.233   8.063  0.3789  0.5575 -0.3257
  129MOL   H13043906   3.437   5.473   7.979  1.1662 -1.9809  1.0464
  129MOL   H13143907   3.323   5.428   7.852  0.4623 -3.0619 -0.7394
  129MOL   H13243908   3.337   5.199   7.936 -1.0046  1.0852 -1.0019
  129MOL   H13343909   3.384   5.165   7.692  1.1177 -2.5392 -1.9713
  129MOL   H13443910   3.552   5.156   7.506 -0.6700 -0.4668  0.1426
  129MOL   H13543911   3.781   5.232   7.552 -1.8053 -0.0415 -1.8235
  129MOL   H13643912   3.845   5.327   7.777  0.1446 -0.1560  0.7061
  129MOL   H13743913   3.685   5.352   7.943  1.5172  0.8599 -1.4296
  129MOL   C13843914   3.515   5.093   0.003  0.3731  0.0006 -0.5139
  129MOL   C13943915   3.603   5.082   0.131 -0.6224  0.1820  0.6972
  129MOL   C14043916   3.615   4.936   0.185 -0.2576  0.0680  0.2068
  129MOL   C14143917   3.527   4.886   0.285 -0.0182  0.7222  0.0952
  129MOL   C14243918   3.549   4.760   0.342 -0.3975 -0.3420  0.4528
  129MOL   C14343919   3.652   4.672   0.296  0.0830 -0.0182  0.3980
  129MOL   C14443920   3.736   4.721   0.186  0.4405  0.0039 -0.4965
  129MOL   C14543921   3.716   4.848   0.133 -0.4538  0.6163  0.1525
  129MOL   O14643922   3.728   5.134   0.088 -0.0380  0.1995  0.8312
  129MOL   H14743923   3.563   5.033   8.005 -1.5242 -0.5101 -1.2992
  129MOL   H14843924   3.422   5.039   0.020  1.4282 -1.4439  0.8776
  129MOL   H14943925   3.549   5.143   0.203 -1.3841 -2.4595  2.4323
  129MOL   H15043926   3.443   4.944   0.319 -2.2851 -1.5909 -1.4270
  129MOL   H15143927   3.484   4.732   0.424  0.0455 -0.3930  0.7887
  129MOL   H15243928   3.668   4.577   0.343  0.4893  1.2711  2.9766
  129MOL   H15343929   3.822   4.664   0.153  0.9368  2.3940 -3.5835
  129MOL   H15443930   3.787   4.882   0.059 -0.7522 -0.4926 -0.6680
  129MOL   C15543931   3.805   5.183   0.202  0.1974  0.3865 -0.0155
  129MOL   C15643932   3.934   5.250   0.154  0.1487 -0.3145 -0.2652
  129MOL   C15743933   3.908   5.372   0.073 -0.2559  0.1415  0.1052
  129MOL   C15843934   3.988   5.390   8.038 -0.0945 -0.3374 -1.3909
  129MOL   C15943935   3.961   5.499   7.952 -0.5489 -0.2881  0.0474
  129MOL   C16043936   3.861   5.589   7.982 -0.1084 -0.0529  0.3816
  129MOL   C16143937   3.781   5.567   0.012 -0.2274 -0.0669 -0.1980
  129MOL   C16243938   3.800   5.461   0.100  0.2872 -0.4933  0.1029
  129MOL   O16343939   4.023   5.277   0.261  0.0865 -0.3116  0.3832
  129MOL   H16443940   3.842   5.094   0.254  0.2265  0.1648 -0.4112
  129MOL   H16543941   3.744   5.236   0.275 -0.1477 -0.8770  0.6429
  129MOL   H16643942   3.982   5.175   0.091  0.1305 -0.0639 -0.5746
  129MOL   H16743943   4.066   5.320   8.010  0.7661 -0.3182  0.8716
  129MOL   H16843944   4.017   5.506   7.860 -2.3492 -0.5010 -1.0810
  129MOL   H16943945   3.841   5.673   7.917  0.1631 -0.4878 -0.2707
  129MOL   H17043946   3.694   5.630   0.019  1.3302  1.9627  1.3368
  129MOL   H17143947   3.737   5.447   0.186 -1.7623  3.2054 -0.6829
  129MOL   C17243948   4.100   5.165   0.315 -0.0028  0.2854  0.5268
  129MOL   C17343949   4.158   5.199   0.452  0.0116 -0.6160  0.2017
  129MOL   C17443950   4.286   5.282   0.442  0.4516 -0.0243 -0.1424
  129MOL   C17543951   4.275   5.418   0.399 -0.1830  0.2211 -0.7146
  129MOL   C17643952   4.385   5.493   0.389 -0.3409 -0.2991  0.1276
  129MOL   C17743953   4.509   5.450   0.430  0.0792  0.5708  0.5256
  129MOL   C17843954   4.525   5.317   0.472 -0.0161 -0.4972  0.6096
  129MOL   C17943955   4.415   5.234   0.476  0.0690  0.4520  0.3630
  129MOL   O18043956   4.174   5.069   0.509 -0.2015 -0.7714 -0.6644
  129MOL   H18143957   4.036   5.077   0.323 -0.5948  0.5417 -1.3264
  129MOL   H18243958   4.173   5.128   0.243 -0.6008 -2.2840  1.1937
  129MOL   H18343959   4.081   5.251   0.510 -1.1140  1.1610 -2.7514
  129MOL   H18443960   4.175   5.449   0.374  0.0678  0.7622 -1.0473
  129MOL   H18543961   4.358   5.593   0.358 -0.3684 -0.3595 -0.0468
  129MOL   H18643962   4.598   5.508   0.410  1.0307 -0.4096  1.7822
  129MOL   H18743963   4.625   5.279   0.484 -0.2631 -0.6374  2.4414
  129MOL   H18843964   4.420   5.127   0.490 -2.5038  0.2972  0.2856
  129MOL   C18943965   4.170   5.073   0.655 -0.3437 -0.1963 -0.4035
  129MOL   C19043966   4.230   4.944   0.718 -0.5124  0.2706 -0.0001
  129MOL   C19143967   4.371   4.919   0.678  0.2189  0.3098 -0.0439
  129MOL   C19243968   4.407   4.866   0.547  0.3286 -1.0460 -0.4735
  129MOL   C19343969   4.539   4.848   0.510  0.1839  0.2844 -0.7959
  129MOL   C19443970   4.645   4.887   0.596 -0.3059 -0.6612  0.4192
  129MOL   C19543971   4.608   4.940   0.722 -0.7835  0.4288  0.0409
  129MOL   C19643972   4.474   4.958   0.763  0.2960  0.3089 -0.6861
  129MOL   O19743973   4.153   4.828   0.681 -0.1171  0.1815  0.4506
  129MOL   H19843974   4.209   5.169   0.689 -0.0553 -0.3168 -0.3920
  129MOL   H19943975   4.065   5.076   0.683 -1.0293 -1.5844 -2.7351
  129MOL   H20043976   4.233   4.960   0.826  0.8444 -0.7155  0.1135
  129MOL   H20143977   4.318   4.856   0.488 -0.8732 -1.6066  1.3954
  129MOL   H20243978   4.564   4.807   0.413 -1.0436 -3.3580  0.3567
  129MOL   H20343979   4.748   4.891   0.566 -0.5618  0.4456 -0.3559
  129MOL   H20443980   4.687   4.975   0.787 -2.0269  1.2115  1.1665
  129MOL   H20543981   4.450   5.010   0.854 -1.3022  1.2587 -1.6314
  129MOL   C20643982   4.016   4.821   0.734  0.1302 -0.3295  0.1634
  129MOL   C20743983   3.906   4.826   0.628 -0.3234  0.2543  0.8557
  129MOL   C20843984   3.938   4.722   0.517  0.1100 -0.1195  0.2509
  129MOL   C20943985   4.025   4.757   0.408 -0.4029  0.7032 -0.3199
  129MOL   C21043986   4.073   4.652   0.319  0.0944 -0.0638  0.4957
  129MOL   C21143987   4.022   4.527   0.323 -0.2469 -0.6593  0.9098
  129MOL   C21243988   3.930   4.497   0.425 -0.5386 -0.3721 -0.4532
  129MOL   C21343989   3.887   4.590   0.519  0.0467  1.2151 -0.1950
  129MOL   O21443990   3.881   4.958   0.596  0.1595  0.6143  0.1503
  129MOL   H21543991   4.026   4.718   0.769  0.4246 -0.5472 -0.5626
  129MOL   H21643992   4.014   4.871   0.831  1.1328 -1.9738  1.0579
  129MOL   H21743993   3.824   4.787   0.687  0.2353 -1.6832  0.3823
  129MOL   H21843994   4.075   4.852   0.394  0.3255  0.1010 -1.8483
  129MOL   H21943995   4.146   4.677   0.243 -0.3262 -1.7817 -0.5000
  129MOL   H22043996   4.055   4.448   0.258 -0.3263 -0.5142  0.6898
  129MOL   H22143997   3.904   4.393   0.439  0.0064 -0.3951  0.4712
  129MOL   H22243998   3.817   4.555   0.593  0.7503 -0.7661 -0.4492
  129MOL   C22343999   3.751   4.976   0.540 -0.3270  0.0211  0.1902
  129MOL   C22444000   3.686   5.089   0.623 -0.2075 -0.1651  0.5474
  129MOL   C22544001   3.549   5.112   0.562  0.0616  0.6184  0.2209
  129MOL   C22644002   3.436   5.033   0.598  0.1460 -0.3860  0.0688
  129MOL   C22744003   3.307   5.051   0.541 -0.0898  0.0271  0.3247
  129MOL   C22844004   3.295   5.153   0.446 -0.4004  0.2733 -0.6339
  129MOL   C22944005   3.402   5.237   0.418 -0.2942  0.4947 -0.0912
  129MOL   C23044006   3.531   5.217   0.475 -0.3917  0.0458  0.3826
  129MOL   O23144007   3.672   5.048   0.755  0.5953  0.3373 -0.3087
  129MOL   H23244008   3.762   5.004   0.435 -1.3762 -3.7487 -0.9715
  129MOL   H23344009   3.686   4.890   0.550 -1.6562  1.1100  1.1897
  129MOL   H23444010   3.745   5.180   0.620  0.7251 -0.7968 -0.9703
  129MOL   H23544011   3.445   4.956   0.674  0.6012  0.5842  1.0109
  129MOL   H23644012   3.229   4.984   0.576 -0.9267  0.3060 -0.9650
  129MOL   H23744013   3.206   5.173   0.388  0.9022  1.7419 -2.1951
  129MOL   H23844014   3.393   5.324   0.354  0.7357  0.6327 -0.0528
  129MOL   H23944015   3.613   5.283   0.453 -0.7965  1.1658  2.1877
  129MOL   C24044016   3.639   5.146   0.847  0.0772 -0.2948 -0.7663
  129MOL   C24144017   3.732   5.124   0.974 -0.4981 -0.4692  0.1952
  129MOL   C24244018   3.692   4.999   1.055  0.6509  0.8596 -0.3270
  129MOL   C24344019   3.703   4.868   0.992 -0.4840 -0.6269 -0.1330
  129MOL   C24444020   3.657   4.759   1.064 -0.2650  0.7526 -0.0609
  129MOL   C24544021   3.597   4.774   1.188  0.6401  0.1281  0.5064
  129MOL   C24644022   3.593   4.898   1.258 -0.0246  0.0166  0.0586
  129MOL   C24744023   3.640   5.011   1.185  0.4601  0.7514  0.4023
  129MOL   O24844024   3.867   5.107   0.924  0.0090  0.3593 -0.1048
  129MOL   H24944025   3.676   5.237   0.799  0.8390  0.0343  0.4113
  129MOL   H25044026   3.534   5.151   0.874  0.5885  2.3720  0.8593
  129MOL   H25144027   3.721   5.209   1.041  0.7436 -0.8632  0.9386
  129MOL   H25244028   3.747   4.864   0.893 -2.7987 -1.6821 -1.1313
  129MOL   H25344029   3.666   4.660   1.023 -0.5477 -0.5211  2.8483
  129MOL   H25444030   3.575   4.680   1.236 -1.6471  1.0193  1.2850
  129MOL   H25544031   3.557   4.908   1.359 -0.2196  0.2838 -0.0340
  129MOL   H25644032   3.627   5.107   1.232 -1.3945 -0.6417  2.8356
  129MOL   C25744033   3.966   5.199   0.980  0.0812 -0.5971  0.0076
  129MOL   C25844034   4.037   5.166   1.113 -0.1740  0.9489 -0.0467
  129MOL   C25944035   4.122   5.045   1.098 -0.3927  0.1415  0.5073
  129MOL   C26044036   4.064   4.919   1.094 -0.1000 -1.0646 -0.1764
  129MOL   C26144037   4.141   4.805   1.089  0.3078  0.4224  0.0924
  129MOL   C26244038   4.280   4.820   1.091  0.0069  0.4821 -0.5343
  129MOL   C26344039   4.337   4.947   1.087 -1.0388  0.0729 -0.6051
  129MOL   C26444040   4.258   5.066   1.095  0.5002 -0.3407 -0.4480
  129MOL   O26544041   3.928   5.153   1.204  0.2890  0.3916  0.5764
  129MOL   H26644042   3.923   5.299   0.986  1.0046 -0.3341  2.8334
  129MOL   H26744043   4.044   5.217   0.906 -0.4097 -0.9298 -0.6027
  129MOL   H26844044   4.092   5.252   1.151 -0.9033  0.0152  3.3747
  129MOL   H26944045   3.956   4.910   1.099 -0.0829 -0.7457  0.9548
  129MOL   H27044046   4.081   4.715   1.086 -2.6547  2.2968  1.1643
  129MOL   H27144047   4.352   4.742   1.071  0.2411  0.2310  1.2161
  129MOL   H27244048   4.444   4.959   1.076 -0.8570 -2.1059 -1.3843
  129MOL   H27344049   4.303   5.164   1.100  2.6583 -1.3869  2.1642
  129MOL   C27444050   3.949   5.172   1.343  0.0362 -0.4643  0.0560
  129MOL   C27544051   3.977   5.322   1.384 -0.2038  0.0269 -0.0280
  129MOL   C27644052   3.871   5.421   1.333 -0.2642 -0.6538 -0.4152
  129MOL   C27744053   3.750   5.430   1.409  0.2049  0.0655 -0.0455
  129MOL   C27844054   3.642   5.504   1.355  0.1782  0.0049 -0.3190
  129MOL   C27944055   3.664   5.582   1.237  0.1171 -0.1332 -0.0037
  129MOL   C28044056   3.791   5.590   1.176 -0.7801 -0.2688  0.0345
  129MOL   C28144057   3.886   5.507   1.225  0.1637  0.1993 -0.1804
  129MOL   O28244058   4.113   5.362   1.368  0.4316  0.6418  0.5594
  129MOL   H28344059   3.865   5.127   1.398 -1.1576  1.0173 -0.5157
  129MOL   H28444060   4.020   5.103   1.387 -0.8494 -1.6356 -0.3377
  129MOL   H28544061   3.964   5.330   1.492 -3.0748  0.1394 -0.3426
  129MOL   H28644062   3.716   5.367   1.490  0.5662  1.4497  1.1925
  129MOL   H28744063   3.547   5.513   1.406 -0.0182 -2.1424 -0.2617
  129MOL   H28844064   3.577   5.642   1.216 -1.8500 -2.1333  2.0866
  129MOL   H28944065   3.808   5.653   1.091  0.5752 -2.2983 -1.2569
  129MOL   H29044066   3.985   5.499   1.182  0.8210  0.5894  1.2404
  129MOL   C29144067   4.150   5.481   1.437 -0.6440  0.4175 -0.1491
  129MOL   C29244068   4.291   5.463   1.501  0.0577  0.2887  0.6891
  129MOL   C29344069   4.333   5.326   1.547  0.5136  0.0717 -0.3945
  129MOL   C29444070   4.348   5.226   1.453  0.3019  0.0262 -0.1517
  129MOL   C29544071   4.375   5.097   1.493  1.0933 -0.4388  0.4670
  129MOL   C29644072   4.408   5.070   1.628  0.0757 -0.3039  0.0619
  129MOL   C29744073   4.406   5.177   1.721 -0.4540  0.8987  0.2838
  129MOL   C29844074   4.368   5.310   1.680 -0.0005  0.2434  0.2546
  129MOL   O29944075   4.382   5.527   1.410 -0.9623  0.1253  0.3405
  129MOL   H30044076   4.086   5.487   1.525  1.1500 -3.1689  1.4876
  129MOL   H30144077   4.136   5.572   1.377  1.0721  1.3172  0.7799
  129MOL   H30244078   4.284   5.518   1.595  2.1385  0.4499  0.7856
  129MOL   H30344079   4.322   5.235   1.348  3.2283  0.8869 -0.8313
  129MOL   H30444080   4.387   5.015   1.423 -2.7018  1.2013 -2.2695
  129MOL   H30544081   4.448   4.973   1.654  1.1449  0.0521 -0.2303
  129MOL   H30644082   4.429   5.150   1.823 -0.9903 -1.7140 -0.2585
  129MOL   H30744083   4.372   5.390   1.752 -0.4544  0.5945 -0.1125
  129MOL   C30844084   4.512   5.559   1.458  0.1466 -0.0561  0.2556
  129MOL   C30944085   4.521   5.689   1.547 -0.1802 -0.4784  0.1696
  129MOL   C31044086   4.489   5.807   1.454  0.2813  0.8961  0.5407
  129MOL   C31144087   4.359   5.849   1.437 -0.0370  0.3830  0.1368
  129MOL   C31244088   4.327   5.965   1.368  0.6572 -0.0270  1.1316
  129MOL   C31344089   4.423   6.044   1.311 -0.6134 -0.2748  0.1272
  129MOL   C31444090   4.560   5.999   1.318  0.4888  0.1758  0.1927
  129MOL   C31544091   4.590   5.878   1.387  0.5257 -0.4632 -0.5445
  129MOL   O31644092   4.443   5.678   1.663  0.9456  0.3674 -0.1244
  129MOL   H31744093   4.577   5.565   1.371 -0.1102  0.3900  0.0913
  129MOL   H31844094   4.557   5.479   1.516  1.4275  2.6421  3.1406
  129MOL   H31944095   4.625   5.692   1.578 -0.0873  0.9430 -0.2279
  129MOL   H32044096   4.280   5.786   1.475  0.4195  0.5175  1.3153
  129MOL   H32144097   4.221   5.981   1.355  0.2737 -2.8036  0.6664
  129MOL   H32244098   4.397   6.135   1.261 -1.6510 -1.1028 -0.8709
  129MOL   H32344099   4.634   6.054   1.262 -2.7186  2.4211 -1.9685
  129MOL   H32444100   4.690   5.838   1.377  1.3728  1.5157 -0.1245
  129MOL   C32544101   4.458   5.771   1.767  0.2166 -0.6334  0.0130
  129MOL   C32644102   4.342   5.759   1.870 -0.3010  0.4606  0.1418
  129MOL   C32744103   4.201   5.752   1.813 -0.4393  0.4775 -0.0125
  129MOL   C32844104   4.152   5.861   1.735  0.0090 -0.1624 -0.4785
  129MOL   C32944105   4.024   5.857   1.677  0.2623  0.1521  0.1682
  129MOL   C33044106   3.950   5.737   1.682  0.4113  0.3009  0.0435
  129MOL   C33144107   4.005   5.632   1.763 -0.0599 -0.6346 -0.0819
  129MOL   C33244108   4.129   5.635   1.818  0.6596  0.0239 -0.2100
  129MOL   O33344109   4.376   5.647   1.955  0.2690  0.1989  0.1299
  129MOL   H33444110   4.446   5.874   1.734  0.2719  0.0956  2.1842
  129MOL   H33544111   4.554   5.767   1.817  0.7122  2.1343 -0.6477
  129MOL   H33644112   4.342   5.843   1.939 -1.7552  0.5551  0.0452
  129MOL   H33744113   4.215   5.948   1.726 -1.1948  0.6053 -1.5630
  129MOL   H33844114   3.978   5.942   1.628 -2.8278 -0.9201  1.0918
  129MOL   H33944115   3.854   5.720   1.636 -0.1763  0.6218  1.1340
  129MOL   H34044116   3.948   5.541   1.779  0.9550 -1.0514  1.2308
  129MOL   H34144117   4.162   5.543   1.864 -0.3986 -0.3590 -0.1992
  129MOL   H34244118   4.403   5.586   1.888 -0.0668 -0.6699  0.7811
  130MOL     C144119   3.881   4.174   7.151  0.7508 -0.2823  0.7020
  130MOL     C244120   3.753   4.101   7.183 -0.2144  0.0928  0.1181
  130MOL     C344121   3.645   4.214   7.192  0.0989 -0.9554 -0.1680
  130MOL     C444122   3.616   4.287   7.073  0.0603  0.8004 -0.3533
  130MOL     C544123   3.544   4.408   7.082  0.4059  0.1158  0.1095
  130MOL     C644124   3.485   4.449   7.202 -0.4796 -0.2776  0.3420
  130MOL     C744125   3.489   4.360   7.309 -0.3852  0.6567 -0.3994
  130MOL     C844126   3.574   4.247   7.309 -0.3533 -0.6024 -0.5639
  130MOL     O944127   3.782   4.027   7.303  0.1209 -0.4678  0.4813
  130MOL    H1044128   3.882   4.222   7.053 -0.5479 -1.8580 -0.1126
  130MOL    H1144129   3.894   4.254   7.223 -0.7140  1.8476 -1.3034
  130MOL    H1244130   3.731   4.028   7.106 -0.7690  0.7685 -0.3633
  130MOL    H1344131   3.661   4.260   6.979 -1.1006  0.0303 -0.6908
  130MOL    H1444132   3.532   4.473   6.997  0.7539 -0.4476 -0.3751
  130MOL    H1544133   3.424   4.538   7.200  1.0222  0.8046  1.7432
  130MOL    H1644134   3.425   4.392   7.390 -0.9839  0.1004 -0.6430
  130MOL    H1744135   3.595   4.198   7.403 -1.2013 -1.4147 -0.7900
  130MOL    H1844136   3.966   4.106   7.163  1.9525  1.0226 -0.2290
  130MOL    C1944137   3.691   3.931   7.332  0.1453 -0.1004 -0.4447
  130MOL    C2044138   3.719   3.869   7.470  0.2261 -0.2271 -0.3235
  130MOL    C2144139   3.701   3.715   7.470  0.4991 -0.5621  0.5462
  130MOL    C2244140   3.800   3.639   7.537 -0.8269 -0.4564 -0.5046
  130MOL    C2344141   3.813   3.501   7.519  0.6204 -0.6115  0.2375
  130MOL    C2444142   3.719   3.434   7.435 -0.6232  0.3413 -0.2967
  130MOL    C2544143   3.608   3.503   7.379  0.4729  0.7554  0.2987
  130MOL    C2644144   3.599   3.642   7.396  0.4678  0.6557 -0.0491
  130MOL    O2744145   3.633   3.936   7.567 -0.4409 -0.0093 -0.6216
  130MOL    H2844146   3.587   3.963   7.333  0.0398 -0.4326  1.6401
  130MOL    H2944147   3.708   3.855   7.256  0.0623 -0.0919 -0.4713
  130MOL    H3044148   3.821   3.898   7.496  1.3758 -1.8275 -2.8371
  130MOL    H3144149   3.877   3.692   7.591  1.7344 -0.9281 -3.5933
  130MOL    H3244150   3.884   3.434   7.566  0.1095 -1.0085  0.4434
  130MOL    H3344151   3.743   3.330   7.419 -1.8512  0.1842 -1.1762
  130MOL    H3444152   3.536   3.452   7.317  0.8701 -0.6514  0.9716
  130MOL    H3544153   3.511   3.691   7.358  0.1950  0.8468  0.8041
  130MOL    C3644154   3.677   3.925   7.706 -0.2639 -0.1511  0.3065
  130MOL    C3744155   3.799   4.008   7.741  0.3803 -0.2009  0.3505
  130MOL    C3844156   3.820   4.148   7.677 -0.3100 -0.1985  0.3797
  130MOL    C3944157   3.932   4.172   7.591  0.2475 -0.7996  0.4480
  130MOL    C4044158   3.948   4.294   7.528 -0.3810  0.1121  1.1557
  130MOL    C4144159   3.857   4.401   7.548 -0.1351 -0.4361 -0.0479
  130MOL    C4244160   3.747   4.378   7.636  0.1870 -0.1419  0.3589
  130MOL    C4344161   3.725   4.247   7.691  0.6108  0.2879  0.6479
  130MOL    O4444162   3.909   3.926   7.710  0.0894 -0.3286  0.9417
  130MOL    H4544163   3.599   3.970   7.766  0.9080 -1.0855  2.5745
  130MOL    H4644164   3.705   3.829   7.749 -0.0597  0.4627  1.5724
  130MOL    H4744165   3.799   4.019   7.850  1.3069  1.0934  0.2300
  130MOL    H4844166   3.999   4.091   7.570 -1.2192 -1.5913 -1.2564
  130MOL    H4944167   4.034   4.318   7.467 -1.1698 -1.6464 -0.6626
  130MOL    H5044168   3.864   4.495   7.494 -1.7293 -0.5860 -0.5524
  130MOL    H5144169   3.670   4.451   7.658 -0.1136  0.3235 -2.0829
  130MOL    H5244170   3.638   4.238   7.754  0.9871  0.0307  1.1382
  130MOL    C5344171   4.020   3.931   7.800  0.0911 -0.1706 -0.4759
  130MOL    C5444172   4.128   3.834   7.747 -0.1686  0.3155  0.2132
  130MOL    C5544173   4.207   3.896   7.627 -0.3755 -0.2550  0.0180
  130MOL    C5644174   4.168   3.862   7.496  0.1299  0.2478 -0.4970
  130MOL    C5744175   4.232   3.926   7.386 -0.4609 -0.5943 -0.0544
  130MOL    C5844176   4.335   4.016   7.417 -0.0296 -0.1089 -0.3013
  130MOL    C5944177   4.368   4.056   7.546 -0.2757  0.6297 -0.4206
  130MOL    C6044178   4.302   3.994   7.654 -0.2873  1.1979 -0.1484
  130MOL    O6144179   4.206   3.800   7.858  0.4541 -0.4433 -0.0315
  130MOL    H6244180   4.049   4.036   7.805 -0.5704  0.0573 -1.2631
  130MOL    H6344181   3.989   3.911   7.903  0.4003 -1.7947 -0.6788
  130MOL    H6444182   4.075   3.741   7.724 -0.5314  0.8082 -0.9484
  130MOL    H6544183   4.084   3.796   7.483  1.5494 -1.7918  0.4560
  130MOL    H6644184   4.201   3.898   7.286 -0.1544 -0.2384 -0.2523
  130MOL    H6744185   4.374   4.061   7.326 -0.3493  1.3840  0.2899
  130MOL    H6844186   4.448   4.128   7.559  0.1473 -0.1420  1.4876
  130MOL    H6944187   4.333   4.008   7.756  2.3540 -1.9632 -0.4397
  130MOL    C7044188   4.307   3.703   7.842  0.1433  0.2887 -0.5592
  130MOL    C7144189   4.401   3.690   7.965  0.2528  0.4062  0.3462
  130MOL    C7244190   4.331   3.664   0.016  1.2212 -0.2618  0.6275
  130MOL    C7344191   4.323   3.762   0.118  0.2837 -0.5162  0.1369
  130MOL    C7444192   4.253   3.741   0.237  1.0394 -0.0333 -0.5078
  130MOL    C7544193   4.204   3.609   0.261 -0.0848  1.0616  0.6354
  130MOL    C7644194   4.213   3.503   0.168 -0.1246 -0.8297  0.0608
  130MOL    C7744195   4.273   3.534   0.044  0.5526 -0.5948  0.2729
  130MOL    O7844196   4.479   3.805   7.959  0.0124  0.1884 -0.3980
  130MOL    H7944197   4.248   3.612   7.836 -0.6119  0.6364  1.3538
  130MOL    H8044198   4.355   3.707   7.744  0.0736  1.8378 -0.5338
  130MOL    H8144199   4.469   3.608   7.941  0.9592  0.7290  1.2139
  130MOL    H8244200   4.367   3.859   0.099  1.6103 -1.1255  0.0441
  130MOL    H8344201   4.255   3.818   0.312 -0.9924  0.4890 -0.9523
  130MOL    H8444202   4.154   3.595   0.357  0.5873  1.3744  1.0331
  130MOL    H8544203   4.183   3.403   0.196  0.1013 -1.1740 -0.9051
  130MOL    H8644204   4.264   3.453   8.053  1.1260 -1.2253  0.9204
  130MOL    C8744205   4.619   3.778   7.957 -0.9990 -0.0895  0.4360
  130MOL    C8844206   4.677   3.815   7.814 -0.6448  0.4593 -0.7842
  130MOL    C8944207   4.633   3.724   7.701  0.2090  0.0409  0.8371
  130MOL    C9044208   4.650   3.586   7.715 -0.2282 -0.2098  0.3268
  130MOL    C9144209   4.597   3.503   7.616 -0.2892 -0.5626  0.2075
  130MOL    C9244210   4.538   3.551   7.499 -0.5520  1.1578 -0.3836
  130MOL    C9344211   4.525   3.692   7.486  0.5785 -0.2847 -0.4132
  130MOL    C9444212   4.584   3.781   7.577  0.5400  0.4768  0.5419
  130MOL    O9544213   4.819   3.814   7.841  0.1991 -0.0654  0.1142
  130MOL    H9644214   4.648   3.675   7.979 -1.4524 -0.8104 -2.0880
  130MOL    H9744215   4.658   3.835   8.041 -0.4191  1.4523 -0.8359
  130MOL    H9844216   4.641   3.915   7.790 -0.2852  0.0319 -3.1685
  130MOL    H9944217   4.690   3.545   7.806  0.2072 -1.2138 -0.3081
  130MOL   H10044218   4.600   3.398   7.641 -0.4727 -0.5045  0.4698
  130MOL   H10144219   4.502   3.488   7.419  1.2748  0.4038 -0.6335
  130MOL   H10244220   4.470   3.728   7.401 -1.9248  0.2587  1.3982
  130MOL   H10344221   4.570   3.885   7.552 -3.0925 -0.5106 -1.9247
  130MOL   C10444222   4.898   3.903   7.753  0.0895 -0.1067 -0.0875
  130MOL   C10544223   5.040   3.906   7.803  0.5051 -0.3980 -0.7136
  130MOL   C10644224   5.140   3.930   7.698  0.2313 -0.6491 -0.2049
  130MOL   C10744225   5.162   3.832   7.596 -0.6927  0.2103  0.2770
  130MOL   C10844226   5.262   3.854   7.502  0.7388  0.3213 -0.5229
  130MOL   C10944227   5.337   3.980   7.501  0.0244 -0.6534 -0.5604
  130MOL   C11044228   5.307   4.075   7.597 -0.0395  0.3275 -0.8030
  130MOL   C11144229   5.222   4.046   7.700 -0.0157  0.3515 -0.3085
  130MOL   O11244230   5.048   4.006   7.898  0.3300  0.6142 -0.8036
  130MOL   H11344231   4.889   3.859   7.654 -0.4405  0.0352 -0.1040
  130MOL   H11444232   4.856   4.003   7.752  1.0892  0.3355  1.1165
  130MOL   H11544233   5.067   3.805   7.833  0.2322  0.0673  1.1549
  130MOL   H11644234   5.105   3.741   7.601 -0.7596  0.1822 -0.8579
  130MOL   H11744235   5.270   3.787   7.418  1.0978  0.0935 -0.3080
  130MOL   H11844236   5.393   4.006   7.412 -0.7545 -0.4861 -1.0056
  130MOL   H11944237   5.362   4.168   7.592 -0.2132  0.4181 -1.0686
  130MOL   H12044238   5.199   4.122   7.773 -1.8029  0.2825 -0.7767
  130MOL   C12144239   5.007   3.977   8.031  0.0966  0.5632  0.0177
  130MOL   C12244240   5.007   4.101   0.035 -0.4026  0.3600 -0.5548
  130MOL   C12344241   4.896   4.200   8.078 -0.6056  0.1131  0.0316
  130MOL   C12444242   4.926   4.298   7.981 -0.0212  0.0705 -0.7913
  130MOL   C12544243   4.831   4.399   7.950  0.2665 -0.3147 -0.2885
  130MOL   C12644244   4.699   4.384   7.997 -0.4283  0.6913 -0.4660
  130MOL   C12744245   4.663   4.278   0.003 -0.4809 -0.2816 -0.3869
  130MOL   C12844246   4.765   4.194   0.051 -0.3370 -0.3695  0.0243
  130MOL   O12944247   4.998   4.053   0.169  0.0344  0.1628 -0.1358
  130MOL   H13044248   5.082   3.908   8.070 -0.8586 -2.0116 -2.5998
  130MOL   H13144249   4.908   3.934   8.035  1.2214 -2.5511 -3.0392
  130MOL   H13244250   5.104   4.149   0.020  1.7807 -3.0030  2.1475
  130MOL   H13344251   5.024   4.304   7.936 -0.3158 -1.2066 -1.6248
  130MOL   H13444252   4.847   4.480   7.880 -1.9339  0.2999 -0.1238
  130MOL   H13544253   4.622   4.434   7.940 -0.3674  0.6412 -0.5928
  130MOL   H13644254   4.561   4.273   0.038  0.0619 -1.6528  1.0233
  130MOL   H13744255   4.754   4.116   0.125  3.2424  0.1557  1.2159
  130MOL   C13844256   5.071   4.136   0.262 -0.4278 -0.5011  0.3014
  130MOL   C13944257   5.227   4.144   0.256  0.1629 -0.0500 -0.3808
  130MOL   C14044258   5.286   4.003   0.250  0.7414 -0.1939  0.4380
  130MOL   C14144259   5.295   3.924   0.366  0.4487 -0.0454 -0.6718
  130MOL   C14244260   5.330   3.787   0.360  0.5157  0.2573  0.2515
  130MOL   C14344261   5.362   3.734   0.237 -0.0834 -0.4572  0.0424
  130MOL   C14444262   5.356   3.809   0.120  0.8662 -0.0419 -0.1998
  130MOL   C14544263   5.328   3.945   0.129  0.2403 -0.1654  0.0737
  130MOL   O14644264   5.271   4.238   0.157  0.0780  0.0074 -0.3873
  130MOL   H14744265   5.041   4.106   0.362  1.1186 -2.1618  0.2814
  130MOL   H14844266   5.034   4.238   0.244 -0.2220 -0.6489 -0.9908
  130MOL   H14944267   5.255   4.176   0.356  1.4443 -1.4268 -0.2826
  130MOL   H15044268   5.261   3.961   0.462 -0.3020 -0.1926 -0.8840
  130MOL   H15144269   5.322   3.726   0.449  0.1166  0.0810  0.0975
  130MOL   H15244270   5.382   3.629   0.228  3.1471  0.0529  0.7131
  130MOL   H15344271   5.373   3.766   0.023 -0.4209 -2.1557  0.4967
  130MOL   H15444272   5.334   4.007   0.040 -0.6217 -1.3766 -0.8493
  130MOL   C15544273   5.375   4.328   0.195  0.2820  0.0390  0.0863
  130MOL   C15644274   5.381   4.464   0.111 -0.4083 -0.1660  0.2253
  130MOL   C15744275   5.267   4.556   0.155 -0.3546 -0.0538 -0.9977
  130MOL   C15844276   5.131   4.527   0.124  0.8594 -0.3155 -0.3846
  130MOL   C15944277   5.031   4.609   0.170  0.4598  0.4654  0.3975
  130MOL   C16044278   5.052   4.714   0.264  0.4258 -0.5848 -0.1964
  130MOL   C16144279   5.186   4.737   0.300  0.3402 -0.4496  0.1228
  130MOL   C16244280   5.292   4.658   0.250  0.0125  0.2059 -0.0095
  130MOL   O16344281   5.516   4.525   0.127  0.0755  0.8051  0.1490
  130MOL   H16444282   5.465   4.270   0.177  0.2441  0.4392 -1.4488
  130MOL   H16544283   5.374   4.354   0.301 -1.7488  0.9188 -0.1183
  130MOL   H16644284   5.368   4.449   0.004  2.3822 -1.4420  0.0168
  130MOL   H16744285   5.117   4.437   0.066  0.3116 -0.5596  0.1267
  130MOL   H16844286   4.925   4.590   0.157  1.4683 -3.7706 -2.6510
  130MOL   H16944287   4.974   4.774   0.309  0.4005 -0.8913  0.1687
  130MOL   H17044288   5.206   4.813   0.374 -1.1590 -0.7694  0.8820
  130MOL   H17144289   5.393   4.679   0.281  1.9275 -2.3229 -4.1626
  130MOL   C17244290   5.566   4.586   0.010 -0.3713  0.1984  0.2797
  130MOL   C17344291   5.520   4.732   0.012  0.0092 -0.8577  0.6051
  130MOL   C17444292   5.575   4.808   7.967  0.2796 -0.1694 -0.1983
  130MOL   C17544293   5.502   4.832   7.848 -0.6054 -0.3252  0.4544
  130MOL   C17644294   5.557   4.895   7.734 -0.0297 -0.5489 -0.1460
  130MOL   C17744295   5.693   4.934   7.739  0.2791  0.0392 -0.3577
  130MOL   C17844296   5.765   4.921   7.859 -0.2754 -0.3802  0.3710
  130MOL   C17944297   5.711   4.857   7.972 -0.6007 -0.4841  0.1181
  130MOL   O18044298   5.573   4.786   0.134 -0.6500 -0.4645 -0.5771
  130MOL   H18144299   5.675   4.590   0.006 -0.3160 -0.9597  0.4019
  130MOL   H18244300   5.531   4.532   8.002  2.4095  1.5325 -1.7043
  130MOL   H18344301   5.411   4.731   0.005  0.0661 -1.8653 -0.2560
  130MOL   H18444302   5.399   4.800   7.846 -0.6127 -0.2634 -0.6497
  130MOL   H18544303   5.498   4.895   7.644 -0.6280 -0.3825  0.2425
  130MOL   H18644304   5.747   4.977   7.655 -1.9025 -0.3898 -2.0536
  130MOL   H18744305   5.867   4.955   7.865  0.2738 -1.7981 -0.7082
  130MOL   H18844306   5.765   4.858   8.065  0.2278 -1.5801 -0.3290
  130MOL   C18944307   5.523   4.915   0.172  0.2076  0.8541 -0.1929
  130MOL   C19044308   5.586   4.960   0.301 -0.1783 -0.2322 -0.6512
  130MOL   C19144309   5.503   5.085   0.356 -0.0501 -0.0483 -0.1871
  130MOL   C19244310   5.391   5.061   0.445  0.4112 -0.1300 -0.3768
  130MOL   C19344311   5.319   5.179   0.494  0.2327  0.4460 -0.1940
  130MOL   C19444312   5.356   5.312   0.454  0.0263  0.2648  0.5828
  130MOL   C19544313   5.468   5.325   0.367 -0.2142  0.2574 -0.0451
  130MOL   C19644314   5.540   5.215   0.323  0.1447  0.7466 -0.6167
  130MOL   O19744315   5.726   4.990   0.277  0.1905 -0.1064 -0.2213
  130MOL   H19844316   5.555   4.988   0.098  0.8659 -0.3565 -1.1073
  130MOL   H19944317   5.414   4.919   0.174  0.1503 -0.6544  1.4994
  130MOL   H20044318   5.579   4.877   0.370 -1.7257 -0.6982 -1.3348
  130MOL   H20144319   5.354   4.964   0.472 -0.1648  0.3016  0.4225
  130MOL   H20244320   5.232   5.174   0.558  0.0906 -1.1789 -0.4996
  130MOL   H20344321   5.297   5.398   0.484  0.7680  1.0045 -0.0700
  130MOL   H20444322   5.504   5.426   0.352  2.6849 -0.4991  1.3092
  130MOL   H20544323   5.617   5.231   0.248  1.0134  0.4415  0.1949
  130MOL   C20644324   5.813   5.017   0.384 -0.4154  0.9364  1.1649
  130MOL   C20744325   5.929   5.101   0.324  0.1319  0.5197  0.5442
  130MOL   C20844326   6.026   5.018   0.239  0.3741 -0.7454  0.1431
  130MOL   C20944327   6.148   4.969   0.290 -0.5558  0.1304 -0.0414
  130MOL   C21044328   6.226   4.885   0.206  0.0134 -0.0486  0.4884
  130MOL   C21144329   6.198   4.868   0.066 -0.1712 -0.9541  0.0988
  130MOL   C21244330   6.073   4.922   0.019  0.4300  0.2528 -0.5129
  130MOL   C21344331   5.988   4.990   0.105 -0.2236  0.5014  0.1357
  130MOL   O21444332   5.989   5.147   0.440 -0.2030 -0.5310  0.1347
  130MOL   H21544333   5.780   5.077   0.470  3.3417  1.3703  2.4049
  130MOL   H21644334   5.848   4.923   0.427  2.8356  1.7323  0.3856
  130MOL   H21744335   5.902   5.191   0.268  1.2752  1.5555  1.6226
  130MOL   H21844336   6.187   4.994   0.387  1.5075 -0.3377 -0.7401
  130MOL   H21944337   6.305   4.822   0.243 -0.8910 -1.4700  0.0223
  130MOL   H22044338   6.258   4.808   8.080 -0.0372 -0.2454 -0.4215
  130MOL   H22144339   6.035   4.898   8.001  0.8339 -3.0487  0.1064
  130MOL   H22244340   5.890   5.019   0.072  0.4234  2.6810  0.0244
  130MOL   C22344341   6.076   5.262   0.430  0.7862  0.2766 -0.5420
  130MOL   C22444342   6.147   5.258   0.570 -0.6087 -0.2680  0.0092
  130MOL   C22544343   6.261   5.354   0.572  0.1639  1.1341  0.6163
  130MOL   C22644344   6.390   5.301   0.603  0.2320  0.2528 -0.5193
  130MOL   C22744345   6.505   5.385   0.589 -0.2412  0.5339 -0.3310
  130MOL   C22844346   6.492   5.518   0.550 -0.1707 -0.0035  0.5240
  130MOL   C22944347   6.357   5.566   0.527 -0.2802  0.2526  0.2307
  130MOL   C23044348   6.243   5.486   0.530 -0.1810  0.1315  0.1492
  130MOL   O23144349   6.054   5.290   0.676  0.1399  0.5383 -0.0332
  130MOL   H23244350   6.144   5.235   0.349  0.6259  0.3847 -0.7157
  130MOL   H23344351   6.035   5.362   0.413  0.9152  0.6111  1.0430
  130MOL   H23444352   6.194   5.160   0.570  0.8603  0.4048 -1.9078
  130MOL   H23544353   6.400   5.200   0.637  0.4438  0.7584  0.9465
  130MOL   H23644354   6.602   5.352   0.623 -1.4699 -2.7455  0.1324
  130MOL   H23744355   6.574   5.589   0.549  0.0870 -0.3017  0.5326
  130MOL   H23844356   6.346   5.670   0.501  1.1748 -0.3077 -2.7995
  130MOL   H23944357   6.144   5.526   0.515 -0.3321 -0.3668 -0.1624
  130MOL   C24044358   6.109   5.262   0.802 -0.3451  0.5465 -0.4644
  130MOL   C24144359   6.081   5.112   0.855  0.1972 -0.2452 -0.0255
  130MOL   C24244360   5.945   5.069   0.810 -0.0542 -0.0598  0.4174
  130MOL   C24344361   5.935   4.936   0.762 -0.2821 -0.4895  0.2470
  130MOL   C24444362   5.815   4.891   0.710 -0.2359  0.1996 -0.1478
  130MOL   C24544363   5.701   4.968   0.718 -0.0439  0.2020  0.4355
  130MOL   C24644364   5.708   5.094   0.777 -0.2861  0.0795 -0.3194
  130MOL   C24744365   5.830   5.148   0.826  0.4803  0.5849 -0.0613
  130MOL   O24844366   6.191   5.036   0.807  0.0153  0.3567 -0.3876
  130MOL   H24944367   6.215   5.288   0.807 -0.6105  1.8370 -1.1269
  130MOL   H25044368   6.066   5.341   0.864  0.9316  0.1212  0.9594
  130MOL   H25144369   6.088   5.110   0.964 -0.5858 -0.7578  0.0122
  130MOL   H25244370   6.023   4.873   0.752 -0.8348 -1.6456  2.2044
  130MOL   H25344371   5.816   4.799   0.655  1.1513  1.0566 -1.5799
  130MOL   H25444372   5.603   4.940   0.683  0.0992  1.1026 -0.7138
  130MOL   H25544373   5.616   5.151   0.779 -0.5277 -0.2515 -1.5626
  130MOL   H25644374   5.839   5.246   0.870  0.7432  0.5677 -0.0761
  130MOL   C25744375   6.238   4.933   0.895 -0.1193  0.0952 -0.5781
  130MOL   C25844376   6.339   4.835   0.823 -0.5030 -0.1254 -0.2436
  130MOL   C25944377   6.458   4.902   0.761 -0.3417  0.2897 -0.2293
  130MOL   C26044378   6.449   4.942   0.623 -0.2636 -0.3354  0.1775
  130MOL   C26144379   6.562   4.991   0.563 -0.1528 -0.4269  0.6682
  130MOL   C26244380   6.675   5.027   0.633 -0.8072 -0.5387  0.2277
  130MOL   C26344381   6.688   5.005   0.770 -0.2426  0.0499  0.3136
  130MOL   C26444382   6.582   4.930   0.830 -0.4988 -0.0828 -0.8383
  130MOL   O26544383   6.261   4.759   0.730 -0.0228  0.1544 -0.2724
  130MOL   H26644384   6.157   4.875   0.940  0.3194 -0.1951 -0.1597
  130MOL   H26744385   6.294   4.985   0.972 -1.8490  0.8870  0.1819
  130MOL   H26844386   6.371   4.763   0.899  1.0528  1.1803  0.3713
  130MOL   H26944387   6.364   4.918   0.561  2.2127 -1.7752 -2.7561
  130MOL   H27044388   6.547   5.006   0.457 -2.5377  3.4919  1.4377
  130MOL   H27144389   6.747   5.085   0.577  0.5353 -0.1529  2.2721
  130MOL   H27244390   6.781   5.027   0.821 -1.0002  0.5788  1.4737
  130MOL   H27344391   6.583   4.908   0.936  1.1006  0.1759 -0.7777
  130MOL   C27444392   6.198   4.646   0.789 -0.0891  0.3127  0.3278
  130MOL   C27544393   6.076   4.605   0.702 -0.5624  0.2670 -0.5141
  130MOL   C27644394   5.994   4.496   0.771  0.3250  0.2583 -0.1263
  130MOL   C27744395   5.910   4.518   0.885 -0.2177 -1.0049 -0.1465
  130MOL   C27844396   5.828   4.411   0.932  0.3477 -0.1563 -0.6589
  130MOL   C27944397   5.848   4.280   0.891  1.2701 -0.0719  0.3870
  130MOL   C28044398   5.948   4.254   0.789  0.2821  0.6761 -0.2631
  130MOL   C28144399   6.010   4.366   0.723  1.2497  0.3854  0.3196
  130MOL   O28244400   6.130   4.551   0.576 -0.1552  0.1451  0.0526
  130MOL   H28344401   6.269   4.564   0.785 -1.7392 -1.1367  0.3509
  130MOL   H28444402   6.171   4.655   0.894  1.0466 -0.4700  0.7037
  130MOL   H28544403   6.010   4.690   0.685 -0.0758  1.0682  1.4595
  130MOL   H28644404   5.902   4.621   0.918 -2.3354 -0.9772 -0.7135
  130MOL   H28744405   5.747   4.421   1.004 -0.9044 -0.6263 -1.9696
  130MOL   H28844406   5.789   4.196   0.927  1.0065 -0.6146 -1.2718
  130MOL   H28944407   5.967   4.155   0.751 -2.4297  0.3452 -0.8996
  130MOL   H29044408   6.074   4.351   0.637 -0.9162 -2.5368 -0.8948
  130MOL   C29144409   6.126   4.653   0.470 -0.5474  0.3036  0.2119
  130MOL   C29244410   5.999   4.635   0.377 -0.2284 -0.0158 -0.4663
  130MOL   C29344411   6.021   4.521   0.285 -0.4145 -0.2439 -0.5176
  130MOL   C29444412   6.005   4.549   0.150  0.0190 -0.3343  0.3290
  130MOL   C29544413   6.026   4.457   0.049 -0.6274  0.2606  0.3545
  130MOL   C29644414   6.072   4.327   0.080 -0.3593  0.1892  0.7526
  130MOL   C29744415   6.087   4.297   0.214 -0.2405  0.2158  0.4921
  130MOL   C29844416   6.061   4.391   0.316  0.4452  0.2730  0.4515
  130MOL   O29944417   5.887   4.612   0.465 -0.1090 -0.1527  0.0120
  130MOL   H30044418   6.220   4.653   0.415 -1.4838 -0.6272 -1.4419
  130MOL   H30144419   6.124   4.754   0.510  0.4127 -0.4208  2.1807
  130MOL   H30244420   6.000   4.727   0.319  2.8237  2.9129  3.8686
  130MOL   H30344421   5.969   4.645   0.115  3.7422  1.2980  0.7107
  130MOL   H30444422   5.996   4.483   8.028 -1.9599 -2.5893 -0.0622
  130MOL   H30544423   6.085   4.258   8.078 -0.1101  3.2840 -1.8911
  130MOL   H30644424   6.113   4.200   0.253 -0.0700  1.2658  3.0462
  130MOL   H30744425   6.063   4.360   0.420 -1.1080 -1.2512  0.0517
  130MOL   C30844426   5.763   4.643   0.410  0.8620 -0.7823 -0.7779
  130MOL   C30944427   5.651   4.558   0.469  0.2941  0.2872  0.1439
  130MOL   C31044428   5.679   4.409   0.461 -0.2797  0.2172 -0.0090
  130MOL   C31144429   5.693   4.341   0.334 -0.5447  0.0808 -0.3192
  130MOL   C31244430   5.717   4.201   0.331 -0.3878  0.4090 -0.2742
  130MOL   C31344431   5.717   4.124   0.447 -0.4145 -0.0949  0.0541
  130MOL   C31444432   5.706   4.192   0.570  0.1856  0.4894 -0.1961
  130MOL   C31544433   5.681   4.334   0.583 -0.9938  0.4607 -0.2343
  130MOL   O31644434   5.619   4.618   0.597  0.2858  0.4710 -0.1555
  130MOL   H31744435   5.751   4.608   0.308  1.0605 -1.4383 -0.5766
  130MOL   H31844436   5.744   4.750   0.423  0.5372 -1.1357  2.1044
  130MOL   H31944437   5.575   4.579   0.393 -0.7794 -0.6610  0.9327
  130MOL   H32044438   5.679   4.380   0.234  0.8873 -0.2176 -0.6382
  130MOL   H32144439   5.739   4.150   0.239  1.4678  0.2680  0.2234
  130MOL   H32244440   5.736   4.018   0.452 -0.4092 -0.0661  0.7594
  130MOL   H32344441   5.698   4.136   0.662  1.4180  0.9090  0.1731
  130MOL   H32444442   5.666   4.378   0.680  0.7350  2.5547 -0.8762
  130MOL   C32544443   5.481   4.623   0.608 -0.3333  0.1910  0.3354
  130MOL   C32644444   5.432   4.655   0.749  0.6946 -0.6738 -0.7322
  130MOL   C32744445   5.286   4.698   0.762  0.3705  0.0020 -0.9322
  130MOL   C32844446   5.189   4.611   0.807  0.2464  0.5169  0.1362
  130MOL   C32944447   5.053   4.644   0.802 -0.9543  0.0419 -0.3278
  130MOL   C33044448   5.011   4.773   0.756  0.3032  0.2158  0.5956
  130MOL   C33144449   5.110   4.861   0.713 -0.4763  0.0687  0.9008
  130MOL   C33244450   5.244   4.822   0.716 -0.4887 -0.1715  0.1710
  130MOL   O33344451   5.464   4.538   0.824 -0.4990 -0.0904 -0.0963
  130MOL   H33444452   5.422   4.541   0.565  1.4634 -0.7276 -0.4560
  130MOL   H33544453   5.458   4.713   0.552 -1.9761 -0.7761 -0.6134
  130MOL   H33644454   5.500   4.730   0.789 -1.4350  0.8297  0.1178
  130MOL   H33744455   5.209   4.510   0.839 -0.1664 -0.1739 -1.7637
  130MOL   H33844456   4.975   4.572   0.822  1.6778 -2.7300  0.1757
  130MOL   H33944457   4.906   4.798   0.752  0.1739 -0.1043  1.7733
  130MOL   H34044458   5.094   4.964   0.686  0.8369 -0.3367 -1.5291
  130MOL   H34144459   5.320   4.891   0.682  0.6762 -2.0364 -1.0723
  130MOL   H34244460   5.505   4.471   0.771  1.1031  2.6566 -2.4594
  131MOL     C144461   4.885   2.240   5.572  0.4521 -0.0240  0.4786
  131MOL     C244462   5.011   2.326   5.578  0.6481  0.4618  0.2591
  131MOL     C344463   5.133   2.260   5.518  0.7461 -0.3387  0.3730
  131MOL     C444464   5.202   2.168   5.604  0.6962  0.0644 -0.2707
  131MOL     C544465   5.321   2.107   5.549 -0.0720 -0.4872  0.0741
  131MOL     C644466   5.360   2.129   5.416  0.4033  0.0835  0.2773
  131MOL     C744467   5.281   2.218   5.336 -0.2626 -0.2742  0.6933
  131MOL     C844468   5.171   2.277   5.383 -0.6091  0.0186  0.3213
  131MOL     O944469   5.043   2.359   5.715 -0.1866 -0.7490 -0.0313
  131MOL    H1044470   4.791   2.289   5.596  0.0658 -0.4322 -0.1890
  131MOL    H1144471   4.866   2.206   5.470 -1.0909 -2.1426  1.4348
  131MOL    H1244472   4.988   2.420   5.529 -2.0107 -0.0754  0.4387
  131MOL    H1344473   5.169   2.147   5.704  0.4319  0.3259 -0.3017
  131MOL    H1444474   5.374   2.024   5.592 -0.2203 -0.7657 -0.2855
  131MOL    H1544475   5.449   2.073   5.390  0.1215 -0.2275 -0.0264
  131MOL    H1644476   5.319   2.244   5.238  0.3930 -1.4268  0.6265
  131MOL    H1744477   5.109   2.334   5.315 -0.9215 -0.6234  0.0621
  131MOL    H1844478   4.885   2.155   5.640 -0.4291  1.2302  2.0602
  131MOL    C1944479   5.111   2.491   5.732  0.0539 -0.1812  1.6627
  131MOL    C2044480   5.192   2.494   5.854  0.1464  0.6891  0.3962
  131MOL    C2144481   5.104   2.475   5.980 -0.2765  0.3853  0.0476
  131MOL    C2244482   5.101   2.348   6.047  0.6517 -0.2483  0.1368
  131MOL    C2344483   5.033   2.332   6.170 -0.5384  0.8498  0.5651
  131MOL    C2444484   4.946   2.439   6.207 -0.3478  0.4005  0.0045
  131MOL    C2544485   4.946   2.569   6.140  0.4060  0.2135  0.5059
  131MOL    C2644486   5.025   2.584   6.021 -0.7259  0.6635 -0.2212
  131MOL    O2744487   5.261   2.622   5.862 -0.4000 -0.9526  0.4963
  131MOL    H2844488   5.171   2.516   5.645 -0.6630  0.0985  1.2503
  131MOL    H2944489   5.031   2.564   5.729 -0.8996 -1.3009 -1.9558
  131MOL    H3044490   5.251   2.403   5.859 -0.0601  0.6493  2.7324
  131MOL    H3144491   5.156   2.264   6.009  1.2183  0.6928 -1.1475
  131MOL    H3244492   5.036   2.239   6.225 -3.1334  0.1901 -0.3344
  131MOL    H3344493   4.879   2.419   6.289  0.1771  0.6944  0.5061
  131MOL    H3444494   4.883   2.648   6.177 -0.5184 -0.6069  0.7114
  131MOL    H3544495   5.017   2.673   5.961 -2.7128 -0.6701 -2.0081
  131MOL    C3644496   5.352   2.618   5.971 -0.0177  0.4675 -0.4929
  131MOL    C3744497   5.469   2.718   5.946  0.1229 -0.5892 -0.3053
  131MOL    C3844498   5.603   2.642   5.927  0.0951  0.0978  0.0681
  131MOL    C3944499   5.653   2.634   5.796  0.3397 -0.5549 -0.4670
  131MOL    C4044500   5.772   2.561   5.779 -0.1974  0.3876 -0.3676
  131MOL    C4144501   5.834   2.487   5.886  0.1274  0.1618  0.8907
  131MOL    C4244502   5.786   2.499   6.014  0.1668 -0.0928 -0.4236
  131MOL    C4344503   5.674   2.582   6.032 -0.4746 -1.0972 -0.3784
  131MOL    O4444504   5.476   2.802   6.062  0.3168  0.1380 -0.6056
  131MOL    H4544505   5.294   2.647   6.058 -0.0925 -1.0759 -0.0223
  131MOL    H4644506   5.383   2.515   5.989 -1.3084  0.1417 -0.0924
  131MOL    H4744507   5.448   2.789   5.866  1.4236  0.1710  0.0106
  131MOL    H4844508   5.601   2.682   5.714 -0.6253 -1.4827 -0.3957
  131MOL    H4944509   5.798   2.543   5.676  0.4730 -0.8158 -0.0094
  131MOL    H5044510   5.926   2.432   5.871  0.7660  1.5575 -0.4673
  131MOL    H5144511   5.846   2.450   6.089 -0.6638  0.5685  0.6890
  131MOL    H5244512   5.645   2.598   6.135  2.0745 -0.5011  0.2768
  131MOL    C5344513   5.559   2.918   6.036  0.2753 -0.0346  0.0588
  131MOL    C5444514   5.583   3.001   6.165  0.1708  0.4876  0.0984
  131MOL    C5544515   5.457   3.046   6.239 -0.3027  0.5664  0.5221
  131MOL    C5644516   5.406   2.968   6.343 -0.3697 -0.0818  0.2445
  131MOL    C5744517   5.294   3.022   6.410  1.1052  0.3786  0.3986
  131MOL    C5844518   5.231   3.144   6.367  0.7534 -0.5027  0.0770
  131MOL    C5944519   5.289   3.223   6.269 -0.6897 -0.8134 -0.1079
  131MOL    C6044520   5.392   3.165   6.194 -0.0300  0.6172 -0.5518
  131MOL    O6144521   5.666   2.921   6.248  0.3233 -0.0320 -0.4402
  131MOL    H6244522   5.657   2.891   5.998  0.0390 -0.8042 -0.0069
  131MOL    H6344523   5.505   2.988   5.973 -1.2765  0.7227  2.1423
  131MOL    H6444524   5.640   3.091   6.140 -1.2551  1.9003  1.8479
  131MOL    H6544525   5.448   2.872   6.368  2.2112  0.9848  0.0693
  131MOL    H6644526   5.257   2.966   6.494  0.3731  0.0620 -0.1266
  131MOL    H6744527   5.154   3.180   6.435  0.7071 -0.4779  0.0110
  131MOL    H6844528   5.249   3.321   6.244 -0.1651  0.2673  3.0340
  131MOL    H6944529   5.433   3.220   6.111  2.6802  0.7532  0.8305
  131MOL    C7044530   5.766   2.992   6.327  0.0029  0.1492 -0.0700
  131MOL    C7144531   5.811   2.923   6.457  0.6597 -0.0464  0.6861
  131MOL    C7244532   5.873   3.024   6.542  0.1370  0.4862 -0.2350
  131MOL    C7344533   6.007   3.057   6.523 -0.6910 -0.3147 -0.6932
  131MOL    C7444534   6.067   3.154   6.605 -0.0726  0.4224  0.1286
  131MOL    C7544535   5.987   3.221   6.701  0.5443 -0.2886 -0.1886
  131MOL    C7644536   5.848   3.192   6.709 -0.6256 -0.3998 -0.7513
  131MOL    C7744537   5.792   3.094   6.635  0.4697 -0.1191 -0.8253
  131MOL    O7844538   5.903   2.816   6.426 -0.1580 -0.0710  0.0590
  131MOL    H7944539   5.862   3.003   6.277  0.7053 -1.4357  0.8656
  131MOL    H8044540   5.719   3.085   6.358 -0.7117 -0.2816  0.1685
  131MOL    H8144541   5.730   2.883   6.518  0.2510  1.8470  1.4061
  131MOL    H8244542   6.068   2.996   6.458  0.6804  0.7081 -0.3888
  131MOL    H8344543   6.167   3.192   6.590 -0.0001  0.7619  1.4230
  131MOL    H8444544   6.034   3.291   6.769 -0.9302  0.8297 -0.3090
  131MOL    H8544545   5.790   3.229   6.792  0.5622 -1.4231  0.5700
  131MOL    H8644546   5.688   3.064   6.640  0.4746  0.0671  0.5506
  131MOL    C8744547   5.852   2.694   6.364 -0.8843  0.9605 -0.1676
  131MOL    C8844548   5.956   2.581   6.385 -0.0437  0.5583 -0.4355
  131MOL    C8944549   6.089   2.617   6.327 -0.0328 -0.5306  0.1924
  131MOL    C9044550   6.175   2.699   6.400  0.0999  0.2118 -0.4070
  131MOL    C9144551   6.295   2.745   6.344  0.0589 -0.0402 -0.2665
  131MOL    C9244552   6.334   2.715   6.210  0.3488 -0.6305  0.6791
  131MOL    C9344553   6.253   2.626   6.133 -0.3934  0.0509 -0.3492
  131MOL    C9444554   6.136   2.572   6.199  0.8025  0.4331  0.5032
  131MOL    O9544555   5.896   2.469   6.316  0.7268 -0.0171 -0.7101
  131MOL    H9644556   5.850   2.703   6.255 -0.4326 -0.3157 -0.2895
  131MOL    H9744557   5.754   2.657   6.395 -0.8481  0.3529 -0.7590
  131MOL    H9844558   5.974   2.563   6.490  1.7249  0.7855 -0.6941
  131MOL    H9944559   6.139   2.730   6.497 -1.9868 -2.3076 -0.3205
  131MOL   H10044560   6.362   2.813   6.394 -0.2407 -0.2418  0.4188
  131MOL   H10144561   6.428   2.757   6.176  1.1995 -2.8587  0.1578
  131MOL   H10244562   6.289   2.589   6.039  0.2368  1.8446 -0.8357
  131MOL   H10344563   6.083   2.494   6.146 -0.6512  3.0588 -1.9880
  131MOL   C10444564   5.944   2.342   6.356  0.1748 -0.4402  0.4643
  131MOL   C10544565   5.844   2.235   6.326 -0.4175  0.1913  0.0576
  131MOL   C10644566   5.907   2.093   6.303  0.0083  0.1844  0.2589
  131MOL   C10744567   5.953   2.019   6.415  0.4670 -0.3524 -0.3145
  131MOL   C10844568   6.031   1.903   6.403  0.8089  0.8259  0.2760
  131MOL   C10944569   6.048   1.850   6.272  0.0437 -0.1764 -0.1627
  131MOL   C11044570   5.995   1.922   6.156 -0.1146  0.8579  0.1520
  131MOL   C11144571   5.925   2.043   6.176  0.3378 -0.5225  0.3832
  131MOL   O11244572   5.738   2.239   6.422  0.5335 -0.3439  0.5179
  131MOL   H11344573   6.036   2.327   6.300 -1.0506 -2.0303 -1.1698
  131MOL   H11444574   5.976   2.341   6.460 -1.9616 -1.5601  1.1566
  131MOL   H11544575   5.802   2.264   6.230  0.9937  0.1518 -0.5771
  131MOL   H11644576   5.929   2.061   6.512 -1.8296  0.4028 -1.1663
  131MOL   H11744577   6.070   1.844   6.485  2.2481  0.3207 -0.7511
  131MOL   H11844578   6.105   1.759   6.259 -0.1885 -0.0812 -2.0140
  131MOL   H11944579   6.018   1.899   6.053  0.6506  1.9120  0.0782
  131MOL   H12044580   5.892   2.098   6.090 -1.4871  0.1755  1.5049
  131MOL   C12144581   5.640   2.353   6.418 -0.3037  0.0477 -0.0407
  131MOL   C12244582   5.495   2.302   6.431 -0.4827 -0.3099  1.2667
  131MOL   C12344583   5.405   2.409   6.466  0.3046  0.6840  0.6412
  131MOL   C12444584   5.362   2.501   6.366  0.2411  0.5050  0.3540
  131MOL   C12544585   5.276   2.609   6.392 -0.0586 -0.2516 -0.2134
  131MOL   C12644586   5.233   2.622   6.528 -0.1451 -0.0399  0.6222
  131MOL   C12744587   5.277   2.533   6.631  0.1911  0.2762 -0.3532
  131MOL   C12844588   5.371   2.430   6.603 -0.4674  0.1747  0.5016
  131MOL   O12944589   5.462   2.249   6.302  0.4092 -0.6156  0.0674
  131MOL   H13044590   5.650   2.397   6.319 -1.2499 -2.3475 -1.2276
  131MOL   H13144591   5.669   2.422   6.498  2.8495  1.2072 -2.0995
  131MOL   H13244592   5.496   2.222   6.505 -0.0224 -1.8706 -0.3838
  131MOL   H13344593   5.396   2.485   6.265 -1.3009  1.1736 -0.2745
  131MOL   H13444594   5.241   2.676   6.314  2.7305  0.4679 -0.8950
  131MOL   H13544595   5.169   2.701   6.564  0.2782  0.8792 -0.6017
  131MOL   H13644596   5.244   2.545   6.734  1.8950  2.4972 -0.0431
  131MOL   H13744597   5.404   2.373   6.688 -2.2873  0.7048  1.5843
  131MOL   C13844598   5.487   2.113   6.292 -0.2498  0.0590  0.2321
  131MOL   C13944599   5.431   2.042   6.168 -0.1087  0.6147 -0.3801
  131MOL   C14044600   5.508   2.090   6.037 -0.9762  0.5054  0.4442
  131MOL   C14144601   5.622   2.018   6.001 -0.2502  0.2477  0.0453
  131MOL   C14244602   5.698   2.051   5.880  0.4156 -0.8504 -0.0940
  131MOL   C14344603   5.658   2.154   5.795 -1.1642  0.0965 -0.7309
  131MOL   C14444604   5.539   2.229   5.837 -0.5072  0.3527 -0.1917
  131MOL   C14544605   5.469   2.202   5.953 -0.6053  0.9706  0.2998
  131MOL   O14644606   5.452   1.902   6.184  0.0774 -0.5543  0.1266
  131MOL   H14744607   5.450   2.054   6.376  1.4930 -1.3986  0.0220
  131MOL   H14844608   5.591   2.082   6.300 -0.4407 -1.3986 -2.3761
  131MOL   H14944609   5.325   2.065   6.158  0.2009  1.6481 -1.2846
  131MOL   H15044610   5.664   1.936   6.058 -1.1949 -1.9021 -2.2699
  131MOL   H15144611   5.787   1.997   5.852  0.7742  0.5297 -1.6689
  131MOL   H15244612   5.723   2.175   5.712  2.8178 -1.1255  1.9562
  131MOL   H15344613   5.513   2.318   5.782 -0.2729  0.4865 -0.0854
  131MOL   H15444614   5.390   2.268   5.988 -1.8252 -0.1095 -0.3746
  131MOL   C15544615   5.328   1.836   6.145 -0.2537 -1.1056  0.4867
  131MOL   C15644616   5.329   1.691   6.191 -0.0063 -0.7914  0.6359
  131MOL   C15744617   5.188   1.621   6.195  0.2866 -0.1243  0.3310
  131MOL   C15844618   5.151   1.549   6.306  0.1097 -0.2085  0.7879
  131MOL   C15944619   5.015   1.508   6.323 -0.2780  0.1590  0.3906
  131MOL   C16044620   4.915   1.538   6.224  0.0880  0.1187 -0.7217
  131MOL   C16144621   4.962   1.610   6.111  0.0657 -0.5095 -0.3488
  131MOL   C16244622   5.097   1.652   6.095  0.2513  0.1081 -0.1317
  131MOL   O16344623   5.422   1.628   6.109  0.5428 -0.3129 -0.2155
  131MOL   H16444624   5.314   1.837   6.037  1.4736  0.2432  0.2637
  131MOL   H16544625   5.244   1.874   6.203 -0.3796  1.0414 -1.0372
  131MOL   H16644626   5.357   1.695   6.297  0.8147 -1.0817  0.4293
  131MOL   H16744627   5.222   1.524   6.382  0.0986 -0.0898  0.8365
  131MOL   H16844628   4.982   1.462   6.415 -0.7775 -0.9489 -0.3313
  131MOL   H16944629   4.814   1.506   6.241  0.7998 -0.6407  2.4223
  131MOL   H17044630   4.886   1.644   6.042  0.0129  1.3315  0.5910
  131MOL   H17144631   5.129   1.704   6.007 -0.4759  1.1458  0.2071
  131MOL   C17244632   5.517   1.547   6.175 -0.5281  0.7452  0.1217
  131MOL   C17344633   5.627   1.623   6.243 -0.3337 -0.1744  0.3211
  131MOL   C17444634   5.752   1.534   6.259 -0.2188 -0.1503 -0.0615
  131MOL   C17544635   5.788   1.480   6.384  0.5624 -0.2185 -0.5806
  131MOL   C17644636   5.893   1.391   6.392 -1.1289  0.3612  0.1438
  131MOL   C17744637   5.973   1.359   6.278  1.0012 -0.9262 -0.5815
  131MOL   C17844638   5.942   1.413   6.156  0.1048  0.4121 -0.1299
  131MOL   C17944639   5.832   1.499   6.145  0.5814  0.0576  0.6409
  131MOL   O18044640   5.574   1.657   6.372  0.4626  0.0551  0.2389
  131MOL   H18144641   5.461   1.485   6.245 -0.0060  0.9903  0.7596
  131MOL   H18244642   5.551   1.482   6.095  2.9670  2.0095  0.4924
  131MOL   H18344643   5.632   1.713   6.182 -3.3022 -0.6253 -0.6348
  131MOL   H18444644   5.728   1.496   6.473  0.0807  1.2129 -1.1402
  131MOL   H18544645   5.920   1.343   6.484 -0.7795 -2.1318 -1.2326
  131MOL   H18644646   6.061   1.300   6.299  0.8584  0.0685  3.3012
  131MOL   H18744647   6.007   1.391   6.072  0.2759  1.9913 -0.4382
  131MOL   H18844648   5.805   1.546   6.052 -3.3100 -1.4709  0.8741
  131MOL   C18944649   5.637   1.764   6.423  0.3791 -0.1702 -0.0925
  131MOL   C19044650   5.606   1.750   6.571 -0.2867  0.1432  0.1753
  131MOL   C19144651   5.453   1.739   6.593 -0.2732 -0.6224  0.0737
  131MOL   C19244652   5.368   1.847   6.579  0.2820 -0.0628  1.2805
  131MOL   C19344653   5.232   1.834   6.604 -0.6227 -0.1721 -0.1800
  131MOL   C19444654   5.183   1.714   6.654  0.8183 -0.3306  0.6085
  131MOL   C19544655   5.268   1.608   6.676  0.0168  0.0988  0.6688
  131MOL   C19644656   5.404   1.618   6.646 -0.1363  0.2032 -0.4449
  131MOL   O19744657   5.656   1.874   6.631 -0.1077 -0.1802 -0.0596
  131MOL   H19844658   5.743   1.764   6.398  0.4054 -0.8095  0.0249
  131MOL   H19944659   5.594   1.855   6.380 -1.2718 -1.5725 -1.4831
  131MOL   H20044660   5.654   1.660   6.608  0.9498  0.9236  0.4803
  131MOL   H20144661   5.403   1.937   6.530 -0.0726 -1.2364 -1.1745
  131MOL   H20244662   5.167   1.916   6.579  2.0376  1.0717 -3.4983
  131MOL   H20344663   5.077   1.694   6.653  0.8892 -0.8958  1.9690
  131MOL   H20444664   5.225   1.514   6.705 -0.3130  0.0173 -0.0583
  131MOL   H20544665   5.470   1.533   6.655 -1.1605 -0.3952  1.7190
  131MOL   C20644666   5.773   1.855   6.714 -0.0382  0.2141  0.5178
  131MOL   C20744667   5.744   1.765   6.843  0.2597  0.7596 -0.5855
  131MOL   C20844668   5.822   1.817   6.956  0.2543  0.1435  0.6268
  131MOL   C20944669   5.946   1.761   6.997  0.0832  0.3638 -0.0598
  131MOL   C21044670   6.027   1.812   7.101 -0.2169 -0.1392  0.1200
  131MOL   C21144671   5.986   1.933   7.161 -0.3786 -0.0333 -0.4219
  131MOL   C21244672   5.863   1.993   7.126  0.4608  0.0790 -0.2120
  131MOL   C21344673   5.782   1.932   7.026 -0.4009  0.0528  0.1288
  131MOL   O21444674   5.784   1.631   6.813  0.1134  0.4509  0.0192
  131MOL   H21544675   5.851   1.798   6.663  0.6838  0.6303  1.1576
  131MOL   H21644676   5.820   1.952   6.730  1.4335 -0.6786  1.6990
  131MOL   H21744677   5.642   1.775   6.880  0.3128 -1.3302  0.1949
  131MOL   H21844678   5.981   1.668   6.953  0.4308  0.1728  0.6179
  131MOL   H21944679   6.118   1.764   7.134  0.6942  1.1093 -0.5472
  131MOL   H22044680   6.048   1.966   7.243 -2.3758  2.1001  0.3012
  131MOL   H22144681   5.817   2.074   7.181 -0.8364 -0.4069 -0.5882
  131MOL   H22244682   5.692   1.985   6.998 -0.1358  0.3219 -0.2116
  131MOL   C22344683   5.735   1.528   6.907 -0.0274  0.5778 -0.1747
  131MOL   C22444684   5.813   1.394   6.869 -0.6065 -0.0501 -0.0829
  131MOL   C22544685   5.957   1.392   6.928  0.3912 -0.3544  0.3600
  131MOL   C22644686   6.074   1.416   6.856 -0.5424  0.1677 -0.6513
  131MOL   C22744687   6.203   1.412   6.912 -0.2099  0.2285  0.0479
  131MOL   C22844688   6.215   1.381   7.047  0.1685  0.2739 -0.3041
  131MOL   C22944689   6.100   1.366   7.126  0.7958 -0.0944 -0.6839
  131MOL   C23044690   5.971   1.375   7.066 -0.4581  0.3584  0.0443
  131MOL   O23144691   5.735   1.290   6.905 -0.0413 -0.2718 -0.2051
  131MOL   H23244692   5.758   1.542   7.013 -4.8403 -1.3813  1.2631
  131MOL   H23344693   5.628   1.519   6.893  0.0572  0.0938 -0.5183
  131MOL   H23444694   5.812   1.400   6.760  0.7584 -2.0622 -0.2463
  131MOL   H23544695   6.068   1.438   6.751  1.7201 -0.5881 -0.9756
  131MOL   H23644696   6.291   1.427   6.852  1.3140 -0.8490  1.9402
  131MOL   H23744697   6.311   1.365   7.093  1.1234  2.0561 -1.6188
  131MOL   H23844698   6.097   1.353   7.233  0.0806 -2.1506 -0.9373
  131MOL   H23944699   5.880   1.369   7.124 -1.2546 -0.1762 -1.2358
  131MOL   C24044700   5.776   1.173   6.844 -0.2527  0.1849  0.1337
  131MOL   C24144701   5.669   1.127   6.748  1.0148 -0.3327 -0.0649
  131MOL   C24244702   5.533   1.118   6.818  0.1244  0.4013 -0.4834
  131MOL   C24344703   5.485   0.991   6.860 -1.1234 -0.1009 -0.3178
  131MOL   C24444704   5.362   0.982   6.934 -0.1909  0.8397 -0.4736
  131MOL   C24544705   5.277   1.095   6.949  0.0175  0.5334 -0.1595
  131MOL   C24644706   5.320   1.221   6.900  0.5443  0.2889 -0.4073
  131MOL   C24744707   5.449   1.226   6.834  0.3789 -0.6979  0.6934
  131MOL   O24844708   5.658   1.217   6.635 -0.7762 -0.1839  0.2927
  131MOL   H24944709   5.869   1.190   6.791 -1.0923 -1.5728 -2.0018
  131MOL   H25044710   5.795   1.095   6.917  1.5073  1.1722  0.7602
  131MOL   H25144711   5.669   1.024   6.712 -1.0677 -0.8453  1.3171
  131MOL   H25244712   5.544   0.901   6.855 -1.3493 -0.2909  0.4116
  131MOL   H25344713   5.324   0.888   6.971  2.7074 -0.7630 -1.4080
  131MOL   H25444714   5.182   1.091   7.001  0.6934 -1.1624  1.0183
  131MOL   H25544715   5.268   1.315   6.913  0.3920  0.4145 -1.8282
  131MOL   H25644716   5.485   1.324   6.805 -0.5053 -0.6630 -0.2901
  131MOL   C25744717   5.584   1.184   6.518 -0.7635 -0.3205  0.0013
  131MOL   C25844718   5.659   1.109   6.404  0.4216  0.0727 -0.3647
  131MOL   C25944719   5.573   1.117   6.277  0.2676 -0.3976 -0.8141
  131MOL   C26044720   5.627   1.176   6.163  0.4900  0.3304  0.3072
  131MOL   C26144721   5.554   1.189   6.041  0.0091  0.2005 -0.1610
  131MOL   C26244722   5.427   1.134   6.029  0.3122 -0.0274  0.4068
  131MOL   C26344723   5.368   1.084   6.150 -0.5015 -0.0392  0.5992
  131MOL   C26444724   5.440   1.073   6.270  0.6167  0.4103  0.7258
  131MOL   O26544725   5.677   0.975   6.453  0.5186  0.8382  0.2154
  131MOL   H26644726   5.551   1.279   6.475 -0.4260 -1.3261 -2.5700
  131MOL   H26744727   5.492   1.135   6.550 -0.7349 -0.9482 -0.8403
  131MOL   H26844728   5.755   1.160   6.396  1.1803 -1.2349  0.4321
  131MOL   H26944729   5.728   1.216   6.168 -0.7175  3.6774 -0.9820
  131MOL   H27044730   5.603   1.243   5.961 -0.2271  2.3007  1.0600
  131MOL   H27144731   5.366   1.139   5.941 -0.1552 -1.9587  0.6114
  131MOL   H27244732   5.265   1.055   6.144 -0.3342 -0.5768  0.3211
  131MOL   H27344733   5.386   1.047   6.360 -1.0137 -0.8073 -0.5852
  131MOL   C27444734   5.746   0.888   6.363  0.1594  0.3804 -0.1486
  131MOL   C27544735   5.787   0.760   6.432 -0.1153 -0.1441 -1.0905
  131MOL   C27644736   5.877   0.781   6.557 -0.3669  0.1400 -0.4276
  131MOL   C27744737   6.017   0.767   6.544 -0.0644 -0.3806  0.7161
  131MOL   C27844738   6.107   0.792   6.650  0.6880  0.2641 -0.3788
  131MOL   C27944739   6.055   0.828   6.774  0.2376  0.8524  0.1116
  131MOL   C28044740   5.913   0.848   6.790  0.3642  0.7760 -0.1611
  131MOL   C28144741   5.825   0.815   6.683 -0.9458  0.8278  0.2110
  131MOL   O28244742   5.857   0.693   6.326  0.2090 -0.3359  0.3227
  131MOL   H28344743   5.683   0.881   6.275 -0.5732  0.0582  0.3915
  131MOL   H28444744   5.837   0.938   6.331  1.5649 -2.7306 -1.2193
  131MOL   H28544745   5.698   0.704   6.458 -0.1721  0.0447 -0.8745
  131MOL   H28644746   6.056   0.739   6.448 -1.1431 -0.3442  0.2644
  131MOL   H28744747   6.211   0.788   6.623  0.0955  0.6642 -2.8472
  131MOL   H28844748   6.123   0.861   6.851  0.4678  1.9423 -0.5406
  131MOL   H28944749   5.877   0.873   6.889  1.1059  2.2872 -0.2612
  131MOL   H29044750   5.719   0.799   6.697 -1.1032  0.3992 -1.4261
  131MOL   C29144751   5.838   0.556   6.314 -0.2348 -0.1997 -0.0432
  131MOL   C29244752   5.706   0.526   6.239 -0.5536  0.6107 -0.8827
  131MOL   C29344753   5.678   0.623   6.124  0.0736 -0.7391  0.2609
  131MOL   C29444754   5.557   0.685   6.129 -0.1615 -1.1398 -0.4883
  131MOL   C29544755   5.522   0.779   6.025  0.4014 -0.0760 -0.2473
  131MOL   C29644756   5.617   0.809   5.923  0.0493  0.3978 -0.3096
  131MOL   C29744757   5.740   0.734   5.924 -0.0037 -1.0393 -0.2047
  131MOL   C29844758   5.766   0.636   6.018 -0.1076  0.3409  1.1500
  131MOL   O29944759   5.721   0.387   6.195  0.1109  0.1493 -0.1903
  131MOL   H30044760   5.836   0.514   6.415  0.6767 -1.8829 -0.7096
  131MOL   H30144761   5.922   0.516   6.258  0.2366 -2.0899  1.9333
  131MOL   H30244762   5.630   0.531   6.316  2.7097 -4.0209  2.9387
  131MOL   H30344763   5.489   0.680   6.213  1.0060  0.1264  0.5376
  131MOL   H30444764   5.426   0.829   6.030 -0.1421 -1.1208 -0.2185
  131MOL   H30544765   5.596   0.887   5.850 -3.0066 -0.4997 -0.4570
  131MOL   H30644766   5.816   0.760   5.851 -2.2070  1.9357 -1.5235
  131MOL   H30744767   5.863   0.588   6.020  0.2026  0.9553  0.6755
  131MOL   C30844768   5.606   0.322   6.132 -0.2300 -0.1305  0.3693
  131MOL   C30944769   5.488   0.284   6.221  0.2030 -1.1459 -0.4883
  131MOL   C31044770   5.525   0.192   6.338 -0.4536  0.7302  0.1034
  131MOL   C31144771   5.511   0.236   6.470  0.3438 -0.1034 -0.9701
  131MOL   C31244772   5.528   0.154   6.580  0.7927 -0.5037  0.2822
  131MOL   C31344773   5.564   0.027   6.558  0.1374  0.1395 -1.4255
  131MOL   C31444774   5.577   8.058   6.428  0.0652  0.0008 -0.0441
  131MOL   C31544775   5.555   0.057   6.314 -0.0162 -0.0565 -0.4072
  131MOL   O31644776   5.420   0.407   6.266  0.2588  0.0711 -0.4508
  131MOL   H31744777   5.640   0.225   6.095 -1.2852  0.3429 -1.8497
  131MOL   H31844778   5.567   0.378   6.048 -0.3905 -0.5833  0.1411
  131MOL   H31944779   5.422   0.227   6.156  0.0167 -1.7864  0.2596
  131MOL   H32044780   5.490   0.338   6.497  1.9148  0.4873 -1.9487
  131MOL   H32144781   5.507   0.189   6.680 -4.0989  1.1993 -1.1660
  131MOL   H32244782   5.579   8.046   6.645  2.1442  2.3177 -0.1896
  131MOL   H32344783   5.608   7.956   6.410 -0.5983 -0.1711 -0.2242
  131MOL   H32444784   5.552   0.028   6.210  2.2537 -0.7331 -0.3204
  131MOL   C32544785   5.291   0.420   6.216 -0.1089 -0.3091  0.2348
  131MOL   C32644786   5.186   0.448   6.327 -0.2086  0.1676 -1.9284
  131MOL   C32744787   5.223   0.554   6.429  0.0939 -0.0175 -0.3537
  131MOL   C32844788   5.282   0.511   6.553 -0.1402 -0.3225 -0.5563
  131MOL   C32944789   5.338   0.606   6.640  0.2487 -0.6058  0.2008
  131MOL   C33044790   5.347   0.740   6.602 -0.1162  0.5576 -0.8122
  131MOL   C33144791   5.292   0.783   6.478 -0.0268 -0.2734 -0.8268
  131MOL   C33244792   5.231   0.689   6.390  0.4717  0.3726  0.0125
  131MOL   O33344793   5.067   0.494   6.268  0.0423  0.3895 -0.2319
  131MOL   H33444794   5.263   0.339   6.149  1.8694 -1.4770  0.7784
  131MOL   H33544795   5.302   0.503   6.146  0.3646 -0.1589  0.4873
  131MOL   H33644796   5.166   0.358   6.386  2.8127  1.3758  1.1197
  131MOL   H33744797   5.288   0.406   6.580 -1.6716 -0.1222  0.6991
  131MOL   H33844798   5.396   0.569   6.723  0.8052 -1.3162 -0.4977
  131MOL   H33944799   5.395   0.808   6.670 -1.4034  1.3553 -0.6694
  131MOL   H34044800   5.294   0.889   6.458 -1.1047 -0.0999 -0.0698
  131MOL   H34144801   5.205   0.723   6.291  0.5068  0.5659  0.0705
  131MOL   H34244802   5.005   0.500   6.338  0.4557 -1.1465  0.3056
  132MOL     C144803   3.829   2.909   0.979 -0.4703 -0.4629 -0.2357
  132MOL     C244804   3.917   2.824   1.063  0.5663 -0.5868 -0.2049
  132MOL     C344805   3.856   2.762   1.186 -0.6664 -0.4271 -0.0948
  132MOL     C444806   3.763   2.658   1.172  0.1174  0.1097 -0.2445
  132MOL     C544807   3.705   2.599   1.290  0.2999 -0.3321 -0.6847
  132MOL     C644808   3.737   2.647   1.418 -0.3551 -0.5226  1.0488
  132MOL     C744809   3.833   2.750   1.427  0.2594  0.1005 -0.1849
  132MOL     C844810   3.890   2.804   1.309  0.5384 -0.1735 -0.4960
  132MOL     O944811   4.030   2.904   1.084  0.2604  0.3400  0.1385
  132MOL    H1044812   3.878   2.956   0.894 -1.4889  3.0301  1.0156
  132MOL    H1144813   3.743   2.861   0.933 -1.9506  0.7861  1.1518
  132MOL    H1244814   3.929   2.737   0.998 -4.3358 -0.0816 -2.0040
  132MOL    H1344815   3.739   2.629   1.070  0.3996  2.1766 -0.9059
  132MOL    H1444816   3.645   2.509   1.279 -0.6826  0.0853  1.0931
  132MOL    H1544817   3.694   2.588   1.497 -1.7922 -0.8279  0.0556
  132MOL    H1644818   3.869   2.787   1.522  1.4352  0.2546 -0.6742
  132MOL    H1744819   3.969   2.876   1.326  1.4897 -1.4151  0.3967
  132MOL    H1844820   3.788   2.985   1.046 -1.0963 -1.4910  0.5574
  132MOL    C1944821   4.149   2.823   1.119 -0.4817  1.2720  0.8966
  132MOL    C2044822   4.271   2.921   1.103  0.3516  0.5311  0.1742
  132MOL    C2144823   4.285   3.013   1.221 -1.0059 -0.3471  0.3670
  132MOL    C2244824   4.239   3.148   1.217  0.0203 -0.4192  0.0208
  132MOL    C2344825   4.264   3.238   1.316 -0.0873 -0.0512  0.1824
  132MOL    C2444826   4.331   3.195   1.429  0.4536 -0.1382 -0.3598
  132MOL    C2544827   4.366   3.056   1.449  0.3424 -0.3809 -0.2114
  132MOL    C2644828   4.341   2.967   1.344 -0.0493 -1.0702 -0.2382
  132MOL    O2744829   4.255   2.983   0.973  0.0800  0.3879 -0.1586
  132MOL    H2844830   4.147   2.765   1.211 -2.7172 -2.4128 -1.3546
  132MOL    H2944831   4.156   2.742   1.046  1.1498  1.4835  0.7912
  132MOL    H3044832   4.352   2.849   1.094 -1.3404 -1.3252 -0.3922
  132MOL    H3144833   4.187   3.180   1.128 -0.7042 -2.6637 -0.4139
  132MOL    H3244834   4.236   3.340   1.297  0.8141 -0.1556 -1.8341
  132MOL    H3344835   4.348   3.262   1.512 -1.0209 -2.0875  1.5572
  132MOL    H3444836   4.413   3.023   1.541  1.3702 -2.7240 -1.5361
  132MOL    H3544837   4.383   2.868   1.352 -1.7308 -1.7803 -0.0127
  132MOL    C3644838   4.361   3.057   0.921  0.1390 -1.2683 -0.2446
  132MOL    C3744839   4.317   3.132   0.791 -0.1637 -0.1909 -0.7773
  132MOL    C3844840   4.423   3.237   0.749  0.1992 -0.2513 -0.2455
  132MOL    C3944841   4.467   3.339   0.835 -0.3885  0.5212 -0.1955
  132MOL    C4044842   4.574   3.430   0.804 -0.0470  0.2085  0.2485
  132MOL    C4144843   4.633   3.411   0.682 -1.0227 -0.1483  0.3361
  132MOL    C4244844   4.591   3.317   0.585  0.3257  0.1832  0.1487
  132MOL    C4344845   4.484   3.234   0.623  0.1080  0.1741  0.3282
  132MOL    O4444846   4.192   3.200   0.804  0.1810  0.1553 -0.3288
  132MOL    H4544847   4.390   3.128   0.998 -0.6230 -2.1221  0.8662
  132MOL    H4644848   4.448   2.993   0.907  0.5770 -0.9883  1.1756
  132MOL    H4744849   4.309   3.054   0.716  0.8576 -1.8208  0.7668
  132MOL    H4844850   4.421   3.360   0.931  0.8505  1.9100  0.1259
  132MOL    H4944851   4.614   3.503   0.873  0.4084  0.4797 -0.3002
  132MOL    H5044852   4.722   3.468   0.660 -1.8334  0.7467 -0.6666
  132MOL    H5144853   4.642   3.314   0.490 -0.4043 -1.0413 -0.2138
  132MOL    H5244854   4.449   3.162   0.550  0.2574 -0.2536  0.6746
  132MOL    C5344855   4.080   3.112   0.811 -0.1296 -0.0867  0.3641
  132MOL    C5444856   3.978   3.178   0.720 -0.1259  0.2762  0.1099
  132MOL    C5544857   4.027   3.163   0.576  0.4744  0.2208 -0.0072
  132MOL    C5644858   4.122   3.249   0.524  0.5146 -0.3893 -0.1338
  132MOL    C5744859   4.171   3.228   0.396  0.0225  0.0446 -0.5275
  132MOL    C5844860   4.119   3.130   0.313  0.0412  0.3629  0.5035
  132MOL    C5944861   4.013   3.048   0.359  0.2827  0.1337  0.6632
  132MOL    C6044862   3.974   3.057   0.493 -0.0904  0.0603 -0.1223
  132MOL    O6144863   3.845   3.123   0.742 -0.0556  0.5093 -0.0571
  132MOL    H6244864   4.096   3.005   0.800 -0.1125 -0.0910  0.4357
  132MOL    H6344865   4.039   3.134   0.909  0.1730  1.3194  0.1939
  132MOL    H6444866   3.968   3.283   0.749 -2.4390 -0.4064  1.9802
  132MOL    H6544867   4.161   3.336   0.574  3.0805 -1.3440 -0.3978
  132MOL    H6644868   4.253   3.289   0.361  0.5781  0.1715  0.9302
  132MOL    H6744869   4.166   3.129   0.216  0.3838 -0.1994  0.6719
  132MOL    H6844870   3.971   2.977   0.289  3.4595  0.3941 -1.6097
  132MOL    H6944871   3.895   2.998   0.538  0.1088 -1.0641 -1.2258
  132MOL    C7044872   3.735   3.216   0.721 -0.2362  0.0089  0.8552
  132MOL    C7144873   3.599   3.139   0.738 -0.0499 -0.1714  0.3798
  132MOL    C7244874   3.591   3.026   0.633 -0.0386 -1.0049  0.3461
  132MOL    C7344875   3.500   3.040   0.526 -0.7980 -0.4448  0.0251
  132MOL    C7444876   3.478   2.944   0.428  0.1060  0.5267 -0.0754
  132MOL    C7544877   3.555   2.827   0.436 -0.2655 -0.0707  0.7957
  132MOL    C7644878   3.647   2.807   0.544 -0.1642 -0.5907 -0.2237
  132MOL    C7744879   3.660   2.902   0.644  0.5093  0.0287 -0.0504
  132MOL    O7844880   3.486   3.225   0.728 -0.0250 -0.0897  0.0054
  132MOL    H7944881   3.735   3.298   0.793 -2.2567 -0.3034  1.2444
  132MOL    H8044882   3.739   3.259   0.620  0.8971 -1.8004  0.0922
  132MOL    H8144883   3.609   3.093   0.836 -0.0706  1.9914  1.4183
  132MOL    H8244884   3.457   3.138   0.511 -0.4967 -0.1975  0.7385
  132MOL    H8344885   3.416   2.975   0.345 -1.5948 -2.5060 -0.0125
  132MOL    H8444886   3.556   2.764   0.349 -1.3178 -1.5860  1.8555
  132MOL    H8544887   3.712   2.721   0.543  0.8493  0.1356  1.8669
  132MOL    H8644888   3.717   2.881   0.734  0.3923  0.5376  0.1413
  132MOL    C8744889   3.368   3.185   0.800  0.0231 -0.4766 -0.2652
  132MOL    C8844890   3.246   3.238   0.720 -0.6042  0.3145 -0.4258
  132MOL    C8944891   3.117   3.240   0.811 -0.1945 -0.5867 -0.1015
  132MOL    C9044892   3.037   3.125   0.819  0.2124  0.1120  0.7766
  132MOL    C9144893   2.919   3.122   0.893  0.2260  0.5291 -0.3278
  132MOL    C9244894   2.878   3.238   0.958  0.2432  0.2305  0.3116
  132MOL    C9344895   2.962   3.354   0.948 -0.3658  0.2644  0.5770
  132MOL    C9444896   3.090   3.351   0.893 -0.6880  0.0489  0.3070
  132MOL    O9544897   3.231   3.159   0.604 -0.7319 -0.2510 -0.3537
  132MOL    H9644898   3.366   3.242   0.893 -0.0056 -0.0582 -0.5183
  132MOL    H9744899   3.349   3.081   0.825 -2.2938 -0.0653 -0.2233
  132MOL    H9844900   3.259   3.341   0.686  0.6661  0.3080 -0.0068
  132MOL    H9944901   3.073   3.035   0.773 -0.1160  1.2089 -1.7052
  132MOL   H10044902   2.855   3.036   0.900  0.0409  0.3718 -3.2624
  132MOL   H10144903   2.788   3.250   1.017  0.7255  0.1265  1.0719
  132MOL   H10244904   2.930   3.440   1.004 -2.4621 -0.4943  0.5886
  132MOL   H10344905   3.157   3.436   0.888 -0.7099  0.0897  0.6583
  132MOL   C10444906   3.145   3.216   0.506 -0.3290 -1.4114 -0.2777
  132MOL   C10544907   3.108   3.116   0.394  0.0284  0.4249  0.4331
  132MOL   C10644908   3.031   2.996   0.457  0.3498  0.3707  0.4389
  132MOL   C10744909   2.886   2.975   0.448  0.0620 -0.0506  0.3525
  132MOL   C10844910   2.832   2.852   0.488  0.1119  0.7491 -0.3035
  132MOL   C10944911   2.910   2.756   0.557 -0.2120  0.3153 -0.0806
  132MOL   C11044912   3.044   2.781   0.574 -0.6800  0.1880  0.3934
  132MOL   C11144913   3.107   2.892   0.519 -1.3083  0.0360 -0.6847
  132MOL   O11244914   3.016   3.170   0.293 -0.0107  0.0079 -0.0103
  132MOL   H11344915   3.063   3.262   0.561  1.0580  1.7282 -0.6984
  132MOL   H11444916   3.212   3.288   0.459  0.2523 -2.1934 -0.6470
  132MOL   H11544917   3.209   3.088   0.365  0.2202 -0.4637  1.9188
  132MOL   H11644918   2.821   3.045   0.399 -0.9741  1.0109  3.1317
  132MOL   H11744919   2.725   2.848   0.473  0.3972 -0.9113 -2.1001
  132MOL   H11844920   2.869   2.661   0.589 -0.9552  1.0235  1.0619
  132MOL   H11944921   3.099   2.702   0.623 -0.2976 -0.0502 -0.4242
  132MOL   H12044922   3.215   2.901   0.527 -1.1895 -0.2411 -1.9101
  132MOL   C12144923   3.083   3.149   0.163 -0.2970 -0.0497 -0.6716
  132MOL   C12244924   3.154   3.281   0.116  0.4360  0.2521  0.6174
  132MOL   C12344925   3.054   3.391   0.113  0.4278  0.4166  0.3104
  132MOL   C12444926   3.034   3.458   8.074  0.0742 -0.4185 -0.0656
  132MOL   C12544927   2.947   3.569   8.067 -0.2647  0.4838  0.2282
  132MOL   C12644928   2.885   3.620   0.099  0.6245  0.0531  0.0429
  132MOL   C12744929   2.901   3.555   0.220 -0.2631 -0.3992  0.0714
  132MOL   C12844930   2.983   3.447   0.228 -0.4236  0.2739 -0.2353
  132MOL   O12944931   3.253   3.311   0.214  0.7373  0.3761  0.2022
  132MOL   H13044932   3.010   3.113   0.091  0.9118 -3.2853 -0.3763
  132MOL   H13144933   3.159   3.070   0.160 -1.5407 -1.2985 -0.0458
  132MOL   H13244934   3.203   3.275   0.018 -0.9028  0.8214 -0.1006
  132MOL   H13344935   3.092   3.436   7.985  0.2566 -1.8301  0.3946
  132MOL   H13444936   2.943   3.618   7.971  1.6665  1.0285  0.3992
  132MOL   H13544937   2.842   3.719   0.104  1.0021  0.4751 -3.8828
  132MOL   H13644938   2.860   3.588   0.314  2.4444 -0.6777  1.4125
  132MOL   H13744939   2.994   3.396   0.322  1.5006  0.7377 -0.1734
  132MOL   C13844940   3.362   3.386   0.165 -0.9784  0.3299  0.1212
  132MOL   C13944941   3.416   3.483   0.273  0.3893 -0.4771  0.2381
  132MOL   C14044942   3.569   3.492   0.266  0.7440  0.2358  0.0436
  132MOL   C14144943   3.637   3.570   0.168 -0.1686 -0.7874  0.1260
  132MOL   C14244944   3.775   3.569   0.167  0.1936  0.5676  0.9741
  132MOL   C14344945   3.840   3.491   0.258 -0.0063  0.4411 -0.2802
  132MOL   C14444946   3.775   3.408   0.351  0.3312 -0.0064  0.2391
  132MOL   C14544947   3.636   3.406   0.352 -0.6879  0.1963 -0.1243
  132MOL   O14644948   3.352   3.607   0.256  0.2159  0.1153  0.1156
  132MOL   H14744949   3.329   3.447   0.081 -0.8799 -1.1333 -1.0020
  132MOL   H14844950   3.436   3.317   0.126 -0.8459  0.9117 -0.6468
  132MOL   H14944951   3.386   3.435   0.366  0.4017  0.1784  0.5826
  132MOL   H15044952   3.580   3.642   0.111 -2.2469 -1.0854  1.7785
  132MOL   H15144953   3.828   3.632   0.096 -0.2153  1.3327  1.3399
  132MOL   H15244954   3.948   3.490   0.264 -0.0574  1.0078  1.1882
  132MOL   H15344955   3.834   3.357   0.425  0.9258  1.9332  1.1126
  132MOL   H15444956   3.578   3.350   0.424  0.1063 -0.1038  0.2873
  132MOL   C15544957   3.265   3.640   0.364 -0.2147  0.0394  0.6575
  132MOL   C15644958   3.200   3.777   0.343  0.4082 -0.5421 -0.6905
  132MOL   C15744959   3.086   3.808   0.441 -0.3966  1.0033 -0.7120
  132MOL   C15844960   3.048   3.944   0.446 -0.1566  0.0499 -0.2049
  132MOL   C15944961   2.940   3.987   0.527  0.0471  0.2928 -0.1690
  132MOL   C16044962   2.878   3.898   0.619  0.1245 -0.0475  0.1186
  132MOL   C16144963   2.918   3.760   0.623 -0.1693 -0.0564  0.0116
  132MOL   C16244964   3.021   3.712   0.534 -0.2632  0.2511 -0.4136
  132MOL   O16344965   3.294   3.880   0.371 -0.0485  0.1749  0.1832
  132MOL   H16444966   3.324   3.636   0.456 -1.1758 -1.3060  1.2253
  132MOL   H16544967   3.188   3.563   0.371 -0.1819  0.1450  2.4605
  132MOL   H16644968   3.161   3.789   0.242 -1.9208  0.4024  0.2910
  132MOL   H16744969   3.101   4.017   0.387  0.3508 -1.3393 -1.4723
  132MOL   H16844970   2.918   4.093   0.530  1.9893  0.6923  1.1725
  132MOL   H16944971   2.807   3.933   0.693 -0.6369 -2.1355  0.4301
  132MOL   H17044972   2.865   3.689   0.685 -1.8644  0.8784 -0.3349
  132MOL   H17144973   3.047   3.607   0.530  0.9330  0.5958 -2.3167
  132MOL   C17244974   3.400   3.886   0.282  0.0782  0.4683 -0.6040
  132MOL   C17344975   3.477   4.025   0.299 -0.1109  0.0109 -0.2783
  132MOL   C17444976   3.385   4.143   0.279  0.1847 -0.7834  0.4427
  132MOL   C17544977   3.323   4.202   0.392  0.2006  0.5470  0.6995
  132MOL   C17644978   3.243   4.314   0.372 -0.8445 -0.4693 -0.6557
  132MOL   C17744979   3.209   4.366   0.244  0.3148 -0.2769 -0.5454
  132MOL   C17844980   3.251   4.294   0.133 -0.4660  0.5029  0.3316
  132MOL   C17944981   3.339   4.184   0.150  0.8769 -0.4339  0.4899
  132MOL   O18044982   3.578   4.026   0.198  0.1151 -0.1591  0.3404
  132MOL   H18144983   3.475   3.812   0.309 -2.1522 -2.0700 -1.1692
  132MOL   H18244984   3.376   3.890   0.176  0.0077 -0.4244 -0.6219
  132MOL   H18344985   3.526   4.032   0.396 -0.0078  1.4220 -0.4331
  132MOL   H18444986   3.350   4.171   0.492 -0.8384 -0.9973  0.5134
  132MOL   H18544987   3.206   4.370   0.456  0.5392 -1.2691  0.5025
  132MOL   H18644988   3.149   4.453   0.222 -0.5280 -0.2969  1.5356
  132MOL   H18744989   3.216   4.328   0.037  0.1850  1.5649  0.4587
  132MOL   H18844990   3.393   4.141   0.067 -0.2180 -2.4965  0.8233
  132MOL   C18944991   3.697   3.969   0.230 -0.6558  0.2685 -0.4770
  132MOL   C19044992   3.798   4.082   0.261 -0.4377  0.0565 -0.4124
  132MOL   C19144993   3.807   4.172   0.134 -0.0455  0.9034  0.7642
  132MOL   C19244994   3.716   4.280   0.126  0.0071 -0.1880  0.2381
  132MOL   C19344995   3.720   4.365   0.010 -0.1246 -0.6319 -0.3637
  132MOL   C19444996   3.810   4.337   7.985 -0.0799 -0.3005  0.0298
  132MOL   C19544997   3.896   4.229   7.994  1.3137  0.7212  0.4256
  132MOL   C19644998   3.895   4.142   0.029  0.5881  0.2646  0.5771
  132MOL   O19744999   3.920   4.013   0.299  0.0592 -0.3958  0.3175
  132MOL   H19845000   3.688   3.884   0.298  1.1685  0.4342 -0.0108
  132MOL   H19945001   3.742   3.927   0.140  0.2533  1.3324 -0.5281
  132MOL   H20045002   3.755   4.146   0.338  0.3083 -2.7613  2.4334
  132MOL   H20145003   3.650   4.306   0.206  1.5946 -0.2682  1.6065
  132MOL   H20245004   3.650   4.447   0.001 -0.9463 -1.1567  1.0435
  132MOL   H20345005   3.818   4.413   7.909  2.6347 -0.6401 -0.0816
  132MOL   H20445006   3.956   4.203   7.908 -1.1680 -3.0603 -0.3031
  132MOL   H20545007   3.963   4.058   0.035 -0.6716 -0.8413 -0.4737
  132MOL   C20645008   4.006   4.093   0.383  0.0918 -0.0852  0.1525
  132MOL   C20745009   3.983   4.062   0.527  0.4818 -0.0886  0.0291
  132MOL   C20845010   4.004   3.913   0.544 -0.0174 -0.3010 -0.4899
  132MOL   C20945011   3.892   3.825   0.536 -0.1363  0.9050  0.2605
  132MOL   C21045012   3.902   3.686   0.562 -0.1197 -0.3115 -0.0745
  132MOL   C21145013   4.030   3.633   0.591 -0.3215 -0.2829 -0.3184
  132MOL   C21245014   4.142   3.718   0.590  0.1475 -0.5005  0.5375
  132MOL   C21345015   4.128   3.856   0.575  0.0861 -0.0644  0.1405
  132MOL   O21445016   3.860   4.116   0.570  0.0989  0.2574 -0.5667
  132MOL   H21545017   4.106   4.072   0.343 -0.0608 -1.3244  0.4226
  132MOL   H21645018   4.004   4.201   0.363  0.3074 -0.2001 -0.4988
  132MOL   H21745019   4.064   4.109   0.582 -0.2172  1.5248 -0.2967
  132MOL   H21845020   3.798   3.873   0.512  0.5436  0.8585 -2.7282
  132MOL   H21945021   3.816   3.620   0.567  1.0708 -1.9948 -1.1261
  132MOL   H22045022   4.043   3.527   0.608  1.0563  0.1092  1.1550
  132MOL   H22145023   4.236   3.671   0.614 -0.3671 -1.4895  0.6374
  132MOL   H22245024   4.211   3.923   0.589  2.8731 -3.1665 -1.0155
  132MOL   C22345025   3.861   4.136   0.709  0.0225  0.1283 -0.1995
  132MOL   C22445026   3.725   4.165   0.770  0.6662  0.5432  0.3714
  132MOL   C22545027   3.670   4.301   0.720  0.0060 -0.2174 -0.3028
  132MOL   C22645028   3.612   4.303   0.592 -0.6903  0.4919 -0.9202
  132MOL   C22745029   3.560   4.427   0.546  0.0401 -0.3651  0.3753
  132MOL   C22845030   3.559   4.542   0.626  0.6276 -0.6566  0.4005
  132MOL   C22945031   3.616   4.540   0.753 -0.6646  0.0704  0.6154
  132MOL   C23045032   3.678   4.417   0.796  0.0455 -0.3078 -0.6595
  132MOL   O23145033   3.640   4.057   0.737 -0.6279  0.1204 -0.6166
  132MOL   H23245034   3.898   4.040   0.746 -1.7012  0.1648  1.6830
  132MOL   H23345035   3.928   4.218   0.735  0.5648 -1.2929  3.0506
  132MOL   H23445036   3.724   4.162   0.879  0.8248  1.4428  0.3995
  132MOL   H23545037   3.620   4.217   0.527 -1.1131 -0.5332  0.3435
  132MOL   H23645038   3.521   4.432   0.445  1.4334 -0.1979 -0.1718
  132MOL   H23745039   3.514   4.637   0.599  1.4091 -0.4337 -0.1559
  132MOL   H23845040   3.601   4.621   0.823 -1.0117  0.3007  0.2738
  132MOL   H23945041   3.721   4.417   0.895  1.5603 -0.8700 -1.3068
  132MOL   C24045042   3.525   4.059   0.834 -0.8633 -0.1288  0.4503
  132MOL   C24145043   3.406   3.970   0.775 -0.1054  1.1493  0.2133
  132MOL   C24245044   3.451   3.823   0.770  0.0201 -0.4611  0.3459
  132MOL   C24345045   3.436   3.737   0.882  0.6775  0.7979  0.1501
  132MOL   C24445046   3.464   3.599   0.864  0.2593 -0.4645 -0.3646
  132MOL   C24545047   3.514   3.544   0.746  0.0447 -0.0377  0.0945
  132MOL   C24645048   3.546   3.638   0.643 -0.0705  1.1058  0.0764
  132MOL   C24745049   3.510   3.771   0.649  0.2774 -0.2152  1.0180
  132MOL   O24845050   3.296   3.975   0.866  0.2136 -0.0842 -0.3074
  132MOL   H24945051   3.563   4.022   0.930  0.7180  0.6412  0.1345
  132MOL   H25045052   3.498   4.162   0.860  0.5899  0.4753 -0.4347
  132MOL   H25145053   3.375   4.015   0.681 -1.3469  2.2954  1.1667
  132MOL   H25245054   3.398   3.780   0.973 -0.3970 -0.8099  0.4896
  132MOL   H25345055   3.437   3.523   0.936 -0.1900 -0.4810 -0.5502
  132MOL   H25445056   3.541   3.440   0.739 -0.3706 -0.3851  2.9232
  132MOL   H25545057   3.598   3.589   0.562 -0.7254  1.3334 -0.4968
  132MOL   H25645058   3.544   3.843   0.577  0.3084  1.0003  2.2320
  132MOL   C25745059   3.173   3.923   0.822  0.9288 -0.6874 -0.4442
  132MOL   C25845060   3.062   3.956   0.916 -0.4025  0.1802 -0.5964
  132MOL   C25945061   3.075   4.094   0.983 -0.2016 -0.7685  1.0261
  132MOL   C26045062   3.088   4.210   0.903  0.0783 -0.1400 -0.1427
  132MOL   C26145063   3.102   4.334   0.962 -0.0901 -0.1339  0.2873
  132MOL   C26245064   3.117   4.348   1.104  0.5068  0.5700 -1.1984
  132MOL   C26345065   3.103   4.233   1.185 -0.7141  0.6005 -0.3008
  132MOL   C26445066   3.079   4.112   1.124  0.3655  0.8030  0.1625
  132MOL   O26545067   3.051   3.852   1.014  0.6117 -0.8080  0.1555
  132MOL   H26645068   3.172   3.816   0.803 -1.2062 -0.8363  0.3290
  132MOL   H26745069   3.155   3.969   0.724 -1.1191  2.0305  1.1187
  132MOL   H26845070   2.965   3.960   0.867 -0.0127  1.0864 -1.3091
  132MOL   H26945071   3.091   4.198   0.795  0.7667  0.4724 -0.1918
  132MOL   H27045072   3.093   4.428   0.911 -0.2415 -0.6328 -0.6124
  132MOL   H27145073   3.130   4.448   1.145  0.9334 -0.2629  0.7867
  132MOL   H27245074   3.100   4.253   1.291  1.2652 -0.8624  0.0681
  132MOL   H27345075   3.063   4.024   1.185  1.4120 -0.8522 -1.8814
  132MOL   C27445076   2.970   3.735   0.993  0.0531  0.5356 -0.4717
  132MOL   C27545077   2.818   3.755   0.977  0.4764  0.0116  0.5681
  132MOL   C27645078   2.753   3.800   1.104 -0.5024 -0.2383  0.0810
  132MOL   C27745079   2.699   3.702   1.193  0.0612  0.4668  0.0847
  132MOL   C27845080   2.635   3.746   1.312  0.0938 -0.4804  0.5958
  132MOL   C27945081   2.637   3.881   1.351 -0.3825 -0.5716 -0.4308
  132MOL   C28045082   2.714   3.971   1.268 -0.1168  0.1317 -0.4279
  132MOL   C28145083   2.765   3.938   1.145 -0.1983 -0.4525  0.1227
  132MOL   O28245084   2.758   3.636   0.920 -0.0626  0.3480 -0.1404
  132MOL   H28345085   3.004   3.684   0.902  0.7734 -0.2893  0.2515
  132MOL   H28445086   2.999   3.679   1.082  1.8739  2.2014  0.0180
  132MOL   H28545087   2.793   3.831   0.902 -0.2812 -1.1241 -0.3401
  132MOL   H28645088   2.695   3.601   1.156 -2.2402  0.9973 -1.2112
  132MOL   H28745089   2.583   3.674   1.374  0.7706 -0.0545  1.6736
  132MOL   H28845090   2.577   3.915   1.433  0.4812 -1.5496  0.6198
  132MOL   H28945091   2.715   4.071   1.307  2.3549  0.2153 -0.6334
  132MOL   H29045092   2.818   4.007   1.081 -0.3806 -1.2791 -0.9509
  132MOL   C29145093   2.621   3.663   0.877  0.1169 -0.4345 -0.0248
  132MOL   C29245094   2.532   3.546   0.836  0.1195 -0.2571  0.3402
  132MOL   C29345095   2.583   3.473   0.714 -0.4136  0.0788  0.2581
  132MOL   C29445096   2.505   3.464   0.596  0.6641  0.4461 -0.1812
  132MOL   C29545097   2.555   3.398   0.485 -0.4705  0.8735 -0.0402
  132MOL   C29645098   2.684   3.340   0.487  0.2619 -0.6727  0.4898
  132MOL   C29745099   2.767   3.356   0.597  0.3074 -0.1318 -0.2226
  132MOL   C29845100   2.719   3.429   0.711 -0.3097  0.9431  0.5812
  132MOL   O29945101   2.516   3.465   0.947 -0.6924 -0.3146 -0.2298
  132MOL   H30045102   2.621   3.739   0.798  1.0260 -0.1020  0.2854
  132MOL   H30145103   2.572   3.712   0.962 -0.6887 -0.2362 -0.5993
  132MOL   H30245104   2.436   3.590   0.808 -0.8870 -1.9950  0.9751
  132MOL   H30345105   2.408   3.509   0.585  0.5119 -0.1303 -1.2709
  132MOL   H30445106   2.498   3.398   0.393  0.7484  0.4207 -0.8049
  132MOL   H30545107   2.723   3.303   0.393  2.0955  1.0458  0.5389
  132MOL   H30645108   2.865   3.310   0.596 -0.6278 -2.2454  1.6896
  132MOL   H30745109   2.781   3.425   0.799  3.0806 -1.1156 -1.7641
  132MOL   C30845110   2.436   3.346   0.936 -0.8025  0.4345  0.4286
  132MOL   C30945111   2.378   3.313   1.076  0.1921  0.2140  0.0897
  132MOL   C31045112   2.278   3.198   1.059  0.3550  0.3845 -0.4791
  132MOL   C31145113   2.314   3.084   0.988  0.0826 -0.2339 -0.4088
  132MOL   C31245114   2.234   2.970   0.994  0.1374 -0.1109 -0.2903
  132MOL   C31345115   2.103   2.980   1.056 -0.1214  0.3243  0.1319
  132MOL   C31445116   2.058   3.103   1.104  0.8245 -0.5431 -0.0976
  132MOL   C31545117   2.142   3.209   1.098 -0.3688 -0.3282 -0.5623
  132MOL   O31645118   2.480   3.278   1.161  0.0432  0.5680 -0.0019
  132MOL   H31745119   2.507   3.268   0.907 -0.9128  0.8327 -0.9499
  132MOL   H31845120   2.351   3.349   0.869 -1.7080  0.4054  1.5534
  132MOL   H31945121   2.317   3.386   1.129 -1.1733 -0.9314  0.1244
  132MOL   H32045122   2.416   3.079   0.952 -0.4311 -2.3487 -1.6966
  132MOL   H32145123   2.261   2.880   0.942 -3.2044 -1.3016 -0.0887
  132MOL   H32245124   2.033   2.898   1.056 -0.7440  0.8560  0.3729
  132MOL   H32345125   1.955   3.111   1.137  0.1713 -0.9433 -1.9549
  132MOL   H32445126   2.107   3.306   1.131  1.7486 -0.2534  1.6128
  132MOL   C32545127   2.561   3.371   1.228 -0.7409  0.6230 -0.6798
  132MOL   C32645128   2.638   3.295   1.335  0.4607  0.2727 -0.4611
  132MOL   C32745129   2.729   3.385   1.409  0.5995  0.2723 -0.0540
  132MOL   C32845130   2.865   3.397   1.371 -0.6256 -0.4607 -0.4331
  132MOL   C32945131   2.949   3.484   1.443 -0.2349  0.0272 -0.2034
  132MOL   C33045132   2.901   3.560   1.553 -0.3550  0.4619  0.4821
  132MOL   C33145133   2.765   3.545   1.595  0.4273 -0.1198  0.1855
  132MOL   C33245134   2.683   3.456   1.525  0.6706  0.4812 -0.5543
  132MOL   O33345135   2.549   3.227   1.417  0.0636  0.3514  0.0343
  132MOL   H33445136   2.506   3.455   1.271 -0.9090  1.3469 -2.2706
  132MOL   H33545137   2.640   3.405   1.161  1.3937 -0.0117  1.4528
  132MOL   H33645138   2.694   3.213   1.290  0.0562  0.1652 -0.7623
  132MOL   H33745139   2.899   3.334   1.290 -2.5021 -0.3210 -1.3473
  132MOL   H33845140   3.053   3.503   1.421 -0.7848  1.8472 -1.3782
  132MOL   H33945141   2.966   3.625   1.610 -2.3189  2.7758  0.1912
  132MOL   H34045142   2.736   3.604   1.681  1.7442 -0.2225  0.7156
  132MOL   H34145143   2.582   3.433   1.555  0.6716 -0.1353 -1.0116
  132MOL   H34245144   2.484   3.189   1.360  2.3684 -0.4765 -2.1390
  133MOL     C145145   4.409   3.872   6.881 -0.1038  0.7281  0.3285
  133MOL     C245146   4.322   3.750   6.872 -0.2491  0.5687  0.1904
  133MOL     C345147   4.214   3.750   6.975  0.5316 -0.2332  0.6399
  133MOL     C445148   4.219   3.670   7.092  0.1145  0.1139  0.4253
  133MOL     C545149   4.116   3.667   7.185 -0.6280 -0.2433 -0.6889
  133MOL     C645150   4.010   3.751   7.180 -0.4892  0.3834 -0.0178
  133MOL     C745151   3.998   3.834   7.064  0.9039 -0.2999  0.3895
  133MOL     C845152   4.099   3.832   6.966 -0.5576  0.7804 -0.0832
  133MOL     O945153   4.397   3.628   6.889 -0.2732  0.1500  0.4209
  133MOL    H1045154   4.357   3.966   6.863  2.3405  2.2140  0.7441
  133MOL    H1145155   4.446   3.886   6.983 -1.6611  2.5395  0.6831
  133MOL    H1245156   4.280   3.757   6.772  2.3718 -1.5928 -1.1238
  133MOL    H1345157   4.306   3.606   7.089  0.1392  0.0689  1.8964
  133MOL    H1445158   4.120   3.588   7.258 -1.0204 -2.2286 -2.7495
  133MOL    H1545159   3.941   3.759   7.263 -1.3160  2.7235 -0.8722
  133MOL    H1645160   3.905   3.887   7.048  0.8494 -0.8346 -1.1932
  133MOL    H1745161   4.090   3.895   6.878  0.2162  1.1114  0.0710
  133MOL    H1845162   4.496   3.866   6.816 -0.7471 -0.3572 -0.4554
  133MOL    C1945163   4.475   3.596   6.778  0.0440  0.8623 -0.4318
  133MOL    C2045164   4.614   3.551   6.828  0.2034 -1.0047  0.3270
  133MOL    C2145165   4.620   3.458   6.946  0.9135 -0.1437  0.2911
  133MOL    C2245166   4.555   3.334   6.936 -0.1960 -0.1503 -0.4577
  133MOL    C2345167   4.554   3.243   7.046 -0.2092  0.6049  0.4887
  133MOL    C2445168   4.623   3.277   7.158  0.3135  0.0617  0.3041
  133MOL    C2545169   4.689   3.403   7.174 -0.0563  0.0122  0.1662
  133MOL    C2645170   4.693   3.489   7.062  0.1725  0.1234 -0.1180
  133MOL    O2745171   4.696   3.667   6.847 -0.0021 -0.2504 -0.5487
  133MOL    H2845172   4.410   3.516   6.744  0.5632  0.5986 -0.8088
  133MOL    H2945173   4.473   3.677   6.705  0.3751 -1.1212 -2.6880
  133MOL    H3045174   4.660   3.476   6.764  0.3831 -0.4062 -0.2529
  133MOL    H3145175   4.498   3.313   6.847 -2.4571  1.0437  0.6608
  133MOL    H3245176   4.500   3.151   7.031  0.0269  0.5768 -0.1885
  133MOL    H3345177   4.626   3.209   7.242  1.0283 -1.0910 -0.6426
  133MOL    H3445178   4.747   3.427   7.262 -0.0666 -0.8789  0.4219
  133MOL    H3545179   4.753   3.576   7.085  2.1514 -1.1171 -0.5008
  133MOL    C3645180   4.748   3.723   6.725  0.4445  0.2211  0.2068
  133MOL    C3745181   4.855   3.832   6.757 -0.0028 -0.1541 -0.1752
  133MOL    C3845182   4.799   3.970   6.775  0.3364 -0.6446 -0.0216
  133MOL    C3945183   4.739   4.002   6.895  0.0947 -0.1030 -0.1877
  133MOL    C4045184   4.680   4.130   6.915 -0.5331 -0.4350  0.4322
  133MOL    C4145185   4.674   4.222   6.809 -0.9995  0.2195 -0.0739
  133MOL    C4245186   4.723   4.180   6.686  0.3608  0.1060 -0.1994
  133MOL    C4345187   4.803   4.064   6.668 -0.2793  0.2857  0.4324
  133MOL    O4445188   4.967   3.828   6.673 -0.5830  0.3354  0.1021
  133MOL    H4545189   4.774   3.649   6.649  1.0476 -1.6113  2.1694
  133MOL    H4645190   4.670   3.766   6.662  1.5011  1.4044 -0.3455
  133MOL    H4745191   4.899   3.810   6.854  1.6235 -0.5951 -1.0044
  133MOL    H4845192   4.727   3.927   6.973 -1.8763  0.1263 -0.2406
  133MOL    H4945193   4.648   4.154   7.015  1.8168 -0.9985  1.3624
  133MOL    H5045194   4.645   4.324   6.829 -0.6143  0.3716 -0.2815
  133MOL    H5145195   4.705   4.254   6.610 -0.6744  1.6589  1.5215
  133MOL    H5245196   4.850   4.036   6.575 -1.8250 -2.0454  0.3117
  133MOL    C5345197   5.054   3.721   6.688  0.5121 -0.2551 -0.6958
  133MOL    C5445198   5.162   3.714   6.579  0.4200  0.2389 -0.6440
  133MOL    C5545199   5.269   3.614   6.624 -0.2865 -0.0924  0.0521
  133MOL    C5645200   5.362   3.653   6.725 -0.0028  0.2363  0.3680
  133MOL    C5745201   5.468   3.569   6.750 -0.3064 -0.0727 -0.2285
  133MOL    C5845202   5.474   3.434   6.699  0.3208  0.1388  0.1691
  133MOL    C5945203   5.371   3.394   6.616 -0.2511  0.4315  0.2250
  133MOL    C6045204   5.272   3.483   6.572  0.0742  0.4095 -0.3440
  133MOL    O6145205   5.098   3.681   6.460  0.1524  0.0206  0.6991
  133MOL    H6245206   5.106   3.732   6.784 -0.5609 -2.5541  0.1709
  133MOL    H6345207   4.993   3.631   6.685 -1.4096  1.0006 -0.4576
  133MOL    H6445208   5.212   3.811   6.575  0.6463  0.1774  0.4081
  133MOL    H6545209   5.352   3.750   6.771  1.0794  1.3265 -1.6150
  133MOL    H6645210   5.550   3.600   6.814 -1.8800  2.3213  0.6875
  133MOL    H6745211   5.546   3.365   6.740  0.4288 -1.1889 -2.1671
  133MOL    H6845212   5.374   3.290   6.587  0.7843  0.8074 -1.0520
  133MOL    H6945213   5.213   3.449   6.488  0.5441  1.0490 -0.9346
  133MOL    C7045214   5.014   3.777   6.411  0.3050  0.0528 -0.6470
  133MOL    C7145215   5.014   3.756   6.255  0.0378  0.2941 -0.1726
  133MOL    C7245216   4.943   3.629   6.214  0.3025  1.2491 -1.1702
  133MOL    C7345217   5.009   3.505   6.229 -0.5600 -0.5750 -0.0206
  133MOL    C7445218   4.947   3.385   6.214  0.4026  0.6552 -0.1400
  133MOL    C7545219   4.808   3.377   6.185 -0.8527 -0.1993  1.1047
  133MOL    C7645220   4.740   3.500   6.165 -0.0228 -0.2064  0.1453
  133MOL    C7745221   4.807   3.624   6.179 -0.2615  0.3083 -0.2969
  133MOL    O7845222   5.134   3.775   6.177  0.5138 -0.3091 -0.2519
  133MOL    H7945223   4.915   3.762   6.454  1.0293  0.3156  1.1699
  133MOL    H8045224   5.041   3.878   6.442 -1.1656 -0.3284  2.0167
  133MOL    H8145225   4.943   3.835   6.229 -0.4639  0.9008  2.8266
  133MOL    H8245226   5.114   3.513   6.254 -0.3762 -0.3460 -0.8342
  133MOL    H8345227   5.001   3.292   6.224  0.0350  0.3105 -1.3355
  133MOL    H8445228   4.760   3.285   6.154  1.7571 -1.7128  1.3570
  133MOL    H8545229   4.635   3.498   6.139 -0.1544 -0.8934  0.7247
  133MOL    H8645230   4.759   3.719   6.162 -0.8577  0.0305 -0.1541
  133MOL    C8745231   5.208   3.895   6.200  0.2927  0.5660 -0.5303
  133MOL    C8845232   5.345   3.896   6.125  0.7125  0.2090  0.0160
  133MOL    C8945233   5.412   3.758   6.111  0.3711  0.0508  0.2280
  133MOL    C9045234   5.408   3.668   6.222 -0.2506 -0.3038  0.1830
  133MOL    C9145235   5.455   3.538   6.199  0.1538  0.0639 -0.5438
  133MOL    C9245236   5.498   3.500   6.071  0.3654 -0.0177 -0.2214
  133MOL    C9345237   5.494   3.587   5.964  0.1368 -0.1062  0.6689
  133MOL    C9445238   5.446   3.714   5.981 -0.0350  0.0004  0.8182
  133MOL    O9545239   5.426   3.998   6.180  0.4875  0.1988  0.1251
  133MOL    H9645240   5.218   3.903   6.309  0.2105 -0.4933 -0.4404
  133MOL    H9745241   5.142   3.974   6.166  1.2620  1.9540  0.7328
  133MOL    H9845242   5.319   3.926   6.024  0.3740 -0.5831 -0.1395
  133MOL    H9945243   5.377   3.694   6.322  2.7629  0.5667  0.9514
  133MOL   H10045244   5.455   3.457   6.271  2.0868  0.1922 -0.3693
  133MOL   H10145245   5.527   3.397   6.062 -1.0759 -0.4927  0.4965
  133MOL   H10245246   5.526   3.555   5.866 -0.6687  3.9014 -1.0149
  133MOL   H10345247   5.422   3.776   5.896  0.6101 -1.5166 -0.4972
  133MOL   C10445248   5.550   4.012   6.117 -0.1749  0.1457  0.5002
  133MOL   C10545249   5.628   4.110   6.205  0.5457 -0.3582  0.8361
  133MOL   C10645250   5.649   4.066   6.343  0.0863 -0.2772  0.0396
  133MOL   C10745251   5.545   4.057   6.439  0.3323  0.4362  0.0867
  133MOL   C10845252   5.567   4.022   6.574 -0.2011 -0.1429  0.0931
  133MOL   C10945253   5.701   3.991   6.613 -0.4842 -0.2841 -0.0768
  133MOL   C11045254   5.804   3.984   6.516 -0.0492  0.2480 -0.2928
  133MOL   C11145255   5.779   4.022   6.382 -0.4567 -1.5818 -0.4776
  133MOL   O11245256   5.749   4.147   6.134 -0.1776  0.1858 -0.2551
  133MOL   H11345257   5.603   3.917   6.120  0.1811  0.2991 -0.6542
  133MOL   H11445258   5.537   4.036   6.011 -0.2970 -1.0943  0.2326
  133MOL   H11545259   5.561   4.196   6.200  1.5000  0.3866  0.7937
  133MOL   H11645260   5.445   4.086   6.411  1.5687  3.4411 -1.3497
  133MOL   H11745261   5.484   4.015   6.643  0.9874  1.0381  1.6984
  133MOL   H11845262   5.720   3.965   6.716 -1.4546  2.4400  0.8397
  133MOL   H11945263   5.903   3.954   6.546 -0.9424  0.2659  2.7967
  133MOL   H12045264   5.852   4.018   6.303  1.7058  0.6193  1.3439
  133MOL   C12145265   5.785   4.286   6.139  0.1530 -0.2423 -0.6524
  133MOL   C12245266   5.886   4.324   6.032  0.3607  0.7158 -0.3033
  133MOL   C12345267   6.024   4.257   6.048 -0.0675  0.6642 -0.0980
  133MOL   C12445268   6.124   4.319   6.122  0.5543 -0.2904  0.2679
  133MOL   C12545269   6.243   4.249   6.144 -0.5705 -0.2024 -0.4031
  133MOL   C12645270   6.275   4.125   6.089  0.4744  0.4393  1.0872
  133MOL   C12745271   6.181   4.071   5.998 -0.3259  0.2312 -0.0918
  133MOL   C12845272   6.053   4.135   5.981  0.3065 -0.3029  0.7618
  133MOL   O12945273   5.838   4.294   5.902 -0.1241  0.0473  0.2703
  133MOL   H13045274   5.808   4.313   6.242 -0.6954 -1.0077 -0.2581
  133MOL   H13145275   5.695   4.343   6.115  0.2204  0.6441  1.1235
  133MOL   H13245276   5.899   4.432   6.044 -0.7756  1.0295 -1.7164
  133MOL   H13345277   6.109   4.417   6.166 -3.0092 -1.4296  1.6915
  133MOL   H13445278   6.319   4.302   6.199 -1.6921  0.9005  0.1123
  133MOL   H13545279   6.365   4.066   6.104  0.4436  0.4720  1.4151
  133MOL   H13645280   6.201   3.977   5.949 -0.8158  0.0078  0.1367
  133MOL   H13745281   5.973   4.087   5.926 -0.2012  1.4262 -0.0446
  133MOL   C13845282   5.755   4.395   5.851 -0.0553  0.0056  0.2950
  133MOL   C13945283   5.712   4.348   5.712  0.0817  0.2639  0.5220
  133MOL   C14045284   5.614   4.236   5.719 -0.6446  0.1115 -0.2180
  133MOL   C14145285   5.480   4.256   5.673  0.0901  0.0271 -0.2157
  133MOL   C14245286   5.401   4.139   5.656 -0.8938  0.2445  0.2028
  133MOL   C14345287   5.456   4.013   5.686 -0.3436  0.3475  0.3916
  133MOL   C14445288   5.586   3.996   5.735 -0.3103  0.5345 -0.0232
  133MOL   C14545289   5.668   4.110   5.748 -0.0680  0.5875 -0.5136
  133MOL   O14645290   5.657   4.463   5.646 -0.7003 -0.4092 -0.2358
  133MOL   H14745291   5.816   4.484   5.841  1.7365 -1.3827 -1.4543
  133MOL   H14845292   5.658   4.414   5.896 -0.5021  0.2777 -0.7717
  133MOL   H14945293   5.794   4.300   5.658 -0.5582 -3.1225  2.3761
  133MOL   H15045294   5.443   4.352   5.639 -0.4781  0.2600  1.0248
  133MOL   H15145295   5.303   4.150   5.611 -1.0975  1.1548  0.8311
  133MOL   H15245296   5.396   3.924   5.674  0.1972 -0.0934  0.9074
  133MOL   H15345297   5.622   3.895   5.748  1.2440  0.8167 -1.9515
  133MOL   H15445298   5.771   4.092   5.775 -0.4219 -2.6052 -1.1394
  133MOL   C15545299   5.749   4.543   5.577 -0.0232  0.8139 -0.6326
  133MOL   C15645300   5.684   4.658   5.500 -0.6245  0.3849 -0.2707
  133MOL   C15745301   5.571   4.615   5.394  0.5519  0.0221 -0.1690
  133MOL   C15845302   5.488   4.716   5.342  0.3192  0.5418  0.4483
  133MOL   C15945303   5.379   4.680   5.248  0.4758 -0.1862 -0.9580
  133MOL   C16045304   5.356   4.543   5.215  0.8346  0.4808 -0.3122
  133MOL   C16145305   5.445   4.445   5.261 -0.3279  0.0071 -0.2957
  133MOL   C16245306   5.546   4.478   5.357  0.0298  0.1285 -0.3365
  133MOL   O16345307   5.642   4.764   5.596  0.1580  0.0753 -0.1603
  133MOL   H16445308   5.805   4.472   5.516  0.4503  2.3214 -1.9969
  133MOL   H16545309   5.820   4.589   5.646 -1.3364 -0.5716  1.6979
  133MOL   H16645310   5.764   4.708   5.446  2.9259 -2.2154  2.4044
  133MOL   H16745311   5.497   4.820   5.372  2.7650  0.0147  1.6345
  133MOL   H16845312   5.316   4.761   5.214 -2.0262 -1.6203  0.0585
  133MOL   H16945313   5.282   4.514   5.141  0.7396 -1.1823  0.4375
  133MOL   H17045314   5.429   4.344   5.226  1.0157 -0.3629  0.1252
  133MOL   H17145315   5.603   4.398   5.401 -1.8847 -1.5149 -0.7941
  133MOL   C17245316   5.527   4.725   5.673 -0.0077 -0.2582 -1.0880
  133MOL   C17345317   5.453   4.855   5.725 -0.0663  0.0425  0.1969
  133MOL   C17445318   5.378   4.919   5.608 -0.3185 -0.1692 -0.1986
  133MOL   C17545319   5.247   4.879   5.573 -0.2624  0.2479 -0.2297
  133MOL   C17645320   5.182   4.926   5.460  0.7177 -0.2577  0.2736
  133MOL   C17745321   5.247   5.020   5.375  1.0089  0.2344 -0.3692
  133MOL   C17845322   5.380   5.059   5.401 -0.4733 -0.0022 -0.7501
  133MOL   C17945323   5.443   5.015   5.522  0.2994 -0.1199 -0.5374
  133MOL   O18045324   5.540   4.951   5.787 -0.0472 -0.3560  0.1318
  133MOL   H18145325   5.464   4.655   5.617  1.2704 -1.8293 -0.6025
  133MOL   H18245326   5.553   4.666   5.761  0.5075  0.7779 -0.5395
  133MOL   H18345327   5.389   4.828   5.808 -0.9276 -0.9170 -0.7701
  133MOL   H18445328   5.185   4.816   5.636  1.0792 -1.6066 -0.7042
  133MOL   H18545329   5.084   4.889   5.433  0.0039  0.9726  1.1352
  133MOL   H18645330   5.193   5.060   5.291 -0.0336 -1.6265 -0.6164
  133MOL   H18745331   5.423   5.130   5.331 -1.1098 -0.4092 -1.5650
  133MOL   H18845332   5.538   5.049   5.560 -0.3673  1.4686 -0.2383
  133MOL   C18945333   5.635   4.899   5.886  0.3577  0.1755  0.7544
  133MOL   C19045334   5.671   5.000   6.003  0.0864 -0.2285 -0.0688
  133MOL   C19145335   5.552   5.004   6.101 -0.4348 -0.1272  0.0759
  133MOL   C19245336   5.504   5.133   6.142  0.9398 -0.0162  0.0541
  133MOL   C19345337   5.398   5.139   6.234 -0.3445 -0.0178 -0.1588
  133MOL   C19445338   5.333   5.026   6.284 -0.0727  0.0923 -0.0098
  133MOL   C19545339   5.386   4.899   6.236 -0.5330 -0.1773  1.0812
  133MOL   C19645340   5.493   4.894   6.149  0.6509  0.0082  0.9058
  133MOL   O19745341   5.740   5.119   5.989 -0.0188  0.3249  0.5497
  133MOL   H19845342   5.619   4.798   5.925  0.8183  0.4883  1.7550
  133MOL   H19945343   5.725   4.892   5.825  0.3605  4.4093  0.1555
  133MOL   H20045344   5.749   4.940   6.049 -1.2204  0.1164  2.6426
  133MOL   H20145345   5.543   5.224   6.098  0.0644  0.4588  0.2436
  133MOL   H20245346   5.361   5.238   6.259 -0.0812  0.3556 -1.2026
  133MOL   H20345347   5.257   5.035   6.360 -0.5643 -1.4953 -0.2845
  133MOL   H20445348   5.332   4.810   6.265 -2.5764  1.1235  1.3690
  133MOL   H20545349   5.531   4.802   6.105  1.5026  1.0705 -0.6370
  133MOL   C20645350   5.859   5.106   5.917 -0.4581 -0.9262 -0.2222
  133MOL   C20745351   5.959   5.225   5.943  0.2910  0.0164  0.3980
  133MOL   C20845352   6.089   5.207   5.857 -0.2595 -0.5804  0.2362
  133MOL   C20945353   6.095   5.277   5.732 -0.2910  0.4466  0.5330
  133MOL   C21045354   6.208   5.274   5.654 -0.1362  0.1655  0.1254
  133MOL   C21145355   6.324   5.210   5.698 -0.0667  0.1833  0.1507
  133MOL   C21245356   6.313   5.121   5.806 -0.6103  0.2273  0.8111
  133MOL   C21345357   6.197   5.121   5.885 -0.2456 -0.4256  0.4149
  133MOL   O21445358   5.995   5.236   6.079 -0.4177 -0.0083 -0.2717
  133MOL   H21545359   5.912   5.014   5.943  2.2939  0.6090 -0.1757
  133MOL   H21645360   5.842   5.095   5.810 -2.1637  1.1799 -0.2075
  133MOL   H21745361   5.908   5.316   5.912 -0.0618  0.3981  2.0294
  133MOL   H21845362   6.012   5.342   5.707 -0.4060  0.7723  1.7534
  133MOL   H21945363   6.211   5.334   5.565 -1.3020 -1.8859 -1.3280
  133MOL   H22045364   6.411   5.217   5.635  0.3077  1.1971  0.7780
  133MOL   H22145365   6.398   5.059   5.832 -1.9156 -1.1869  1.8019
  133MOL   H22245366   6.193   5.051   5.967  0.8379 -1.3115 -0.2685
  133MOL   C22345367   5.916   5.318   6.159  0.3166  0.3762  0.0036
  133MOL   C22445368   5.949   5.463   6.171 -0.2398 -0.6778 -0.3618
  133MOL   C22545369   6.093   5.486   6.207  0.0398  0.0454 -0.4494
  133MOL   C22645370   6.188   5.454   6.107 -0.0954 -0.1227 -0.2552
  133MOL   C22745371   6.317   5.502   6.113  0.3747 -0.5199  0.7042
  133MOL   C22845372   6.359   5.565   6.233  0.0595 -0.1327  0.7078
  133MOL   C22945373   6.271   5.593   6.340  0.4329 -0.5908 -0.3049
  133MOL   C23045374   6.134   5.562   6.323 -0.2775 -0.1898  0.4825
  133MOL   O23145375   5.913   5.521   6.047 -0.1083 -0.5047 -0.0866
  133MOL   H23245376   5.808   5.298   6.157  0.3718 -0.2246  2.4409
  133MOL   H23345377   5.941   5.284   6.259 -0.8046 -3.3378 -0.8854
  133MOL   H23445378   5.889   5.513   6.247 -0.5576  0.5573 -1.4258
  133MOL   H23545379   6.160   5.409   6.013 -1.9795  0.9761 -0.2580
  133MOL   H23645380   6.391   5.491   6.035  1.1669 -2.7072  1.6963
  133MOL   H23745381   6.464   5.589   6.243 -0.1752  1.1510  0.2780
  133MOL   H23845382   6.307   5.650   6.424 -2.2312 -0.1647  0.5992
  133MOL   H23945383   6.066   5.590   6.402 -1.0189  2.1784 -0.9387
  133MOL   C24045384   5.777   5.565   6.035 -0.3511 -0.2729 -0.0102
  133MOL   C24145385   5.739   5.623   5.900  0.0368  0.7112  0.5621
  133MOL   C24245386   5.699   5.516   5.800  0.5743 -0.5990  1.0123
  133MOL   C24345387   5.720   5.543   5.664  0.0827  0.4690  0.3490
  133MOL   C24445388   5.687   5.445   5.569 -1.0786  0.7180 -0.6903
  133MOL   C24545389   5.643   5.314   5.599  0.3799  0.0171 -0.2859
  133MOL   C24645390   5.615   5.291   5.740  0.1809  0.2364 -0.4208
  133MOL   C24745391   5.648   5.389   5.832 -0.1279 -0.3668 -0.3313
  133MOL   O24845392   5.640   5.724   5.924  0.2785  0.9922  0.3900
  133MOL   H24945393   5.713   5.487   6.076  0.8272 -0.8832  0.6785
  133MOL   H25045394   5.779   5.649   6.104  0.1925 -0.5771  0.3422
  133MOL   H25145395   5.821   5.674   5.850  0.6363 -2.0458 -1.3594
  133MOL   H25245396   5.750   5.643   5.635 -0.4232  1.0250  1.7249
  133MOL   H25345397   5.691   5.463   5.463  1.5214 -3.8192 -1.4768
  133MOL   H25445398   5.626   5.237   5.526 -2.3947 -1.2910  1.6554
  133MOL   H25545399   5.578   5.196   5.776  0.6925  0.7851  1.6526
  133MOL   H25645400   5.630   5.371   5.937 -3.1355 -1.6072 -1.0008
  133MOL   C25745401   5.512   5.673   5.981  0.0267 -0.1653  0.3712
  133MOL   C25845402   5.452   5.766   6.087 -1.0058 -0.0600 -0.5672
  133MOL   C25945403   5.461   5.912   6.038 -0.3127  0.4721  0.4239
  133MOL   C26045404   5.580   5.983   6.066 -0.2032  0.6808  0.4057
  133MOL   C26145405   5.589   6.109   6.036  0.1392 -0.4039 -0.2860
  133MOL   C26245406   5.492   6.183   5.969  0.0012 -0.6874  0.1654
  133MOL   C26345407   5.365   6.118   5.946  0.1760  0.1880  0.5114
  133MOL   C26445408   5.354   5.981   5.974 -0.0479  0.2088  0.4711
  133MOL   O26545409   5.520   5.731   6.207  0.9600 -0.8286 -0.7317
  133MOL   H26645410   5.513   5.573   6.023 -1.7431 -1.0904 -1.6996
  133MOL   H26745411   5.440   5.672   5.898  0.3165  0.1834  0.1142
  133MOL   H26845412   5.345   5.749   6.090 -0.9650 -0.1890  0.6279
  133MOL   H26945413   5.656   5.937   6.128  0.5141 -1.6914 -2.1370
  133MOL   H27045414   5.678   6.157   6.077 -0.9987  0.0459  1.7550
  133MOL   H27145415   5.509   6.288   5.949 -2.1147 -0.5076 -0.8049
  133MOL   H27245416   5.283   6.171   5.899  1.0382  2.0249  0.9942
  133MOL   H27345417   5.259   5.932   5.961 -0.3695  0.8276  0.4572
  133MOL   C27445418   5.436   5.749   6.322  0.3979 -0.0805 -0.4315
  133MOL   C27545419   5.436   5.623   6.413 -0.3046 -0.1390  0.4320
  133MOL   C27645420   5.574   5.557   6.432 -0.4074 -0.5007  0.4236
  133MOL   C27745421   5.669   5.633   6.499  0.0296  0.6964 -0.2258
  133MOL   C27845422   5.790   5.571   6.530  0.3709 -0.3530  0.5202
  133MOL   C27945423   5.814   5.436   6.498 -1.0040 -0.5288  0.4733
  133MOL   C28045424   5.717   5.360   6.429  0.2229  0.3232  0.9731
  133MOL   C28145425   5.597   5.422   6.400  0.2545  0.7537  0.1710
  133MOL   O28245426   5.345   5.530   6.357 -0.0436  0.8698 -0.2549
  133MOL   H28345427   5.478   5.833   6.378 -2.7403  1.6628 -0.5801
  133MOL   H28445428   5.343   5.796   6.289 -0.3238 -1.4286 -0.3480
  133MOL   H28545429   5.404   5.661   6.510 -0.3374  3.9500 -1.0994
  133MOL   H28645430   5.657   5.735   6.531  0.2399  0.0989  1.8536
  133MOL   H28745431   5.870   5.624   6.579 -0.6158  0.9232  0.7876
  133MOL   H28845432   5.906   5.388   6.526 -0.7253 -0.0965  0.2961
  133MOL   H28945433   5.733   5.258   6.399  1.7029  0.8676 -0.1787
  133MOL   H29045434   5.517   5.366   6.352  1.5733  1.3473 -2.8058
  133MOL   C29145435   5.216   5.541   6.405  0.0533 -0.4303  0.0121
  133MOL   C29245436   5.118   5.441   6.332 -0.7525 -1.1187 -0.5132
  133MOL   C29345437   4.984   5.450   6.402  0.4709  0.5953 -0.2662
  133MOL   C29445438   4.871   5.503   6.330 -0.5382  0.5199 -0.1570
  133MOL   C29545439   4.744   5.500   6.388 -0.3181  0.7261  0.9744
  133MOL   C29645440   4.723   5.452   6.523 -0.6178  0.5621  0.0329
  133MOL   C29745441   4.833   5.403   6.601  0.7523  0.2848 -0.1351
  133MOL   C29845442   4.961   5.406   6.533  0.5125  0.0202 -0.1495
  133MOL   O29945443   5.094   5.475   6.197 -0.0707 -0.0892 -0.5532
  133MOL   H30045444   5.174   5.640   6.393 -1.2788 -0.9716  0.1197
  133MOL   H30145445   5.203   5.516   6.510 -3.5638  1.3734  0.0337
  133MOL   H30245446   5.164   5.342   6.333 -1.2034 -1.3293 -0.5093
  133MOL   H30345447   4.869   5.541   6.230  2.4453 -0.1540 -0.4971
  133MOL   H30445448   4.661   5.543   6.334 -0.3949 -0.2829  0.2685
  133MOL   H30545449   4.624   5.438   6.564  0.2450 -1.4921  1.4982
  133MOL   H30645450   4.827   5.372   6.704  1.6064 -1.1079 -0.4906
  133MOL   H30745451   5.050   5.375   6.584  0.7124 -1.0895 -1.1738
  133MOL   C30845452   5.202   5.471   6.108  0.3020 -0.1771  0.0343
  133MOL   C30945453   5.142   5.498   5.961 -0.4342 -0.6839 -0.1635
  133MOL   C31045454   5.034   5.605   5.956 -0.1914  0.7020 -0.3384
  133MOL   C31145455   5.030   5.714   6.047  0.8431  0.1674  1.0664
  133MOL   C31245456   4.919   5.804   6.055  0.0966  0.4222 -0.2862
  133MOL   C31345457   4.810   5.772   5.979 -0.5512 -0.4428  0.3396
  133MOL   C31445458   4.817   5.669   5.885  0.3425 -0.2522  0.2497
  133MOL   C31545459   4.928   5.589   5.870 -0.0438 -0.2773 -0.0452
  133MOL   O31645460   5.247   5.514   5.860  0.4905 -0.1015  0.0324
  133MOL   H31745461   5.245   5.371   6.103  0.2512 -0.2383  0.7014
  133MOL   H31845462   5.284   5.539   6.132  0.2615  1.3933 -3.9717
  133MOL   H31945463   5.091   5.404   5.939 -1.7026  0.0822 -0.5831
  133MOL   H32045464   5.110   5.723   6.120  0.4050 -0.5648  1.6487
  133MOL   H32145465   4.924   5.884   6.127  0.7815  0.8094 -0.7641
  133MOL   H32245466   4.720   5.828   5.996  0.5194  0.8951  1.6963
  133MOL   H32345467   4.725   5.642   5.835 -0.1202  0.6856  0.5844
  133MOL   H32445468   4.923   5.506   5.801 -1.8969 -1.5096  1.5227
  133MOL   C32545469   5.200   5.527   5.724 -0.2114 -0.4411 -0.6767
  133MOL   C32645470   5.311   5.500   5.620  0.6079  0.8911  0.1044
  133MOL   C32745471   5.265   5.473   5.481  0.8638 -0.0612  0.0582
  133MOL   C32845472   5.134   5.501   5.435  0.0117  0.4300  0.1079
  133MOL   C32945473   5.099   5.470   5.303  0.4921  0.0911  0.2504
  133MOL   C33045474   5.192   5.416   5.216  0.3973 -0.3664 -0.5531
  133MOL   C33145475   5.325   5.393   5.259  0.4192  0.4144 -0.4938
  133MOL   C33245476   5.356   5.418   5.391  0.2425  0.2058 -0.0881
  133MOL   O33345477   5.390   5.618   5.637  0.1166 -0.2403  0.0548
  133MOL   H33445478   5.154   5.625   5.710 -0.3572 -0.6642 -1.8326
  133MOL   H33545479   5.120   5.454   5.716 -0.3129 -0.5257  0.8534
  133MOL   H33645480   5.356   5.406   5.651 -0.3569  0.6142  0.7095
  133MOL   H33745481   5.062   5.534   5.509  1.1413  1.5023  0.7382
  133MOL   H33845482   4.999   5.496   5.272  0.3345 -0.6658  0.1088
  133MOL   H33945483   5.173   5.382   5.115 -0.8610 -0.1213 -0.4027
  133MOL   H34045484   5.387   5.337   5.191 -0.2023  0.6907 -1.2867
  133MOL   H34145485   5.457   5.406   5.425  0.5770 -1.0599 -1.4693
  133MOL   H34245486   5.419   5.622   5.727 -0.7469  0.7543  0.2984
  134MOL     C145487   2.377   1.929   6.259  0.2986  0.1747  0.6333
  134MOL     C245488   2.531   1.950   6.275  0.5078 -1.2959  0.2325
  134MOL     C345489   2.579   2.081   6.218  0.1432  0.1777  0.0291
  134MOL     C445490   2.640   2.176   6.296 -0.1903  0.8845  0.3719
  134MOL     C545491   2.688   2.303   6.243 -0.5658 -0.2517  0.4793
  134MOL     C645492   2.677   2.335   6.111  0.3882  0.0613  0.2654
  134MOL     C745493   2.617   2.239   6.027 -0.3333  0.1733  0.1645
  134MOL     C845494   2.576   2.111   6.079  1.2946  0.0672  0.1707
  134MOL     O945495   2.589   1.843   6.205  0.8251 -0.3833  0.0530
  134MOL    H1045496   2.331   2.011   6.313 -1.5038  2.2071 -3.7101
  134MOL    H1145497   2.346   1.942   6.155  0.5366 -0.9492  0.4153
  134MOL    H1245498   2.564   1.956   6.379 -0.8996 -1.1590  0.6694
  134MOL    H1345499   2.661   2.165   6.401 -2.3551  1.0062  0.8438
  134MOL    H1445500   2.721   2.381   6.310 -2.7850  1.5083 -0.4410
  134MOL    H1545501   2.713   2.431   6.077 -0.6561  0.2540 -0.3148
  134MOL    H1645502   2.607   2.255   5.920 -1.1294  0.7878  0.3257
  134MOL    H1745503   2.536   2.042   6.006 -0.5905  1.1647  0.1245
  134MOL    H1845504   2.339   1.834   6.296  2.7664 -0.8409  0.6954
  134MOL    C1945505   2.583   1.714   6.272  0.1437 -0.4439  0.4914
  134MOL    C2045506   2.694   1.613   6.228  0.0180 -0.1315  0.0877
  134MOL    C2145507   2.693   1.487   6.312  0.0076 -0.2586  0.0274
  134MOL    C2245508   2.772   1.476   6.430 -0.1111  0.3480  0.1088
  134MOL    C2345509   2.772   1.355   6.503 -0.0255 -0.5092  0.1248
  134MOL    C2445510   2.684   1.252   6.477  0.0065 -0.0189 -0.2070
  134MOL    C2545511   2.596   1.266   6.367 -0.8384  0.2622  0.3541
  134MOL    C2645512   2.599   1.384   6.282 -0.5262  0.0122 -0.6329
  134MOL    O2745513   2.817   1.680   6.246  0.0684  0.4257  0.9181
  134MOL    H2845514   2.594   1.734   6.379  1.2025  1.0826  0.1176
  134MOL    H2945515   2.485   1.671   6.253  0.0792 -0.4813  0.8993
  134MOL    H3045516   2.687   1.579   6.124 -0.0562 -0.7689  0.2997
  134MOL    H3145517   2.823   1.569   6.450  0.2932  0.1877 -0.1616
  134MOL    H3245518   2.847   1.348   6.580  1.0655 -1.2883 -0.9909
  134MOL    H3345519   2.684   1.164   6.539 -2.7648  1.7582  2.4501
  134MOL    H3445520   2.538   1.182   6.332 -0.8224  1.0451 -1.6717
  134MOL    H3545521   2.539   1.390   6.192 -0.9595  1.9182 -0.2422
  134MOL    C3645522   2.874   1.738   6.129 -0.0912  0.1474  0.2497
  134MOL    C3745523   2.996   1.822   6.167  0.5694  0.5581 -0.4519
  134MOL    C3845524   3.038   1.930   6.067 -0.3597  0.3792 -0.1828
  134MOL    C3945525   2.946   2.036   6.034 -0.2744  0.3792 -0.1316
  134MOL    C4045526   2.982   2.144   5.952  0.3325  0.6372 -0.0759
  134MOL    C4145527   3.112   2.151   5.901 -0.8964  0.0401 -0.0445
  134MOL    C4245528   3.212   2.060   5.950 -0.4679  0.2356  0.1121
  134MOL    C4345529   3.170   1.943   6.025 -0.1140 -0.3115 -0.1549
  134MOL    O4445530   3.102   1.746   6.213 -0.3500  0.1136  0.4921
  134MOL    H4545531   2.902   1.662   6.056  0.5833 -0.4423  1.1115
  134MOL    H4645532   2.800   1.803   6.084 -0.6046 -0.5921  0.0144
  134MOL    H4745533   2.962   1.875   6.256 -0.0795 -1.6399  0.6546
  134MOL    H4845534   2.847   2.038   6.076 -0.8485 -1.3899 -1.3443
  134MOL    H4945535   2.909   2.215   5.915 -0.8354 -0.6666 -0.3603
  134MOL    H5045536   3.138   2.231   5.834 -0.4175 -0.1479 -0.0850
  134MOL    H5145537   3.312   2.071   5.911 -0.9217 -0.2543 -1.2397
  134MOL    H5245538   3.229   1.856   6.048  2.6049  1.2240 -1.1129
  134MOL    C5345539   3.112   1.728   6.348  0.9822  0.2581 -0.0432
  134MOL    C5445540   3.246   1.656   6.367  0.4561  0.1973 -0.1014
  134MOL    C5545541   3.363   1.742   6.316 -0.1642 -0.1458  0.2229
  134MOL    C5645542   3.405   1.724   6.179 -0.3207 -0.2212 -0.2158
  134MOL    C5745543   3.517   1.799   6.141 -0.6062  0.7212  0.2747
  134MOL    C5845544   3.585   1.886   6.227  0.0874  0.3404 -0.4317
  134MOL    C5945545   3.537   1.903   6.360  0.4657  0.3497  0.3640
  134MOL    C6045546   3.429   1.830   6.403 -0.7146 -0.1311 -0.1062
  134MOL    O6145547   3.255   1.631   6.501 -0.1177  0.1643  0.2281
  134MOL    H6245548   3.117   1.828   6.391  3.6062 -0.1346  0.6449
  134MOL    H6345549   3.027   1.670   6.385  1.3755 -1.0196 -1.1106
  134MOL    H6445550   3.242   1.563   6.311  1.5744 -0.3767  0.7579
  134MOL    H6545551   3.360   1.644   6.122  2.9316 -1.9115 -0.5011
  134MOL    H6645552   3.560   1.782   6.043  3.7871  1.8097  1.8678
  134MOL    H6745553   3.670   1.944   6.193 -0.7273  1.7475 -0.1185
  134MOL    H6845554   3.583   1.971   6.430 -1.3691 -0.4838  2.4609
  134MOL    H6945555   3.409   1.845   6.508  0.5770  0.7674  0.0288
  134MOL    C7045556   3.158   1.543   6.559 -0.4571  0.1732 -0.3655
  134MOL    C7145557   3.213   1.484   6.692 -0.6832 -0.2538 -0.2334
  134MOL    C7245558   3.148   1.353   6.726 -0.9105 -0.4519 -0.6904
  134MOL    C7345559   3.023   1.348   6.789 -0.0002  0.7807 -0.2539
  134MOL    C7445560   2.969   1.223   6.832  0.5534 -0.1509  0.0408
  134MOL    C7545561   3.027   1.098   6.800 -0.3894 -0.5407 -0.2580
  134MOL    C7645562   3.152   1.106   6.738  1.0184  0.4154  0.3095
  134MOL    C7745563   3.209   1.228   6.695 -0.6260 -0.0007  0.1661
  134MOL    O7845564   3.208   1.574   6.804  0.2570  0.1331  0.5022
  134MOL    H7945565   3.059   1.582   6.582 -1.2453 -1.5093 -0.7569
  134MOL    H8045566   3.149   1.462   6.487 -0.0206  0.7905 -1.1207
  134MOL    H8145567   3.317   1.455   6.680  0.0388  2.2273 -0.3462
  134MOL    H8245568   2.975   1.442   6.812 -0.0501  0.6796  0.0515
  134MOL    H8345569   2.869   1.218   6.872  1.0536 -0.4779  1.2524
  134MOL    H8445570   2.982   1.005   6.834 -0.9198 -0.3522 -0.4390
  134MOL    H8545571   3.207   1.017   6.711  0.8416  0.1434  0.8434
  134MOL    H8645572   3.306   1.231   6.647 -0.8805 -2.0263 -0.5232
  134MOL    C8745573   3.292   1.683   6.774 -0.1903  0.1512  0.2390
  134MOL    C8845574   3.350   1.752   6.898 -0.4626  0.0317 -0.1154
  134MOL    C8945575   3.251   1.772   7.017 -0.2716 -0.2843  0.6580
  134MOL    C9045576   3.201   1.906   7.048  0.7492  0.2342  0.1301
  134MOL    C9145577   3.116   1.922   7.155 -0.2639  0.2983  0.1437
  134MOL    C9245578   3.077   1.812   7.233  0.0692  0.8783 -0.2772
  134MOL    C9345579   3.124   1.680   7.210 -0.5161 -0.4937  0.0234
  134MOL    C9445580   3.214   1.665   7.103  0.2097  0.8452 -0.3575
  134MOL    O9545581   3.397   1.874   6.847 -0.5615  0.3724  0.3297
  134MOL    H9645582   3.228   1.756   6.725 -0.5371 -0.1227  0.2884
  134MOL    H9745583   3.377   1.677   6.705  0.5875 -0.6330  1.2464
  134MOL    H9845584   3.425   1.684   6.939 -0.8311 -0.1956  0.1895
  134MOL    H9945585   3.237   1.984   6.983  0.6731  1.0902  1.1051
  134MOL   H10045586   3.074   2.019   7.178 -0.4904 -0.3659  2.6739
  134MOL   H10145587   3.004   1.829   7.310  0.1245  1.4388 -0.3477
  134MOL   H10245588   3.078   1.594   7.255  0.0649 -1.6947 -1.6414
  134MOL   H10345589   3.249   1.569   7.067 -0.1463  0.1204  1.2110
  134MOL   C10445590   3.536   1.879   6.826  0.0764 -0.9464  0.3876
  134MOL   C10545591   3.576   2.030   6.826 -0.1529  0.1581 -0.6573
  134MOL   C10645592   3.500   2.116   6.933 -0.1646  0.2177  0.6479
  134MOL   C10745593   3.540   2.106   7.067  0.8611  0.0728  0.4177
  134MOL   C10845594   3.464   2.174   7.167  0.2137  0.4819  0.2105
  134MOL   C10945595   3.351   2.250   7.134 -0.2051 -0.0771 -0.6722
  134MOL   C11045596   3.313   2.252   6.998  0.9568  0.2510 -0.1312
  134MOL   C11145597   3.385   2.185   6.898 -0.4554  0.5066  0.4066
  134MOL   O11245598   3.719   2.032   6.838  0.4223 -0.1669 -0.1384
  134MOL   H11345599   3.589   1.824   6.904 -0.6196 -1.8232  0.2433
  134MOL   H11445600   3.555   1.829   6.731 -0.0285 -2.2066  1.0169
  134MOL   H11545601   3.551   2.067   6.726  2.2506  0.4902 -1.1561
  134MOL   H11645602   3.632   2.057   7.095  0.2383 -0.2184  1.9936
  134MOL   H11745603   3.484   2.172   7.273  0.4112 -0.8409  0.1645
  134MOL   H11845604   3.304   2.317   7.205  0.0262 -1.2370  0.6089
  134MOL   H11945605   3.236   2.320   6.965 -0.1430  0.0909  2.0131
  134MOL   H12045606   3.349   2.187   6.797 -1.4862 -2.4145  0.6731
  134MOL   C12145607   3.777   2.140   6.789 -1.4839  0.9122  0.2616
  134MOL   C12245608   3.933   2.152   6.818  0.1560  0.2255  0.9118
  134MOL   C12345609   3.970   2.129   6.967  0.4336  0.0117  0.1042
  134MOL   C12445610   4.094   2.072   7.000 -0.1741 -0.1211  0.1309
  134MOL   C12545611   4.138   2.044   7.133 -0.0101 -0.2410  0.1425
  134MOL   C12645612   4.050   2.083   7.229 -0.7643  0.8409 -0.2747
  134MOL   C12745613   3.927   2.153   7.205  0.3077  0.4591  0.2955
  134MOL   C12845614   3.890   2.172   7.068  0.4349  0.6489 -0.5510
  134MOL   O12945615   4.009   2.064   6.725 -0.6376  0.0562 -0.5681
  134MOL   H13045616   3.736   2.233   6.829  2.2906  2.7321  0.1472
  134MOL   H13145617   3.766   2.146   6.681  1.1801  1.5422 -0.0080
  134MOL   H13245618   3.955   2.255   6.789 -2.6784  0.1857 -1.6452
  134MOL   H13345619   4.155   2.034   6.919  0.3542  0.7513  0.1094
  134MOL   H13445620   4.231   1.994   7.152  1.1792  1.6804 -0.4664
  134MOL   H13545621   4.082   2.068   7.331 -1.4507 -1.7757 -0.4108
  134MOL   H13645622   3.868   2.192   7.286 -1.0837 -1.7722  0.3659
  134MOL   H13745623   3.788   2.208   7.061  0.0606  0.0950  1.6843
  134MOL   C13845624   3.978   1.923   6.733 -0.1003 -0.1885 -0.1501
  134MOL   C13945625   4.090   1.827   6.689 -0.2228 -0.2186 -0.0810
  134MOL   C14045626   4.212   1.815   6.781 -0.1398  0.6438  0.7381
  134MOL   C14145627   4.327   1.883   6.738  0.0703  0.7179 -0.0814
  134MOL   C14245628   4.441   1.890   6.824  0.6741 -0.0788  0.3846
  134MOL   C14345629   4.440   1.824   6.945  0.2867 -0.7082  0.1758
  134MOL   C14445630   4.321   1.764   6.992  0.9600 -0.4168 -0.1099
  134MOL   C14545631   4.208   1.759   6.910  0.2821 -0.8990 -0.0613
  134MOL   O14645632   4.023   1.703   6.662 -0.2349  0.2094 -0.5151
  134MOL   H14745633   3.899   1.909   6.660  0.0221 -0.4208 -0.2370
  134MOL   H14845634   3.939   1.891   6.829  0.4177  0.8398  0.4102
  134MOL   H14945635   4.119   1.880   6.598 -1.1993  2.9778  1.4073
  134MOL   H15045636   4.337   1.929   6.640 -2.3460 -1.0234 -1.1996
  134MOL   H15145637   4.530   1.940   6.787 -0.1287  1.7622  0.9008
  134MOL   H15245638   4.525   1.815   7.012  0.5958 -2.7198 -0.4458
  134MOL   H15345639   4.327   1.725   7.093 -0.8770  0.3028  0.2997
  134MOL   H15445640   4.109   1.728   6.941  1.0581 -1.0639  2.3446
  134MOL   C15545641   4.089   1.625   6.562  0.1774  0.4164  0.2055
  134MOL   C15645642   4.020   1.489   6.563  0.0069  0.2682  0.1999
  134MOL   C15745643   3.865   1.490   6.549 -0.4173 -0.4603  0.3369
  134MOL   C15845644   3.780   1.431   6.646 -0.4942  0.1179 -0.5376
  134MOL   C15945645   3.648   1.442   6.631 -0.3106 -0.3482  0.1864
  134MOL   C16045646   3.589   1.504   6.520 -0.3931  0.5647 -0.2934
  134MOL   C16145647   3.675   1.566   6.425 -0.1620  0.4101 -0.5973
  134MOL   C16245648   3.819   1.549   6.429 -1.0315  0.0414 -0.1814
  134MOL   O16345649   4.076   1.413   6.457  0.5778 -0.2368 -0.9028
  134MOL   H16445650   4.194   1.605   6.585  0.3335  0.8593 -0.1161
  134MOL   H16545651   4.068   1.674   6.467 -1.1492 -3.2721 -1.5230
  134MOL   H16645652   4.054   1.443   6.656  0.5934  1.4771  0.5964
  134MOL   H16745653   3.828   1.393   6.735 -2.7614  0.4354  0.8509
  134MOL   H16845654   3.586   1.397   6.707  1.0585 -1.9672  0.3695
  134MOL   H16945655   3.482   1.516   6.506 -0.4896 -0.7334 -0.6789
  134MOL   H17045656   3.638   1.613   6.335 -0.3354 -0.7281 -1.1348
  134MOL   H17145657   3.881   1.592   6.352 -0.5813 -2.3986 -1.2253
  134MOL   C17245658   4.075   1.270   6.462 -0.0020  0.7325  0.2875
  134MOL   C17345659   4.169   1.204   6.352 -0.5689  0.1550  0.0085
  134MOL   C17445660   4.317   1.217   6.369  0.2130  1.2386  0.1817
  134MOL   C17545661   4.401   1.101   6.387 -0.4854  0.3877 -0.5951
  134MOL   C17645662   4.540   1.130   6.391  0.4393  0.3150  0.0337
  134MOL   C17745663   4.596   1.262   6.382 -0.3640 -0.2495 -0.4518
  134MOL   C17845664   4.515   1.371   6.355  0.3475  0.1119 -0.5925
  134MOL   C17945665   4.373   1.352   6.358  0.3378  0.7452  0.0935
  134MOL   O18045666   4.122   1.252   6.227  0.2741  1.1007  0.8301
  134MOL   H18145667   4.106   1.220   6.554  0.7653 -0.4300 -0.5912
  134MOL   H18245668   3.974   1.231   6.449  0.5403 -0.1840 -1.2226
  134MOL   H18345669   4.149   1.097   6.346 -0.0612 -0.0367  1.5753
  134MOL   H18445670   4.364   1.001   6.399  2.1178 -0.6589 -0.9857
  134MOL   H18545671   4.614   1.052   6.406  0.7838  0.6818  0.2445
  134MOL   H18645672   4.704   1.265   6.374 -0.1430 -0.9081  1.7367
  134MOL   H18745673   4.555   1.468   6.328  0.1857  0.2378 -0.3772
  134MOL   H18845674   4.302   1.432   6.343 -1.3521 -0.9102 -0.8438
  134MOL   C18945675   4.149   1.166   6.113  0.8256  0.4146  0.0909
  134MOL   C19045676   4.042   1.058   6.071 -0.1609  0.0336  0.0793
  134MOL   C19145677   3.911   1.129   6.051  0.3445  0.0233  0.0160
  134MOL   C19245678   3.890   1.204   5.928  0.0524  0.8193  0.9567
  134MOL   C19345679   3.770   1.282   5.913 -0.1533  0.0596  0.0301
  134MOL   C19445680   3.674   1.288   6.016  0.3463  0.6111 -0.3946
  134MOL   C19545681   3.696   1.216   6.138  0.0436 -0.1079 -0.0102
  134MOL   C19645682   3.814   1.133   6.152 -0.0695 -1.1094  0.4642
  134MOL   O19745683   4.029   0.956   6.161  0.3614 -0.7025 -0.4312
  134MOL   H19845684   4.168   1.234   6.030 -1.0187  0.4645 -0.3017
  134MOL   H19945685   4.243   1.112   6.119  0.6600 -0.1514 -2.0391
  134MOL   H20045686   4.065   1.010   5.976  0.6394  0.4667  0.0510
  134MOL   H20145687   3.955   1.193   5.843 -0.5386 -1.6828  0.7913
  134MOL   H20245688   3.741   1.334   5.823 -1.7139  0.3649  0.6933
  134MOL   H20345689   3.579   1.338   6.003 -1.1165 -2.2369 -1.1354
  134MOL   H20445690   3.623   1.215   6.217 -2.0327  1.9564 -1.8153
  134MOL   H20545691   3.836   1.090   6.249  2.2232  0.4904  0.6712
  134MOL   C20645692   4.126   0.847   6.164  0.0175  0.2992  0.1146
  134MOL   C20745693   4.084   0.759   6.285 -0.3840 -0.2464 -0.1887
  134MOL   C20845694   3.955   0.687   6.284  0.0901  0.2144 -0.1827
  134MOL   C20945695   3.940   0.551   6.256  0.1175  0.8326  0.3205
  134MOL   C21045696   3.821   0.489   6.282 -0.1616 -0.4955  0.2019
  134MOL   C21145697   3.708   0.568   6.308 -0.3602  0.4197 -0.3185
  134MOL   C21245698   3.723   0.701   6.343  0.2129 -0.2685  0.0006
  134MOL   C21345699   3.846   0.762   6.328  0.2881  0.7661 -0.1465
  134MOL   O21445700   4.093   0.836   6.410  0.7171  0.2019  0.5200
  134MOL   H21545701   4.124   0.788   6.072 -1.6800 -0.2533  0.4836
  134MOL   H21645702   4.226   0.890   6.168 -0.9703  2.7916 -0.9154
  134MOL   H21745703   4.158   0.679   6.287  0.5676  0.6120  0.3989
  134MOL   H21845704   4.022   0.485   6.230  0.5420  0.5790  2.1906
  134MOL   H21945705   3.805   0.382   6.283  0.5213 -0.6000  0.3295
  134MOL   H22045706   3.610   0.526   6.324  0.1585 -0.4095  0.8490
  134MOL   H22145707   3.636   0.746   6.389  2.0906  1.9291  1.4747
  134MOL   H22245708   3.863   0.864   6.358 -1.2925  0.5670  1.5635
  134MOL   C22345709   4.114   0.752   6.525  0.1177 -0.1473 -0.8901
  134MOL   C22445710   4.134   0.836   6.652  0.0884  0.3221  0.8115
  134MOL   C22545711   4.136   0.757   6.779  0.9342  0.4527  0.3881
  134MOL   C22645712   4.247   0.669   6.795  0.0826 -0.1900  0.4490
  134MOL   C22745713   4.249   0.593   6.912 -0.0839 -0.6324  0.3428
  134MOL   C22845714   4.142   0.599   7.005 -0.7491 -0.5755  0.3193
  134MOL   C22945715   4.031   0.682   6.980 -0.3783  0.1242 -0.0098
  134MOL   C23045716   4.024   0.758   6.862  0.2103  0.0011  0.0594
  134MOL   O23145717   4.236   0.931   6.640 -0.0175  0.0005  0.1295
  134MOL   H23245718   4.035   0.682   6.550  0.8884 -0.7568 -0.0900
  134MOL   H23345719   4.206   0.697   6.501  0.3869  0.5827 -1.5393
  134MOL   H23445720   4.039   0.890   6.659  1.4605  3.2750 -2.0870
  134MOL   H23545721   4.321   0.658   6.717  0.6059 -0.3687  0.9638
  134MOL   H23645722   4.333   0.528   6.932  0.4876 -0.3012 -0.9681
  134MOL   H23745723   4.159   0.529   7.085 -0.5049 -1.5648 -0.5834
  134MOL   H23845724   3.954   0.678   7.057  0.9572 -1.7145  1.2848
  134MOL   H23945725   3.936   0.815   6.837  0.0567 -2.0225 -4.4521
  134MOL   C24045726   4.248   1.023   6.750  0.3370 -0.8251 -0.3545
  134MOL   C24145727   4.384   1.095   6.746 -0.4796  0.4623 -0.0854
  134MOL   C24245728   4.376   1.211   6.842 -0.2813 -0.6983  0.3542
  134MOL   C24345729   4.370   1.345   6.791  0.0776 -0.6297  0.0905
  134MOL   C24445730   4.375   1.447   6.876 -0.1404 -0.1911 -0.9933
  134MOL   C24545731   4.391   1.426   7.016 -0.4308 -0.0391  0.6405
  134MOL   C24645732   4.385   1.295   7.067 -0.3224  0.4454 -0.3925
  134MOL   C24745733   4.393   1.188   6.979 -0.3500 -0.2504  0.8270
  134MOL   O24845734   4.480   0.997   6.782 -0.3388 -0.0078  0.3061
  134MOL   H24945735   4.169   1.094   6.727  0.5359  0.0409  1.5024
  134MOL   H25045736   4.237   0.971   6.846  2.0837  1.3530  1.0953
  134MOL   H25145737   4.416   1.130   6.648  1.7920  2.6383  1.3765
  134MOL   H25245738   4.372   1.358   6.684  3.3551 -1.1787  0.0168
  134MOL   H25345739   4.358   1.546   6.835  2.3473  1.5790  2.0274
  134MOL   H25445740   4.404   1.505   7.089 -2.3557  1.2734 -0.3943
  134MOL   H25545741   4.391   1.276   7.173 -2.1862  0.6251 -0.2464
  134MOL   H25645742   4.394   1.085   7.014 -0.9143 -0.1156  1.2480
  134MOL   C25745743   4.611   1.046   6.795 -0.2644 -0.3888  0.3497
  134MOL   C25845744   4.708   0.931   6.823  0.6696 -0.0220 -0.5866
  134MOL   C25945745   4.665   0.849   6.948 -0.0457 -0.0932  0.2850
  134MOL   C26045746   4.580   0.735   6.942 -0.4653 -0.0931  0.5349
  134MOL   C26145747   4.542   0.668   7.060 -0.8353  0.2538  0.5509
  134MOL   C26245748   4.593   0.716   7.185 -0.5123  0.2258 -0.0831
  134MOL   C26345749   4.679   0.826   7.186  0.0543  0.1844  0.0034
  134MOL   C26445750   4.698   0.902   7.071 -0.0479 -0.5979  0.3789
  134MOL   O26545751   4.837   0.987   6.844 -0.3638  0.0831  0.7916
  134MOL   H26645752   4.618   1.129   6.866 -1.5790 -1.0644  1.2897
  134MOL   H26745753   4.651   1.096   6.707  0.6114  0.0319  0.9800
  134MOL   H26845754   4.708   0.867   6.734 -2.4245 -1.9710  0.7397
  134MOL   H26945755   4.550   0.702   6.844 -0.7745  0.5449  0.4143
  134MOL   H27045756   4.485   0.577   7.051 -0.8577  0.3760 -0.6614
  134MOL   H27145757   4.586   0.663   7.279 -2.4494  0.2419 -0.1960
  134MOL   H27245758   4.723   0.856   7.280  1.9087 -1.7177 -0.2251
  134MOL   H27345759   4.761   0.990   7.068 -0.5436 -0.1981  1.2522
  134MOL   C27445760   4.941   0.891   6.838 -0.5758  0.3034  0.0322
  134MOL   C27545761   4.979   0.847   6.692  0.2052  0.8209  0.3778
  134MOL   C27645762   5.015   0.962   6.593 -0.6245 -0.1480 -0.5107
  134MOL   C27745763   5.136   1.028   6.612 -0.0033 -0.6857 -0.0382
  134MOL   C27845764   5.165   1.135   6.525 -0.1730  0.1865 -0.0176
  134MOL   C27945765   5.085   1.166   6.413 -0.9912 -0.1102 -0.1113
  134MOL   C28045766   4.959   1.100   6.399  0.2365  0.1449 -0.7314
  134MOL   C28145767   4.928   1.000   6.489  0.6137  0.7782  0.1001
  134MOL   O28245768   4.880   0.748   6.645 -0.0985  0.5636 -0.8487
  134MOL   H28345769   5.020   0.933   6.899  0.3973  0.4170 -1.2949
  134MOL   H28445770   4.913   0.804   6.897  0.4336 -2.6413 -3.6265
  134MOL   H28545771   5.071   0.793   6.713 -0.2398  0.2637  0.9337
  134MOL   H28645772   5.201   0.994   6.691 -1.9337 -2.0592  1.0065
  134MOL   H28745773   5.259   1.188   6.532 -0.1202  0.3426 -1.7969
  134MOL   H28845774   5.118   1.249   6.352 -0.0360 -0.4942 -0.1270
  134MOL   H28945775   4.892   1.124   6.318  0.7760 -0.8527 -1.4942
  134MOL   H29045776   4.834   0.947   6.481 -0.7751  3.0164  0.8322
  134MOL   C29145777   4.922   0.671   6.534  0.0577  0.0461  0.3316
  134MOL   C29245778   4.804   0.583   6.498 -0.8190  0.3922 -0.0217
  134MOL   C29345779   4.693   0.657   6.428  0.9055 -0.5344  0.0667
  134MOL   C29445780   4.680   0.653   6.287 -0.1328 -0.5618  0.4597
  134MOL   C29545781   4.569   0.699   6.216  0.4148  0.0813  0.6475
  134MOL   C29645782   4.470   0.757   6.294 -0.5542 -0.0434  0.0070
  134MOL   C29745783   4.472   0.769   6.437 -0.4329  0.2210  0.8120
  134MOL   C29845784   4.590   0.715   6.504 -0.1946 -0.3880 -0.0296
  134MOL   O29945785   4.852   0.471   6.426 -0.4562  0.2297  0.0011
  134MOL   H30045786   5.015   0.620   6.561  1.1784  2.4805  1.2146
  134MOL   H30145787   4.948   0.731   6.446  1.4372 -2.4864 -1.0480
  134MOL   H30245788   4.757   0.552   6.591 -2.6370  1.8710 -0.4189
  134MOL   H30345789   4.762   0.607   6.234  0.3350 -0.9602  1.5144
  134MOL   H30445790   4.561   0.690   6.109  0.6691  0.6147  0.5850
  134MOL   H30545791   4.376   0.790   6.251 -1.5299  1.0176  2.8042
  134MOL   H30645792   4.396   0.813   6.499  0.0231  2.0620  0.1050
  134MOL   H30745793   4.592   0.709   6.612 -1.2414 -1.6517 -0.0662
  134MOL   C30845794   4.772   0.359   6.398  0.2503  0.2139 -0.3828
  134MOL   C30945795   4.777   0.251   6.510 -0.2650  0.5224 -0.1864
  134MOL   C31045796   4.919   0.216   6.548  0.6899 -0.0047 -0.6991
  134MOL   C31145797   4.980   0.116   6.472  0.3892 -0.2818 -0.8610
  134MOL   C31245798   5.106   0.070   6.500  0.4523  0.6204 -0.3216
  134MOL   C31345799   5.180   0.126   6.607 -0.1837  0.5812  0.1797
  134MOL   C31445800   5.123   0.232   6.682  0.4159 -0.0951 -0.2932
  134MOL   C31545801   4.999   0.284   6.642  0.4835  0.3869 -0.3809
  134MOL   O31645802   4.705   0.304   6.625  0.1246  0.8966 -0.2184
  134MOL   H31745803   4.820   0.319   6.309 -0.1156  1.6936 -1.2522
  134MOL   H31845804   4.673   0.396   6.374  0.8321  2.3349  0.3552
  134MOL   H31945805   4.724   0.164   6.471  2.2809 -1.3432  0.3877
  134MOL   H32045806   4.915   0.060   6.407 -2.6654  1.6059  0.4252
  134MOL   H32145807   5.145   8.068   6.442 -1.7644 -1.0083  0.4273
  134MOL   H32245808   5.286   0.110   6.615 -0.3685 -1.3463 -1.0503
  134MOL   H32345809   5.185   0.284   6.753 -0.7217 -0.0480  0.6927
  134MOL   H32445810   4.968   0.379   6.684  0.0926  0.4496 -0.8038
  134MOL   C32545811   4.647   0.214   6.718  0.0512 -0.0288  0.6105
  134MOL   C32645812   4.601   0.292   6.847 -0.1172 -0.3751 -0.1864
  134MOL   C32745813   4.721   0.335   6.930 -0.4949  0.1413 -0.7298
  134MOL   C32845814   4.783   0.460   6.914  0.0116  0.3343  0.4705
  134MOL   C32945815   4.903   0.481   6.994  0.2886 -0.1624 -0.2765
  134MOL   C33045816   4.946   0.391   7.086  0.8494 -0.5314  0.5031
  134MOL   C33145817   4.868   0.280   7.117  0.3419 -0.0796  0.0785
  134MOL   C33245818   4.758   0.254   7.040  0.4557  0.0591 -0.0205
  134MOL   O33345819   4.532   0.404   6.793 -0.1807 -0.4294 -0.0223
  134MOL   H33445820   4.719   0.139   6.747  1.1868  0.7069 -0.2433
  134MOL   H33545821   4.566   0.166   6.664  1.1530  1.0378 -2.1068
  134MOL   H33645822   4.540   0.226   6.910 -1.3948  0.4677 -0.5132
  134MOL   H33745823   4.745   0.524   6.836  1.1051 -0.4440 -0.7131
  134MOL   H33845824   4.967   0.567   6.981  1.9203 -1.0312  1.7697
  134MOL   H33945825   5.037   0.414   7.138  1.4147  1.8918 -1.4306
  134MOL   H34045826   4.899   0.207   7.190 -0.4686 -1.5059 -0.9701
  134MOL   H34145827   4.694   0.168   7.046 -0.9038  1.0529  0.0500
  134MOL   H34245828   4.531   0.391   6.699 -1.8672 -1.0382  0.0674
  135MOL     C145829   2.639   0.330   1.253 -0.2574  0.5868  0.4527
  135MOL     C245830   2.571   0.221   1.169 -0.2638 -0.2311  0.4930
  135MOL     C345831   2.463   0.152   1.251  0.5427  0.4103 -0.3193
  135MOL     C445832   2.482   0.032   1.326 -0.7244 -0.7108 -0.3087
  135MOL     C545833   2.378   8.057   1.404 -0.4183  0.5512 -0.0765
  135MOL     C645834   2.253   0.045   1.405  0.5197  0.1677  0.6354
  135MOL     C745835   2.234   0.168   1.339  0.5331  0.0587 -0.6770
  135MOL     C845836   2.339   0.219   1.260 -0.1057 -0.3509  0.5305
  135MOL     O945837   2.687   0.135   1.137 -0.1186 -0.8090  0.0538
  135MOL    H1045838   2.682   0.283   1.341  2.2176 -2.3341 -2.1908
  135MOL    H1145839   2.724   0.373   1.201  0.3637 -0.4909  0.5510
  135MOL    H1245840   2.540   0.259   1.072  0.1067  0.0492  0.4800
  135MOL    H1345841   2.580   8.068   1.320  1.1630  2.9315  1.7339
  135MOL    H1445842   2.373   7.955   1.437 -0.6690  1.1632  1.8090
  135MOL    H1545843   2.168   8.079   1.453  0.2077 -1.1798 -1.1601
  135MOL    H1645844   2.137   0.216   1.336  0.0627 -0.7556  0.9333
  135MOL    H1745845   2.332   0.312   1.206  1.2827 -0.4254  0.1920
  135MOL    H1845846   2.573   0.414   1.270 -1.0954 -0.4788  2.6470
  135MOL    C1945847   2.658   0.031   1.042  0.5145  0.4733  0.0132
  135MOL    C2045848   2.787   8.063   0.972  0.3178  0.0484 -0.2817
  135MOL    C2145849   2.762   7.937   0.887 -0.7453  0.3714  0.5111
  135MOL    C2245850   2.777   7.803   0.942 -0.0790  0.9424  0.8121
  135MOL    C2345851   2.752   7.690   0.865 -0.3592  0.0454 -0.3490
  135MOL    C2445852   2.709   7.711   0.729 -0.2733 -0.1723  0.2354
  135MOL    C2545853   2.696   7.839   0.669  0.3213  0.5217 -0.3752
  135MOL    C2645854   2.726   7.951   0.746  0.2258 -0.6069 -0.0272
  135MOL    O2745855   2.881   8.041   1.069 -0.3530  0.5889  0.6605
  135MOL    H2845856   2.608   8.022   1.080  0.8983 -0.0757 -0.7542
  135MOL    H2945857   2.586   0.064   0.968 -0.1650 -1.6300 -0.2706
  135MOL    H3045858   2.815   0.058   0.899  0.1017  0.4760  0.0746
  135MOL    H3145859   2.798   7.795   1.047  1.9590  2.9618  0.5871
  135MOL    H3245860   2.759   7.585   0.892 -3.2257 -0.0084  0.3112
  135MOL    H3345861   2.691   7.623   0.669  0.4079  1.3056 -2.2046
  135MOL    H3445862   2.663   7.835   0.566 -0.2563  0.9246 -0.2095
  135MOL    H3545863   2.734   8.047   0.697 -1.3858 -1.5613 -2.2828
  135MOL    C3645864   3.012   8.005   1.038 -0.0412  0.5028  0.8330
  135MOL    C3745865   3.110   8.027   1.151  0.1625 -0.1689 -0.7801
  135MOL    C3845866   3.259   8.044   1.110 -0.5679 -0.0321 -0.5942
  135MOL    C3945867   3.309   0.084   1.062 -0.0683 -0.1052  0.1778
  135MOL    C4045868   3.442   0.095   1.025 -0.3794  0.9758 -0.6143
  135MOL    C4145869   3.534   8.071   1.039  0.4607 -0.2821 -0.3186
  135MOL    C4245870   3.489   7.940   1.082  0.0042 -0.3059 -0.7344
  135MOL    C4345871   3.347   7.933   1.121  0.2610  0.2499  0.1184
  135MOL    O4445872   3.096   7.927   1.256  0.0228  0.4357  0.5076
  135MOL    H4545873   3.023   7.908   0.990 -1.6459  0.4605  0.5457
  135MOL    H4645874   3.037   8.079   0.961 -0.7619 -0.2657 -0.1368
  135MOL    H4745875   3.080   0.045   1.188 -5.0268 -1.9080  0.0659
  135MOL    H4845876   3.250   0.170   1.033 -0.1482 -0.2441 -0.0721
  135MOL    H4945877   3.477   0.192   0.990 -0.7562  1.2484 -0.2434
  135MOL    H5045878   3.638   0.015   1.024  0.2027  0.0755 -1.5965
  135MOL    H5145879   3.562   7.863   1.104 -0.3479 -0.2262  0.8053
  135MOL    H5245880   3.298   7.841   1.147 -0.9532  0.5458 -1.1113
  135MOL    C5345881   3.110   7.988   1.382 -0.4995 -0.1118 -0.9327
  135MOL    C5445882   2.977   8.054   1.436 -0.3681 -0.6579  0.4255
  135MOL    C5545883   2.893   7.943   1.498 -0.3167 -0.6397 -0.4185
  135MOL    C5645884   2.774   7.899   1.434 -0.2395 -0.1313 -0.2127
  135MOL    C5745885   2.706   7.797   1.498 -0.5797 -0.4401 -0.3949
  135MOL    C5845886   2.745   7.740   1.622  0.0507 -0.5761  0.2644
  135MOL    C5945887   2.852   7.806   1.687  0.7991 -0.6831  0.1354
  135MOL    C6045888   2.929   7.901   1.629  0.6458 -0.3198 -0.9416
  135MOL    O6145889   3.022   0.060   1.544 -0.7353  0.1423  0.2774
  135MOL    H6245890   3.145   7.916   1.456 -0.2702  0.7267 -0.2100
  135MOL    H6345891   3.193   8.059   1.373 -0.6787  0.0729 -1.1424
  135MOL    H6445892   2.926   0.030   1.357 -0.6010 -1.8846 -0.2973
  135MOL    H6545893   2.738   7.943   1.342 -1.3389  1.8144  1.1199
  135MOL    H6645894   2.615   7.770   1.446 -3.1312  3.7102  1.5733
  135MOL    H6745895   2.706   7.648   1.663 -0.5903  0.2510  1.5616
  135MOL    H6845896   2.889   7.761   1.778  0.4962  1.4057  1.3371
  135MOL    H6945897   3.020   7.938   1.675  1.9708 -1.7464 -2.3595
  135MOL    C7045898   2.968   0.190   1.521  0.3321 -0.4279  0.5184
  135MOL    C7145899   3.030   0.293   1.618  0.2177  0.0521  0.1800
  135MOL    C7245900   2.953   0.429   1.613 -0.1812 -0.3170  0.2910
  135MOL    C7345901   2.859   0.459   1.714  0.6667 -0.5103  0.5863
  135MOL    C7445902   2.792   0.582   1.706 -0.2688  0.0545 -0.6574
  135MOL    C7545903   2.804   0.670   1.595 -0.6572 -0.2211  0.3556
  135MOL    C7645904   2.883   0.628   1.489  0.2873 -0.5983 -0.4096
  135MOL    C7745905   2.959   0.509   1.495 -0.1912 -0.2951  0.5717
  135MOL    O7845906   3.157   0.305   1.557  0.2562  0.2564  0.3476
  135MOL    H7945907   2.973   0.233   1.421  0.3654 -2.0017 -0.1669
  135MOL    H8045908   2.861   0.183   1.539 -0.1859  0.2168 -2.1017
  135MOL    H8145909   3.033   0.248   1.717 -0.8879 -0.3753  0.0300
  135MOL    H8245910   2.856   0.388   1.796 -0.6184 -0.0538  0.9359
  135MOL    H8345911   2.735   0.602   1.796  1.2746 -0.3128  0.4181
  135MOL    H8445912   2.751   0.762   1.579  1.4496  0.7462 -1.3793
  135MOL    H8545913   2.889   0.697   1.406 -0.6700 -2.1310 -1.7940
  135MOL    H8645914   3.029   0.484   1.417 -1.7536  0.6436 -1.1537
  135MOL    C8745915   3.265   0.239   1.633  0.0760 -0.3737 -0.1048
  135MOL    C8845916   3.387   0.192   1.544 -0.4213 -0.7438 -0.8044
  135MOL    C8945917   3.501   0.132   1.632  0.9778  0.5725 -0.2746
  135MOL    C9045918   3.462   0.013   1.701 -0.4461  0.2946 -0.1248
  135MOL    C9145919   3.561   8.023   1.780 -0.1867 -0.6411 -0.0891
  135MOL    C9245920   3.689   8.079   1.796  0.1203 -0.1456  0.2587
  135MOL    C9345921   3.718   0.129   1.740  0.1911  0.2965  0.7889
  135MOL    C9445922   3.622   0.191   1.664  0.6700  0.2891  0.2554
  135MOL    O9545923   3.440   0.305   1.481  0.4733  0.0175  0.3034
  135MOL    H9645924   3.231   0.147   1.680 -0.0514  0.2534  1.0348
  135MOL    H9745925   3.293   0.298   1.720  0.6153 -0.4447 -0.2281
  135MOL    H9845926   3.358   0.114   1.473 -0.8381 -0.8870 -0.4780
  135MOL    H9945927   3.362   8.053   1.690 -1.0603  1.1958  1.9887
  135MOL   H10045928   3.522   7.932   1.822 -2.9514  0.4542 -0.1092
  135MOL   H10145929   3.760   8.026   1.857 -0.4039 -0.0763  0.9336
  135MOL   H10245930   3.817   0.172   1.749 -0.5219  2.4852 -1.3576
  135MOL   H10345931   3.637   0.290   1.623 -1.1957  0.2198 -0.6367
  135MOL   C10445932   3.422   0.294   1.337 -1.0694  0.0349 -0.3834
  135MOL   C10545933   3.484   0.422   1.261 -0.4825  0.3604 -0.3393
  135MOL   C10645934   3.637   0.437   1.280 -0.9591  0.6185 -0.6595
  135MOL   C10745935   3.685   0.514   1.392  0.2779  0.1151  0.2509
  135MOL   C10845936   3.822   0.535   1.400  0.8344 -0.6658  0.2705
  135MOL   C10945937   3.908   0.477   1.302  0.3812 -0.2519  0.1012
  135MOL   C11045938   3.865   0.398   1.197  0.1527  0.1120 -0.6656
  135MOL   C11145939   3.724   0.382   1.180  0.5452  0.1152 -1.0767
  135MOL   O11245940   3.449   0.409   1.123  0.0351  0.5842  0.0384
  135MOL   H11345941   3.471   0.204   1.300  0.6777  0.4120  0.9999
  135MOL   H11445942   3.315   0.287   1.318 -0.9129  0.4893 -1.4700
  135MOL   H11545943   3.435   0.507   1.309 -0.2661  1.1500 -1.5116
  135MOL   H11645944   3.626   0.570   1.464  0.6756  0.4523  0.3178
  135MOL   H11745945   3.866   0.605   1.470  1.0700 -0.2408 -0.2958
  135MOL   H11845946   4.013   0.499   1.318  1.0548 -3.6565  0.5897
  135MOL   H11945947   3.937   0.352   1.132  0.8468  1.7267 -1.0572
  135MOL   H12045948   3.684   0.328   1.096 -1.2722  0.0456 -0.2022
  135MOL   C12145949   3.419   0.531   1.051 -0.7240  0.7910  0.2125
  135MOL   C12245950   3.269   0.582   1.046  0.0283  1.2073  0.4843
  135MOL   C12345951   3.176   0.481   0.983 -0.4437  0.2490  0.1473
  135MOL   C12445952   3.074   0.419   1.056 -0.2823 -0.1709 -0.0337
  135MOL   C12545953   2.995   0.321   0.994 -0.2489  0.2337 -0.5233
  135MOL   C12645954   3.021   0.285   0.859 -0.8844  0.4418  0.3343
  135MOL   C12745955   3.118   0.351   0.790 -1.0237 -0.1973  0.7780
  135MOL   C12845956   3.202   0.443   0.849 -0.3267 -0.0451 -0.7218
  135MOL   O12945957   3.239   0.613   1.176  0.4975  0.0222  0.3890
  135MOL   H13045958   3.460   0.533   0.950  0.9174 -0.6125  0.8264
  135MOL   H13145959   3.472   0.609   1.106  2.0204 -0.3638 -0.7040
  135MOL   H13245960   3.266   0.669   0.981 -0.6180  1.6043  1.0442
  135MOL   H13345961   3.070   0.445   1.161  3.3736  1.1299 -0.1386
  135MOL   H13445962   2.935   0.258   1.059  2.5948 -0.8777  1.1314
  135MOL   H13545963   2.976   0.199   0.813  3.8039 -0.8847 -2.1059
  135MOL   H13645964   3.120   0.313   0.689 -1.4637 -0.2715  0.7960
  135MOL   H13745965   3.274   0.499   0.792 -1.4308  1.7765 -0.3749
  135MOL   C13845966   3.131   0.705   1.192  0.3975  0.9073  0.3476
  135MOL   C13945967   3.190   0.842   1.249  0.4950  0.3198 -0.5932
  135MOL   C14045968   3.293   0.819   1.361  0.1618 -1.0668  0.1321
  135MOL   C14145969   3.430   0.840   1.342 -0.3014 -0.0951 -0.2396
  135MOL   C14245970   3.522   0.829   1.447 -0.2344  0.5256  0.2163
  135MOL   C14345971   3.470   0.798   1.575  0.1067 -0.0653 -0.2119
  135MOL   C14445972   3.335   0.774   1.599  0.4662 -0.1438  0.2129
  135MOL   C14545973   3.248   0.785   1.488  0.2777 -0.8163  0.4423
  135MOL   O14645974   3.250   0.921   1.148  0.0864  0.1813  0.1454
  135MOL   H14745975   3.075   0.666   1.277 -1.7055  0.0252 -1.3989
  135MOL   H14845976   3.063   0.705   1.106 -1.0700  0.9235  1.4904
  135MOL   H14945977   3.111   0.897   1.301  0.7880  0.9422 -0.8031
  135MOL   H15045978   3.473   0.860   1.245 -2.2958  1.3435 -0.8495
  135MOL   H15145979   3.626   0.823   1.420 -0.4332 -1.1518 -0.2350
  135MOL   H15245980   3.538   0.777   1.655 -2.1583  0.6131  1.9716
  135MOL   H15345981   3.297   0.757   1.699  0.6662 -3.7948 -0.2823
  135MOL   H15445982   3.142   0.776   1.504 -0.1635  3.7296  0.6327
  135MOL   C15545983   3.157   0.984   1.055 -0.4037  0.2718  0.5712
  135MOL   C15645984   3.240   1.061   0.944  0.1537 -0.0665 -0.5040
  135MOL   C15745985   3.324   0.962   0.861  0.3982 -0.2466 -0.1270
  135MOL   C15845986   3.446   0.916   0.912 -0.0226  0.8555  0.3442
  135MOL   C15945987   3.513   0.813   0.855 -0.2760  0.5011  0.4406
  135MOL   C16045988   3.472   0.754   0.742  0.3948  0.3318  0.3280
  135MOL   C16145989   3.346   0.796   0.685 -0.4400 -0.7445  0.5770
  135MOL   C16245990   3.272   0.892   0.746  0.1268  0.0517  0.1841
  135MOL   O16345991   3.149   1.141   0.854 -0.2801  0.0755  0.2009
  135MOL   H16445992   3.098   1.059   1.107  1.3256  0.6317  2.0776
  135MOL   H16545993   3.096   0.911   1.003 -1.6623  0.8619  1.2070
  135MOL   H16645994   3.304   1.134   0.995 -0.6217  1.5210 -1.7505
  135MOL   H16745995   3.482   0.971   0.998  0.5429  1.6481 -0.3883
  135MOL   H16845996   3.613   0.789   0.888 -1.1524  0.3197  3.1598
  135MOL   H16945997   3.526   0.671   0.698  1.2779  0.5919  0.9131
  135MOL   H17045998   3.317   0.748   0.593  0.2669  2.6613 -1.5140
  135MOL   H17145999   3.186   0.934   0.696 -0.1977 -0.6820  0.1278
  135MOL   C17246000   3.212   1.240   0.774 -0.6768  0.2495 -0.5266
  135MOL   C17346001   3.158   1.385   0.802  0.8520  0.4666  0.3437
  135MOL   C17446002   3.187   1.483   0.688 -0.2689 -0.0971  0.4199
  135MOL   C17546003   3.083   1.539   0.605  0.1107 -0.2528 -0.3094
  135MOL   C17646004   3.111   1.626   0.495 -0.4722 -0.3918 -1.2673
  135MOL   C17746005   3.245   1.660   0.466 -0.0467 -0.4651  0.4106
  135MOL   C17846006   3.351   1.603   0.548  0.3271 -0.5763 -0.0738
  135MOL   C17946007   3.322   1.517   0.657  0.5760  0.3892 -0.5682
  135MOL   O18046008   3.210   1.429   0.928 -0.3551  0.0116 -0.5436
  135MOL   H18146009   3.321   1.232   0.774 -0.8312 -2.3688 -0.3594
  135MOL   H18246010   3.191   1.217   0.670  0.6903  0.1242 -0.7897
  135MOL   H18346011   3.049   1.375   0.797  1.0184 -2.0339  1.0853
  135MOL   H18446012   2.983   1.508   0.632  0.2430 -1.7841 -1.4561
  135MOL   H18546013   3.030   1.670   0.439 -2.0053  0.7757  1.7267
  135MOL   H18646014   3.274   1.718   0.380  1.7729 -2.0169 -0.0765
  135MOL   H18746015   3.456   1.618   0.529  0.5546 -1.3346  0.5801
  135MOL   H18846016   3.397   1.466   0.717  0.3357 -0.8647 -1.3195
  135MOL   C18946017   3.152   1.539   0.986  0.5892 -0.3679  0.8778
  135MOL   C19046018   3.183   1.551   1.146 -0.1837 -0.3834 -0.5734
  135MOL   C19146019   3.136   1.429   1.222 -0.0265 -0.0948 -0.4351
  135MOL   C19246020   3.225   1.331   1.261  0.0598  0.3285  0.1907
  135MOL   C19346021   3.191   1.229   1.355  0.0945  0.8101 -0.4178
  135MOL   C19446022   3.059   1.215   1.402  0.5682 -0.7000 -0.3499
  135MOL   C19546023   2.965   1.304   1.345 -0.4291  0.3238 -0.4702
  135MOL   C19646024   3.000   1.407   1.254  0.3063 -0.3861 -0.2078
  135MOL   O19746025   3.125   1.678   1.190 -0.2081 -0.4623 -0.3188
  135MOL   H19846026   3.186   1.636   0.950 -0.2409  0.1459  1.4520
  135MOL   H19946027   3.044   1.544   0.970  0.4765  1.0404  2.0071
  135MOL   H20046028   3.290   1.570   1.150 -0.3223  0.5335 -1.1398
  135MOL   H20146029   3.330   1.338   1.239 -0.1998  1.2849 -0.7755
  135MOL   H20246030   3.263   1.155   1.387  1.1955  2.0392 -0.0042
  135MOL   H20346031   3.030   1.130   1.463 -0.4882 -0.0039  0.1245
  135MOL   H20446032   2.862   1.275   1.363 -0.0796  1.0302  3.0155
  135MOL   H20546033   2.931   1.476   1.208  0.0929 -1.0514 -0.8975
  135MOL   C20646034   3.139   1.710   1.335  0.5147 -0.1404 -0.2879
  135MOL   C20746035   3.271   1.776   1.367  0.1673  0.8953 -0.5346
  135MOL   C20846036   3.283   1.908   1.288  0.4703  0.0211  0.0174
  135MOL   C20946037   3.312   1.899   1.148  0.5471  0.1501 -0.6717
  135MOL   C21046038   3.316   2.007   1.071  0.3561  0.5085 -0.0716
  135MOL   C21146039   3.292   2.138   1.125 -0.7888 -0.5909  0.3097
  135MOL   C21246040   3.272   2.150   1.264 -0.0508  0.0979 -0.7256
  135MOL   C21346041   3.266   2.036   1.348 -0.0980  0.7117 -0.3174
  135MOL   O21446042   3.382   1.692   1.342  0.2078 -0.1355  0.2671
  135MOL   H21546043   3.059   1.783   1.348 -0.8618 -2.1449  3.2384
  135MOL   H21646044   3.116   1.632   1.407  1.2855 -1.1607 -1.1271
  135MOL   H21746045   3.270   1.803   1.473  2.1211  2.2399 -0.8227
  135MOL   H21846046   3.335   1.802   1.106  0.7134  0.1536 -0.5913
  135MOL   H21946047   3.345   1.997   0.967 -0.5125 -0.6902 -0.2083
  135MOL   H22046048   3.290   2.230   1.068 -2.5021  0.0485  1.3862
  135MOL   H22146049   3.259   2.243   1.317 -2.4767  1.1680 -3.0767
  135MOL   H22246050   3.238   2.058   1.450 -2.2029  0.9839 -0.9233
  135MOL   C22346051   3.489   1.705   1.435  0.0948  0.3106  0.1643
  135MOL   C22446052   3.618   1.665   1.369  0.6815  0.7332  0.8220
  135MOL   C22546053   3.612   1.520   1.327  0.7194 -0.5870 -0.2948
  135MOL   C22646054   3.573   1.478   1.199 -0.4369 -0.1729  0.3445
  135MOL   C22746055   3.573   1.340   1.164 -0.0627  0.5371  0.0870
  135MOL   C22846056   3.616   1.241   1.253 -0.5183  0.7471  0.3199
  135MOL   C22946057   3.656   1.277   1.386  0.7407  0.5346 -0.2981
  135MOL   C23046058   3.642   1.417   1.420 -0.3824 -0.2346 -0.4784
  135MOL   O23146059   3.648   1.753   1.266  0.4029  0.1809 -0.0846
  135MOL   H23246060   3.510   1.811   1.452  0.0840  0.2424  0.6175
  135MOL   H23346061   3.474   1.649   1.527 -1.1725  1.0310  0.4170
  135MOL   H23446062   3.690   1.670   1.451  1.4346  0.9618  0.1425
  135MOL   H23546063   3.527   1.553   1.137  0.9908  0.8817  0.5263
  135MOL   H23646064   3.531   1.305   1.071 -1.9597 -2.6399  2.0552
  135MOL   H23746065   3.610   1.134   1.242  1.5606  0.3343  2.7605
  135MOL   H23846066   3.679   1.205   1.464 -1.2316  0.2046 -0.0130
  135MOL   H23946067   3.671   1.445   1.520 -2.6645 -1.5769  0.6096
  135MOL   C24046068   3.771   1.755   1.201  0.7282 -0.3794  0.1241
  135MOL   C24146069   3.794   1.899   1.138  0.0454 -0.0051  0.1262
  135MOL   C24246070   3.773   2.007   1.245 -0.0755  0.0446  0.0526
  135MOL   C24346071   3.877   2.045   1.331 -0.2730 -0.5645  0.0386
  135MOL   C24446072   3.857   2.156   1.423 -0.3037  0.5824  0.1267
  135MOL   C24546073   3.729   2.197   1.448 -0.1860  0.2973  0.1133
  135MOL   C24646074   3.619   2.149   1.373 -0.2198 -0.5198 -0.3973
  135MOL   C24746075   3.639   2.053   1.271 -0.7554  0.4823 -0.0198
  135MOL   O24846076   3.930   1.892   1.090 -0.0759 -0.1677  0.2624
  135MOL   H24946077   3.848   1.742   1.277 -0.7559 -1.3173  1.5062
  135MOL   H25046078   3.796   1.678   1.127 -0.5016  0.4799 -1.2059
  135MOL   H25146079   3.723   1.902   1.055  1.2567 -3.3520 -1.1257
  135MOL   H25246080   3.981   2.024   1.312  0.3952  0.9931  1.8293
  135MOL   H25346081   3.946   2.204   1.460 -1.3077  0.5905  2.6165
  135MOL   H25446082   3.711   2.273   1.523  0.1338  0.1758  0.3180
  135MOL   H25546083   3.522   2.192   1.395  0.9801  1.9619  0.1145
  135MOL   H25646084   3.558   2.019   1.209 -1.5655  0.3557  1.0896
  135MOL   C25746085   3.977   1.991   1.004  1.2734  0.1879 -0.0422
  135MOL   C25846086   4.093   1.931   0.923  0.1038 -0.2912 -0.2629
  135MOL   C25946087   4.183   2.041   0.877 -0.2851  0.0132 -0.4851
  135MOL   C26046088   4.309   2.065   0.939  0.8218 -0.1636 -0.7121
  135MOL   C26146089   4.390   2.180   0.912  0.0457  0.5346  0.0676
  135MOL   C26246090   4.345   2.260   0.804 -0.1399 -0.2933  0.3578
  135MOL   C26346091   4.226   2.232   0.732  1.1009  0.8014  0.3779
  135MOL   C26446092   4.140   2.125   0.777 -0.0058  0.2259  0.5114
  135MOL   O26546093   4.029   1.861   0.812  0.5305 -0.1461 -0.3214
  135MOL   H26646094   4.025   2.067   1.065  2.2632  0.1789 -0.7978
  135MOL   H26746095   3.908   2.025   0.926  2.7089 -0.7534 -1.7417
  135MOL   H26846096   4.142   1.859   0.989  1.9936 -0.6760 -2.0270
  135MOL   H26946097   4.347   2.005   1.020  0.5009 -0.7467 -0.9893
  135MOL   H27046098   4.484   2.191   0.965 -0.1180  0.9431  0.2710
  135MOL   H27146099   4.400   2.351   0.782 -1.1253 -0.1194 -1.4445
  135MOL   H27246100   4.207   2.299   0.649  0.4379  0.6405  0.3946
  135MOL   H27346101   4.041   2.118   0.733  0.1161  0.3342  0.2203
  135MOL   C27446102   4.014   1.719   0.836  0.4428  0.2913 -0.5657
  135MOL   C27546103   3.908   1.663   0.731  0.3469  0.3534 -0.8635
  135MOL   C27646104   3.767   1.730   0.745  0.1456 -0.3651 -0.0003
  135MOL   C27746105   3.686   1.697   0.851 -0.1814  0.5135 -0.2354
  135MOL   C27846106   3.564   1.757   0.865 -0.0016 -0.1746  0.0916
  135MOL   C27946107   3.514   1.853   0.775  0.2938 -0.2513 -0.4736
  135MOL   C28046108   3.606   1.896   0.672  0.3160  0.3535  0.1283
  135MOL   C28146109   3.732   1.833   0.654 -0.0923 -0.6585  0.8378
  135MOL   O28246110   3.903   1.524   0.753  0.4991  0.2743  0.0132
  135MOL   H28346111   4.114   1.676   0.830  0.7019  1.0189 -1.6851
  135MOL   H28446112   3.980   1.691   0.936  0.9197  0.1499 -0.4397
  135MOL   H28546113   3.942   1.679   0.628  0.1530  2.5533 -0.6257
  135MOL   H28646114   3.722   1.623   0.921 -3.9211 -1.9224 -0.7236
  135MOL   H28746115   3.502   1.742   0.952  1.0242  3.0387  1.4749
  135MOL   H28846116   3.418   1.901   0.786  0.2336 -0.7961  1.5761
  135MOL   H28946117   3.579   1.972   0.601  0.6295 -0.5934 -1.0100
  135MOL   H29046118   3.808   1.853   0.580  0.5587  0.6828  1.8451
  135MOL   C29146119   3.847   1.445   0.644 -0.5361 -0.0511  0.0609
  135MOL   C29246120   3.853   1.290   0.661  0.1943  0.2235  0.2864
  135MOL   C29346121   3.774   1.214   0.558 -0.1280  0.4317  0.5263
  135MOL   C29446122   3.805   1.206   0.423 -0.9556 -0.2195  0.1915
  135MOL   C29546123   3.720   1.154   0.330  0.4682  0.3886  0.0538
  135MOL   C29646124   3.606   1.089   0.367  0.4392 -0.5269 -0.5087
  135MOL   C29746125   3.569   1.096   0.500 -0.1281  0.1830 -0.9462
  135MOL   C29846126   3.649   1.161   0.593  0.1861 -0.2618 -0.7504
  135MOL   O29946127   3.983   1.241   0.643 -0.7921  0.1083 -0.5779
  135MOL   H30046128   3.909   1.468   0.557 -2.4594  0.0253 -1.3201
  135MOL   H30146129   3.746   1.472   0.615 -1.0669 -2.6663 -0.6768
  135MOL   H30246130   3.815   1.266   0.761  2.3149 -2.0024  0.6102
  135MOL   H30346131   3.904   1.237   0.391 -1.0102  0.3534  0.5665
  135MOL   H30446132   3.753   1.145   0.228  4.4989  1.3405  1.1673
  135MOL   H30546133   3.540   1.036   0.300 -0.5092 -0.4742  0.3681
  135MOL   H30646134   3.473   1.063   0.538 -0.0513 -0.6881 -1.4991
  135MOL   H30746135   3.612   1.172   0.694  0.7740 -1.8374 -0.3446
  135MOL   C30846136   4.087   1.292   0.730  0.4235 -0.2742  1.0019
  135MOL   C30946137   4.204   1.184   0.725  0.2273  0.7432  0.0392
  135MOL   C31046138   4.299   1.200   0.604  0.1099  0.0798 -0.2167
  135MOL   C31146139   4.331   1.091   0.525 -0.9807  0.7770 -1.2347
  135MOL   C31246140   4.415   1.101   0.409  0.5905  0.8530 -0.2298
  135MOL   C31346141   4.448   1.230   0.363 -0.6498 -0.0080  0.0225
  135MOL   C31446142   4.419   1.344   0.435  0.4217  0.3484  0.5264
  135MOL   C31546143   4.348   1.329   0.556 -0.3023 -0.4283  1.2771
  135MOL   O31646144   4.277   1.184   0.845 -0.4957 -0.2557  0.1370
  135MOL   H31746145   4.043   1.290   0.829  0.8310 -2.0664  1.1685
  135MOL   H31846146   4.124   1.391   0.702 -1.3877 -0.0274 -0.6408
  135MOL   H31946147   4.161   1.086   0.704 -0.1460  0.7496  0.7723
  135MOL   H32046148   4.288   0.996   0.553  2.6383 -0.3070  1.1437
  135MOL   H32146149   4.434   1.014   0.348  1.2072  1.2732 -0.6338
  135MOL   H32246150   4.492   1.235   0.264 -0.3789 -0.1426  0.1355
  135MOL   H32346151   4.454   1.443   0.407  0.4313 -0.2155 -1.5851
  135MOL   H32446152   4.347   1.416   0.620 -2.4477  0.9546 -0.5406
  135MOL   C32546153   4.332   1.054   0.875  0.5577 -0.4356  0.4586
  135MOL   C32646154   4.413   1.050   1.005 -0.7839 -0.6961 -0.2685
  135MOL   C32746155   4.418   0.916   1.077 -0.0275  0.1112  0.1391
  135MOL   C32846156   4.538   0.855   1.119 -0.1912  0.3022 -0.3348
  135MOL   C32946157   4.538   0.735   1.186 -0.3664  0.2623  0.5628
  135MOL   C33046158   4.414   0.683   1.225  1.0961  0.0134 -0.1822
  135MOL   C33146159   4.289   0.741   1.191 -0.3820  0.0190  0.4745
  135MOL   C33246160   4.295   0.855   1.112 -0.4313  0.3652  1.2032
  135MOL   O33346161   4.543   1.105   0.980  0.4190  0.3060 -0.1988
  135MOL   H33446162   4.392   0.998   0.803 -1.1629 -1.7598  0.0281
  135MOL   H33546163   4.249   0.983   0.878  0.6841 -0.6322 -0.6879
  135MOL   H33646164   4.378   1.118   1.082 -0.8523 -2.8218  1.6336
  135MOL   H33746165   4.633   0.897   1.090 -0.6815  1.5729 -0.1269
  135MOL   H33846166   4.622   0.677   1.221 -0.1586  1.4088  1.9913
  135MOL   H33946167   4.415   0.593   1.286  1.4856 -1.3150 -2.1075
  135MOL   H34046168   4.191   0.696   1.205 -0.5484  0.6150  1.2167
  135MOL   H34146169   4.202   0.905   1.089 -0.6754 -1.0237 -0.9228
  135MOL   H34246170   4.520   1.171   0.916  1.3742 -0.0326 -0.8898
  136MOL     C146171   3.804   3.211   0.061 -0.3874 -0.2190  0.4586
  136MOL     C246172   3.693   3.116   0.026  0.8045 -0.1395  0.0628
  136MOL     C346173   3.739   2.968   0.033 -0.2706  0.4756  0.4397
  136MOL     C446174   3.785   2.909   7.990 -1.0043 -0.0330  0.0778
  136MOL     C546175   3.838   2.774   7.997 -0.3732  0.1194  0.0325
  136MOL     C646176   3.848   2.710   0.039  0.2143 -0.9293  1.0274
  136MOL     C746177   3.816   2.777   0.151 -0.6231  1.0735  0.7995
  136MOL     C846178   3.758   2.900   0.152 -0.6808  0.1627 -0.1189
  136MOL     O946179   3.653   3.146   7.972  0.7858 -0.5220 -0.2875
  136MOL    H1046180   3.848   3.180   0.156 -0.1285  0.2748  0.5035
  136MOL    H1146181   3.870   3.203   8.055 -1.7510  0.6799 -0.7091
  136MOL    H1246182   3.607   3.123   0.093  1.3198 -2.2040  0.9839
  136MOL    H1346183   3.764   2.958   7.896 -0.6225  2.2676  1.1397
  136MOL    H1446184   3.874   2.730   7.905 -1.0634  1.2756 -0.8135
  136MOL    H1546185   3.891   2.611   0.048  2.0812 -0.1920  0.3892
  136MOL    H1646186   3.828   2.729   0.247 -0.8399 -0.9128 -0.1381
  136MOL    H1746187   3.729   2.935   0.250 -1.8735  0.9450 -0.7375
  136MOL    H1846188   3.763   3.311   0.075  1.4170  0.3042  2.2482
  136MOL    C1946189   3.548   3.233   7.955 -0.0637 -0.4293  0.3257
  136MOL    C2046190   3.556   3.325   7.835  1.1918  0.5613  0.7040
  136MOL    C2146191   3.682   3.412   7.860  0.2451 -0.3978  0.1511
  136MOL    C2246192   3.675   3.545   7.905  0.4103  0.2786  0.4291
  136MOL    C2346193   3.795   3.615   7.913 -0.3737  0.6378  0.4371
  136MOL    C2446194   3.925   3.552   7.885 -0.3224 -0.5620  0.3940
  136MOL    C2546195   3.925   3.421   7.846  0.2996 -0.3538  0.4397
  136MOL    C2646196   3.803   3.352   7.837  0.7214  0.0452  0.7598
  136MOL    O2746197   3.435   3.395   7.813  0.1594  0.0945 -0.1532
  136MOL    H2846198   3.457   3.172   7.953 -1.2641  1.3638 -0.9265
  136MOL    H2946199   3.547   3.309   8.033  0.1969  1.2149 -1.2581
  136MOL    H3046200   3.580   3.260   7.750  4.2295  1.1642  1.0338
  136MOL    H3146201   3.582   3.594   7.932  0.4186  1.5825 -1.8297
  136MOL    H3246202   3.795   3.716   7.952  1.0052  0.9827 -0.4536
  136MOL    H3346203   4.018   3.606   7.884 -0.2033 -0.7822 -0.6655
  136MOL    H3446204   4.018   3.375   7.815  0.3734  1.5201 -2.3023
  136MOL    H3546205   3.807   3.248   7.809 -0.0566 -0.1302  1.2811
  136MOL    C3646206   3.421   3.446   7.681 -0.0650 -0.6280 -0.3978
  136MOL    C3746207   3.301   3.534   7.673  0.1801 -0.7240  0.1297
  136MOL    C3846208   3.306   3.657   7.761  0.1398  0.0789 -0.0804
  136MOL    C3946209   3.315   3.787   7.712 -0.3412  0.1335  0.1700
  136MOL    C4046210   3.341   3.899   7.797  0.5287  0.1360  0.6909
  136MOL    C4146211   3.355   3.872   7.935  0.3335  0.4451 -0.4613
  136MOL    C4246212   3.334   3.744   7.984 -0.2139  0.3267 -0.5890
  136MOL    C4346213   3.307   3.635   7.898 -0.0814 -0.3801  0.0090
  136MOL    O4446214   3.190   3.453   7.709  0.4632  0.2706  0.0306
  136MOL    H4546215   3.506   3.512   7.666  0.4313 -1.3257 -0.7137
  136MOL    H4646216   3.424   3.364   7.608 -0.0782 -2.7168  1.8766
  136MOL    H4746217   3.284   3.565   7.570 -0.2426  0.9869  0.6927
  136MOL    H4846218   3.297   3.816   7.610 -0.2374 -0.0317  0.1065
  136MOL    H4946219   3.357   3.998   7.756 -1.5818 -0.6992 -2.3901
  136MOL    H5046220   3.381   3.950   8.005  0.0393  2.2768 -2.3412
  136MOL    H5146221   3.341   3.726   0.010 -0.8499  0.6795 -0.4806
  136MOL    H5246222   3.293   3.536   7.940  0.5393 -0.9517 -1.1274
  136MOL    C5346223   3.065   3.512   7.722 -0.0795 -0.1096  0.7373
  136MOL    C5446224   2.990   3.549   7.587 -0.0079 -0.5420 -1.0193
  136MOL    C5546225   2.837   3.541   7.594 -0.2015  0.3960  0.7043
  136MOL    C5646226   2.767   3.444   7.519  0.1763  0.3448  0.1423
  136MOL    C5746227   2.628   3.435   7.541 -0.3654 -0.1714 -0.4530
  136MOL    C5846228   2.558   3.508   7.632 -0.4480  0.0830 -0.6662
  136MOL    C5946229   2.633   3.609   7.706  0.3653 -0.3250 -0.1016
  136MOL    C6046230   2.773   3.617   7.693  0.3406 -0.0225 -0.0620
  136MOL    O6146231   3.035   3.682   7.562 -0.4221  0.5194  0.0230
  136MOL    H6246232   2.989   3.452   7.770 -0.5728  1.1577  1.5637
  136MOL    H6346233   3.063   3.604   7.780 -0.0930 -0.5802  1.4824
  136MOL    H6446234   3.011   3.466   7.520 -0.5140 -0.7725 -0.8923
  136MOL    H6546235   2.819   3.367   7.463  0.7089 -0.8649  2.2324
  136MOL    H6646236   2.581   3.349   7.495 -1.6649 -1.0105  2.3369
  136MOL    H6746237   2.457   3.492   7.666  0.1026 -1.5097  0.3294
  136MOL    H6846238   2.587   3.665   7.786  0.3010  1.5314 -1.4113
  136MOL    H6946239   2.817   3.699   7.748  1.1084  1.3758 -2.6588
  136MOL    C7046240   2.967   3.756   7.458  0.2547 -0.4223  0.0874
  136MOL    C7146241   3.028   3.900   7.458  0.1835  0.4589 -0.4083
  136MOL    C7246242   2.940   3.997   7.538  0.0901  0.0350 -0.1949
  136MOL    C7346243   2.991   4.041   7.667  0.3073 -0.0408 -0.1553
  136MOL    C7446244   2.923   4.137   7.742  0.0258  0.6885 -0.0036
  136MOL    C7546245   2.806   4.185   7.692 -0.4400  0.0999  0.0427
  136MOL    C7646246   2.754   4.143   7.566 -0.3458  0.2710 -0.2814
  136MOL    C7746247   2.823   4.047   7.491 -0.1107  0.7469  0.2765
  136MOL    O7846248   3.050   3.939   7.323  0.5241 -0.1942  0.0421
  136MOL    H7946249   2.988   3.708   7.363 -1.8148  0.7851 -1.0177
  136MOL    H8046250   2.858   3.759   7.460  0.2767  0.2559  0.7328
  136MOL    H8146251   3.122   3.880   7.510 -0.5414 -1.8284  0.0803
  136MOL    H8246252   3.066   3.974   7.705  1.0922  1.1789  0.5002
  136MOL    H8346253   2.961   4.163   7.839  0.6621 -2.3387  0.6225
  136MOL    H8446254   2.747   4.254   7.751  0.0968 -0.1418  0.8842
  136MOL    H8546255   2.663   4.183   7.524 -0.5876  1.4124  1.2886
  136MOL    H8646256   2.775   4.009   7.402  0.0805  1.2855 -0.0588
  136MOL    C8746257   3.120   4.061   7.310 -0.6411 -0.6253 -0.0530
  136MOL    C8846258   3.158   4.089   7.165 -0.1005 -0.7242  0.1738
  136MOL    C8946259   3.042   4.090   7.064  0.7924  0.2182  0.8737
  136MOL    C9046260   2.963   4.207   7.045 -0.8679  0.2061  0.6803
  136MOL    C9146261   2.854   4.211   6.959  0.6540  0.3329 -0.1190
  136MOL    C9246262   2.813   4.086   6.902  0.1146 -0.0090  0.3500
  136MOL    C9346263   2.893   3.970   6.912  0.5034  0.1382  1.1935
  136MOL    C9446264   3.014   3.972   6.993  0.5426  0.4449 -0.4379
  136MOL    O9546265   3.265   4.002   7.128 -0.1577 -0.3669 -0.0631
  136MOL    H9646266   3.200   4.069   7.383 -1.6958  0.5256  1.0028
  136MOL    H9746267   3.049   4.138   7.341 -0.9653 -0.5136 -1.0487
  136MOL    H9846268   3.198   4.190   7.166  0.0631 -0.7582 -1.2243
  136MOL    H9946269   3.005   4.292   7.098 -0.8810  1.2345 -0.9191
  136MOL   H10046270   2.784   4.293   6.964  0.7764  0.3982  0.5175
  136MOL   H10146271   2.723   4.078   6.843 -0.1154  2.2348  0.3559
  136MOL   H10246272   2.861   3.887   6.850  2.1141  0.7818 -0.5358
  136MOL   H10346273   3.072   3.883   7.012 -1.1548 -0.2988  1.4757
  136MOL   C10446274   3.342   4.036   7.012  0.0312 -0.6385 -0.0992
  136MOL   C10546275   3.426   3.923   6.962  0.0171 -0.3137  0.7728
  136MOL   C10646276   3.365   3.785   6.980  0.1534 -0.0143  0.0083
  136MOL   C10746277   3.276   3.733   6.885  0.4829  0.5725 -0.4783
  136MOL   C10846278   3.215   3.602   6.894  0.4645 -0.8234  0.2110
  136MOL   C10946279   3.251   3.525   7.008  0.2834 -0.2662  0.4451
  136MOL   C11046280   3.344   3.581   7.102  0.1654 -0.2510  0.4490
  136MOL   C11146281   3.396   3.706   7.093 -0.4775  0.3936 -0.2587
  136MOL   O11246282   3.466   3.949   6.826 -0.2349  1.1246 -0.2633
  136MOL   H11346283   3.278   4.063   6.929  0.2319  1.2616  0.3452
  136MOL   H11446284   3.409   4.122   7.021 -0.5772 -0.3424  1.8641
  136MOL   H11546285   3.508   3.940   7.031  1.7663 -0.1502 -1.3125
  136MOL   H11646286   3.266   3.789   6.793  4.8611  2.2022 -0.0977
  136MOL   H11746287   3.147   3.573   6.816 -0.5416 -0.9294  1.1096
  136MOL   H11846288   3.213   3.428   7.035  0.6352 -0.6651 -0.5092
  136MOL   H11946289   3.372   3.523   7.189 -0.9493 -1.7159 -0.1488
  136MOL   H12046290   3.470   3.741   7.163 -1.6153 -1.4934  1.9283
  136MOL   C12146291   3.579   3.885   6.768 -0.7097 -0.0710 -0.2169
  136MOL   C12246292   3.558   3.881   6.615 -0.5286 -0.1545 -1.0893
  136MOL   C12346293   3.427   3.823   6.569  0.3132 -0.7600  0.6069
  136MOL   C12446294   3.311   3.906   6.543 -0.6046  0.3361 -0.0671
  136MOL   C12546295   3.199   3.849   6.496 -0.7847  0.5103 -0.0370
  136MOL   C12646296   3.180   3.707   6.495 -0.1426 -0.1449 -0.2813
  136MOL   C12746297   3.296   3.626   6.509  0.5910 -0.0801  0.3660
  136MOL   C12846298   3.415   3.681   6.553 -0.8222 -0.0600  0.4356
  136MOL   O12946299   3.579   4.008   6.569  0.4289  0.2693  0.0961
  136MOL   H13046300   3.564   3.784   6.808 -2.9904  0.1505 -0.4168
  136MOL   H13146301   3.673   3.934   6.793 -1.7700  1.4904  0.8308
  136MOL   H13246302   3.635   3.807   6.592  0.0918 -0.3528  1.4809
  136MOL   H13346303   3.310   4.013   6.558  1.4842  0.1219  1.7651
  136MOL   H13446304   3.113   3.908   6.468 -0.8106  0.2187 -0.5780
  136MOL   H13546305   3.089   3.666   6.455 -0.2620 -0.0082 -0.1528
  136MOL   H13646306   3.287   3.522   6.481  1.7308 -0.5013  1.4938
  136MOL   H13746307   3.495   3.611   6.572  1.0346  1.1647 -2.4759
  136MOL   C13846308   3.633   4.016   6.437  0.7036 -0.5290  0.5754
  136MOL   C13946309   3.620   4.157   6.375 -0.3685  0.3826  0.2713
  136MOL   C14046310   3.747   4.238   6.413 -0.3331 -0.0337 -0.3458
  136MOL   C14146311   3.858   4.235   6.327  0.1380  0.7452 -0.8129
  136MOL   C14246312   3.967   4.315   6.360  0.7193  0.0203  0.2560
  136MOL   C14346313   3.962   4.399   6.476 -0.1132 -0.0964 -0.3550
  136MOL   C14446314   3.858   4.393   6.569  0.3535  0.1931 -0.3498
  136MOL   C14546315   3.748   4.309   6.531  0.3130  0.5048 -0.6044
  136MOL   O14646316   3.597   4.151   6.230  0.2372  0.5564  0.2372
  136MOL   H14746317   3.576   3.945   6.377 -2.4083 -0.0869  2.8877
  136MOL   H14846318   3.736   3.981   6.429  0.9728 -0.5741  3.5062
  136MOL   H14946319   3.533   4.203   6.421 -2.9439 -1.7887 -2.2173
  136MOL   H15046320   3.851   4.175   6.237 -0.8783 -1.5142  0.7164
  136MOL   H15146321   4.051   4.317   6.291 -1.2827 -2.1613 -2.3338
  136MOL   H15246322   4.053   4.455   6.485  0.0613 -0.0616 -2.0733
  136MOL   H15346323   3.866   4.453   6.659  1.5064  0.7263 -0.7969
  136MOL   H15446324   3.665   4.312   6.600  0.8004  1.3447 -0.0440
  136MOL   C15546325   3.558   4.284   6.186 -0.2257  0.1431  0.0761
  136MOL   C15646326   3.514   4.295   6.037 -0.1105 -0.5675 -0.1911
  136MOL   C15746327   3.620   4.261   5.932 -0.1205 -0.2470  0.2487
  136MOL   C15846328   3.577   4.212   5.805 -0.0005  0.0095 -0.8358
  136MOL   C15946329   3.668   4.191   5.705  0.2205 -0.4620 -0.3931
  136MOL   C16046330   3.807   4.214   5.722 -0.3662 -0.5609 -0.7765
  136MOL   C16146331   3.846   4.257   5.849 -0.1129 -0.1829 -0.0589
  136MOL   C16246332   3.761   4.282   5.956 -0.2946 -0.1356  0.1997
  136MOL   O16346333   3.383   4.246   6.023 -0.0888 -0.4882 -0.0288
  136MOL   H16446334   3.642   4.349   6.207 -0.4546  0.2852  0.5901
  136MOL   H16546335   3.473   4.323   6.244  0.2850  0.2070  0.7823
  136MOL   H16646336   3.499   4.402   6.023  0.2161 -0.5764 -0.6028
  136MOL   H16746337   3.474   4.208   5.774 -0.4029  1.8067  0.2153
  136MOL   H16846338   3.635   4.161   5.606  0.2024 -1.4235 -0.0965
  136MOL   H16946339   3.877   4.205   5.640 -1.3720  0.1023 -1.7304
  136MOL   H17046340   3.950   4.269   5.872 -0.4467  0.4600  1.1748
  136MOL   H17146341   3.809   4.324   6.042  0.5503  1.2858 -0.9406
  136MOL   C17246342   3.357   4.111   6.056  0.3640  0.6603  0.0528
  136MOL   C17346343   3.212   4.096   6.020 -0.2526 -0.9032  0.2851
  136MOL   C17446344   3.146   3.969   6.059  0.1034  0.3542  0.5351
  136MOL   C17546345   3.033   3.963   6.144 -0.3676 -0.6385  0.0773
  136MOL   C17646346   2.969   3.839   6.169 -0.0667 -0.2369  0.2177
  136MOL   C17746347   3.021   3.722   6.105 -0.3597 -0.1033 -0.7058
  136MOL   C17846348   3.128   3.728   6.014 -0.3805 -0.1551 -0.7074
  136MOL   C17946349   3.190   3.848   5.994  0.2300  0.0108  0.2169
  136MOL   O18046350   3.207   4.116   5.875 -0.2160 -0.6830  0.0098
  136MOL   H18146351   3.420   4.045   5.998 -0.4787 -0.6710  0.6148
  136MOL   H18246352   3.367   4.096   6.164  3.8079 -1.8577 -0.5370
  136MOL   H18346353   3.159   4.180   6.065 -1.1674 -0.3647 -1.7635
  136MOL   H18446354   2.996   4.051   6.193 -1.4839 -0.1428 -1.6146
  136MOL   H18546355   2.892   3.813   6.240 -0.0366 -0.2196  0.2570
  136MOL   H18646356   2.982   3.625   6.131 -1.1132  0.6453  1.1031
  136MOL   H18746357   3.166   3.640   5.965  1.2783  0.0858  0.1154
  136MOL   H18846358   3.278   3.839   5.933  1.1209 -0.4913  1.5633
  136MOL   C18946359   3.080   4.167   5.839  0.1749  0.2866 -0.2690
  136MOL   C19046360   3.062   4.169   5.682 -0.0648 -0.2123 -0.3600
  136MOL   C19146361   2.994   4.297   5.633  0.0303 -0.8415  0.1992
  136MOL   C19246362   3.040   4.372   5.530  0.1698  0.4414  0.2753
  136MOL   C19346363   2.958   4.467   5.468  0.3873  0.3266  0.5656
  136MOL   C19446364   2.834   4.507   5.528 -0.4604 -0.5514 -0.3218
  136MOL   C19546365   2.796   4.433   5.641  1.1731  0.2202  1.0479
  136MOL   C19646366   2.874   4.331   5.694 -0.0844  0.4139 -0.2312
  136MOL   O19746367   2.980   4.063   5.642  0.0086  0.0158  0.1934
  136MOL   H19846368   2.993   4.128   5.892 -0.3627 -0.9912 -2.0515
  136MOL   H19946369   3.089   4.273   5.863 -0.3921  0.4423 -0.7298
  136MOL   H20046370   3.165   4.172   5.646  0.6499  0.0146  1.6616
  136MOL   H20146371   3.126   4.354   5.467 -0.0274  0.6113 -0.0398
  136MOL   H20246372   2.998   4.509   5.377  1.1341 -0.7320  0.3970
  136MOL   H20346373   2.773   4.586   5.489  0.9888  1.2124  0.9111
  136MOL   H20446374   2.713   4.462   5.704  0.5791  0.0811  0.3304
  136MOL   H20546375   2.841   4.271   5.778  0.6518 -0.1123 -0.3149
  136MOL   C20646376   3.046   3.932   5.646  0.6391  0.5245 -0.3473
  136MOL   C20746377   2.957   3.834   5.568  0.4596  0.1350  0.8059
  136MOL   C20846378   3.016   3.691   5.572  0.5023  0.0399  0.0333
  136MOL   C20946379   3.092   3.645   5.462 -0.1356 -0.0745  0.3252
  136MOL   C21046380   3.141   3.515   5.460  0.0632  0.7353 -0.0954
  136MOL   C21146381   3.117   3.432   5.573 -0.0363 -0.0598 -0.8536
  136MOL   C21246382   3.039   3.474   5.681 -0.2955  0.2491 -0.3910
  136MOL   C21346383   2.986   3.605   5.682  0.5476 -0.3863  0.6825
  136MOL   O21446384   2.949   3.886   5.437 -0.2947  0.1978 -0.4207
  136MOL   H21546385   3.145   3.939   5.600 -0.7730  1.3654 -3.3523
  136MOL   H21646386   3.058   3.906   5.752  1.1540  0.4542 -0.4183
  136MOL   H21746387   2.858   3.831   5.613 -0.8357 -0.0390 -1.9516
  136MOL   H21846388   3.102   3.711   5.378  1.1606 -3.2838 -2.1436
  136MOL   H21946389   3.204   3.487   5.377  0.1056  0.9263 -0.1285
  136MOL   H22046390   3.158   3.332   5.571  1.3447  0.5151 -2.2702
  136MOL   H22146391   3.028   3.409   5.767 -1.3337  0.8387 -0.0589
  136MOL   H22246392   2.939   3.650   5.768 -1.8813 -0.5713 -0.5292
  136MOL   C22346393   2.851   3.831   5.347 -0.4174  0.7240  0.0209
  136MOL   C22446394   2.877   3.859   5.207 -0.4484 -0.5493  0.0605
  136MOL   C22546395   2.872   4.009   5.171 -0.4225  0.4213 -0.3300
  136MOL   C22646396   2.984   4.092   5.202 -0.4835  0.0477  0.4105
  136MOL   C22746397   2.978   4.222   5.145  0.2062 -0.7039  0.2967
  136MOL   C22846398   2.865   4.272   5.085  0.4296 -0.0129 -0.2627
  136MOL   C22946399   2.747   4.192   5.070 -0.1941  0.0582 -0.1476
  136MOL   C23046400   2.752   4.058   5.112  0.2619 -0.3007 -0.0081
  136MOL   O23146401   2.994   3.801   5.151 -0.5057 -0.7237 -0.0352
  136MOL   H23246402   2.844   3.724   5.365  0.4263  0.7643  0.5936
  136MOL   H23346403   2.758   3.876   5.381  0.2926  1.2697  1.2689
  136MOL   H23446404   2.795   3.814   5.151  2.6884 -3.6114 -2.2373
  136MOL   H23546405   3.072   4.056   5.254 -1.5434 -1.5364  1.1591
  136MOL   H23646406   3.065   4.285   5.153 -1.0063  0.5810  4.4282
  136MOL   H23746407   2.857   4.374   5.050 -1.5831 -0.0785 -0.0818
  136MOL   H23846408   2.662   4.227   5.013 -1.7602  1.6690  3.0006
  136MOL   H23946409   2.666   3.995   5.103 -0.5106  0.8665 -0.9379
  136MOL   C24046410   2.976   3.680   5.074  0.5425 -0.7239  0.2827
  136MOL   C24146411   3.099   3.629   4.988  0.2223 -0.2321  0.1011
  136MOL   C24246412   3.058   3.493   4.935 -0.4573 -0.2248  0.0497
  136MOL   C24346413   2.995   3.478   4.810  0.0633  0.0476  0.6055
  136MOL   C24446414   2.967   3.351   4.756  1.0190 -0.0189 -0.0825
  136MOL   C24546415   3.013   3.238   4.823  0.3038 -0.1813 -0.1039
  136MOL   C24646416   3.089   3.255   4.939 -0.3093 -0.6759 -0.3804
  136MOL   C24746417   3.107   3.381   4.999 -0.5001 -0.0508  0.4114
  136MOL   O24846418   3.132   3.725   4.892  0.2988  0.0130  0.6256
  136MOL   H24946419   2.949   3.593   5.135 -1.9100  0.4734  0.9430
  136MOL   H25046420   2.886   3.691   5.014 -0.4483 -0.2708  1.8244
  136MOL   H25146421   3.184   3.616   5.056  1.2070 -0.5731 -1.1738
  136MOL   H25246422   2.968   3.561   4.747 -3.1458 -0.8760  0.6519
  136MOL   H25346423   2.929   3.347   4.655  2.4071 -0.9617 -0.5863
  136MOL   H25446424   3.010   3.144   4.770  2.0848 -1.2490  1.5890
  136MOL   H25546425   3.137   3.169   4.983 -0.7598  0.1777  1.8152
  136MOL   H25646426   3.161   3.387   5.092  0.1749  1.8824 -0.0940
  136MOL   C25746427   3.183   3.847   4.930 -0.0480  0.6462  0.5336
  136MOL   C25846428   3.264   3.898   4.824 -0.0755  0.4932 -0.8554
  136MOL   C25946429   3.340   4.025   4.868 -0.0282 -0.7309 -0.2158
  136MOL   C26046430   3.471   4.010   4.904 -0.3801 -0.3300  0.2170
  136MOL   C26146431   3.557   4.124   4.923  0.0201  0.1327  0.4298
  136MOL   C26246432   3.502   4.259   4.923 -0.7259  0.6917 -0.3157
  136MOL   C26346433   3.365   4.272   4.905 -0.2520  0.0081  0.3388
  136MOL   C26446434   3.293   4.158   4.866 -0.3314  0.4267 -0.3864
  136MOL   O26546435   3.175   3.935   4.722 -0.4201 -0.8918 -0.5333
  136MOL   H26646436   3.256   3.841   5.011  0.5006  0.5085  0.0287
  136MOL   H26746437   3.105   3.921   4.947  1.4403  2.3342  0.1779
  136MOL   H26846438   3.330   3.818   4.791 -2.9238 -2.1475 -0.4133
  136MOL   H26946439   3.513   3.911   4.909  0.5840  0.1047  1.3508
  136MOL   H27046440   3.664   4.110   4.932  0.0738  0.6709  0.6389
  136MOL   H27146441   3.568   4.341   4.948  0.3398  0.1955 -1.4628
  136MOL   H27246442   3.310   4.365   4.912 -0.2331  0.2816 -2.4551
  136MOL   H27346443   3.186   4.167   4.862 -0.2475  1.2315 -0.9348
  136MOL   C27446444   3.218   3.906   4.594  0.1044  0.6163 -0.1081
  136MOL   C27546445   3.189   3.765   4.540  0.9262  0.0062 -0.3280
  136MOL   C27646446   3.299   3.722   4.445  0.0967  0.1680  0.0075
  136MOL   C27746447   3.384   3.614   4.471 -0.2958 -0.0739 -0.6962
  136MOL   C27846448   3.477   3.582   4.374  0.3426  0.1039 -0.2090
  136MOL   C27946449   3.499   3.648   4.257 -0.6371 -0.0685 -0.9868
  136MOL   C28046450   3.425   3.764   4.239  0.2816 -0.6520 -0.0697
  136MOL   C28146451   3.324   3.799   4.331  0.3070  0.4201  0.0396
  136MOL   O28246452   3.054   3.735   4.497 -0.5713 -0.4989 -0.4502
  136MOL   H28346453   3.175   3.982   4.529  0.4869 -0.4177 -1.5974
  136MOL   H28446454   3.326   3.914   4.606 -0.0118 -0.1580  1.5868
  136MOL   H28546455   3.195   3.696   4.625 -0.9861  1.8306  1.3433
  136MOL   H28646456   3.362   3.565   4.564  2.8310  1.6056  0.9744
  136MOL   H28746457   3.542   3.497   4.378  0.4986  0.0583 -3.1777
  136MOL   H28846458   3.568   3.613   4.181  2.1589  0.1787  1.3804
  136MOL   H28946459   3.430   3.827   4.151 -1.2167  0.8530  0.9110
  136MOL   H29046460   3.269   3.887   4.301 -2.4095 -0.9974  0.7530
  136MOL   C29146461   2.951   3.793   4.581 -0.0902 -0.0328 -0.2238
  136MOL   C29246462   2.818   3.766   4.511  0.2410  0.1985 -0.3915
  136MOL   C29346463   2.710   3.797   4.611 -0.1915 -0.3021 -0.3244
  136MOL   C29446464   2.698   3.713   4.718  0.0909  0.3295 -0.1225
  136MOL   C29546465   2.604   3.744   4.820 -0.3982 -0.2679  0.0986
  136MOL   C29646466   2.528   3.859   4.812  0.1183 -0.9876  0.5067
  136MOL   C29746467   2.535   3.938   4.696 -0.1429 -0.1685 -0.5787
  136MOL   C29846468   2.629   3.908   4.600 -0.6380  0.2813 -0.0630
  136MOL   O29946469   2.828   3.847   4.402  0.3719 -0.2198 -0.1369
  136MOL   H30046470   2.960   3.901   4.592 -3.3832  0.0737  2.3174
  136MOL   H30146471   2.961   3.763   4.686 -0.1222 -1.5008 -0.6286
  136MOL   H30246472   2.805   3.664   4.475  0.1331 -0.1679  0.6552
  136MOL   H30346473   2.766   3.629   4.726 -0.3225  0.0919  0.9707
  136MOL   H30446474   2.597   3.686   4.911 -0.6155 -0.9117 -0.3235
  136MOL   H30546475   2.451   3.883   4.884  0.0825 -2.4369  0.9636
  136MOL   H30646476   2.475   4.027   4.685  0.2412  0.4687  2.1760
  136MOL   H30746477   2.634   3.980   4.520  1.4166 -1.0478 -1.1779
  136MOL   C30846478   2.750   3.814   4.292 -0.1298  0.3028  0.5429
  136MOL   C30946479   2.752   3.928   4.195  0.3691  0.8592 -0.1505
  136MOL   C31046480   2.686   3.891   4.064 -0.5801 -0.1051  0.1480
  136MOL   C31146481   2.545   3.899   4.044 -0.7631 -0.7168  0.5026
  136MOL   C31246482   2.478   3.865   3.928  0.8841  0.1519 -0.4213
  136MOL   C31346483   2.558   3.812   3.823 -0.4415  0.7164 -0.2874
  136MOL   C31446484   2.696   3.794   3.838 -0.1854  0.3483 -0.6813
  136MOL   C31546485   2.762   3.826   3.961  0.0605  0.7285 -0.2454
  136MOL   O31646486   2.692   4.042   4.251 -0.2435 -0.3561 -0.1756
  136MOL   H31746487   2.643   3.799   4.308 -0.0679 -0.8478 -0.0443
  136MOL   H31846488   2.791   3.728   4.238  1.5544 -0.5141  3.0758
  136MOL   H31946489   2.858   3.945   4.179  0.3055  1.1428 -0.2672
  136MOL   H32046490   2.487   3.948   4.120  0.9428  2.8176 -0.3830
  136MOL   H32146491   2.374   3.885   3.911  0.8701 -0.2472 -0.8199
  136MOL   H32246492   2.516   3.791   3.725  0.6815  1.1964 -0.8852
  136MOL   H32346493   2.742   3.746   3.753 -0.7289  0.7716 -1.2164
  136MOL   H32446494   2.869   3.810   3.959  0.2493  2.0496 -0.5953
  136MOL   C32546495   2.747   4.166   4.207  0.0830 -0.7809 -0.8244
  136MOL   C32646496   2.854   4.225   4.309  0.8967 -0.5247  0.3537
  136MOL   C32746497   2.793   4.260   4.440  0.1578  0.4240 -0.9829
  136MOL   C32846498   2.704   4.365   4.444  0.4865 -0.9768 -0.5817
  136MOL   C32946499   2.643   4.399   4.570  0.1155 -0.1513 -0.2843
  136MOL   C33046500   2.670   4.327   4.688  0.3703 -0.3136 -0.6059
  136MOL   C33146501   2.760   4.219   4.678 -0.0341  1.0373  0.0316
  136MOL   C33246502   2.819   4.187   4.560  0.4597  0.6290  0.2109
  136MOL   O33346503   2.957   4.134   4.317 -0.3722 -0.3054 -0.1425
  136MOL   H33446504   2.673   4.245   4.194 -0.8892 -1.6558 -0.6379
  136MOL   H33546505   2.801   4.168   4.112 -1.1594  1.6094 -1.5276
  136MOL   H33646506   2.899   4.316   4.267 -0.9650 -0.5490 -1.8032
  136MOL   H33746507   2.676   4.420   4.355 -0.3462  0.4067  0.5142
  136MOL   H33846508   2.571   4.480   4.569 -2.4055 -2.2955  0.0141
  136MOL   H33946509   2.635   4.365   4.783  0.9788 -0.7752 -0.1974
  136MOL   H34046510   2.792   4.169   4.768 -0.3332  0.9192  0.0728
  136MOL   H34146511   2.887   4.104   4.559 -0.9404 -0.5315 -0.0572
  136MOL   H34246512   2.909   4.059   4.349 -0.5071  0.7678  2.3571
  137MOL     C146513   2.450   3.224   5.489  0.3975 -0.3998 -0.3919
  137MOL     C246514   2.574   3.166   5.568 -0.0763 -0.0135  0.2978
  137MOL     C346515   2.687   3.196   5.472 -0.0000 -0.2043 -0.1418
  137MOL     C446516   2.737   3.098   5.390  0.0512  0.7045 -0.3831
  137MOL     C546517   2.848   3.126   5.305  0.0866  0.0917 -0.1338
  137MOL     C646518   2.907   3.254   5.296 -0.5714  0.1732  0.8515
  137MOL     C746519   2.849   3.355   5.378 -0.0773 -0.1082 -0.3535
  137MOL     C846520   2.744   3.324   5.466  0.6870 -0.6623 -0.0447
  137MOL     O946521   2.545   3.029   5.583 -0.1239  0.0380 -0.8308
  137MOL    H1046522   2.460   3.332   5.481 -1.4820 -0.1113  0.8049
  137MOL    H1146523   2.431   3.172   5.395 -1.0157 -0.0462 -0.3132
  137MOL    H1246524   2.585   3.217   5.663 -0.3902 -1.0729  0.9069
  137MOL    H1346525   2.683   3.004   5.388 -0.8173  1.2358 -1.7782
  137MOL    H1446526   2.882   3.048   5.239 -1.7042 -0.6897 -0.1655
  137MOL    H1546527   2.988   3.279   5.229 -0.0080 -1.2815  0.9825
  137MOL    H1646528   2.887   3.456   5.373 -4.4863  1.6849 -0.0465
  137MOL    H1746529   2.711   3.413   5.519  0.2490 -1.0776  0.3855
  137MOL    H1846530   2.363   3.203   5.551  0.2797  1.5139  0.1023
  137MOL    C1946531   2.633   2.956   5.662  0.7022 -0.4234 -0.4708
  137MOL    C2046532   2.571   2.817   5.670 -0.4088  0.3803 -0.8856
  137MOL    C2146533   2.557   2.753   5.533  0.1059  0.0636  0.0259
  137MOL    C2246534   2.432   2.752   5.471 -0.4966  0.1838 -0.5791
  137MOL    C2346535   2.415   2.690   5.347 -0.2150 -0.5545 -0.9971
  137MOL    C2446536   2.521   2.610   5.291  0.1540  0.1404  0.2623
  137MOL    C2546537   2.646   2.608   5.355  0.7619 -0.4203  0.3399
  137MOL    C2646538   2.666   2.690   5.473  0.2447  0.7341 -0.2022
  137MOL    O2746539   2.446   2.818   5.745 -0.3302 -0.4319 -0.5434
  137MOL    H2846540   2.725   2.938   5.607  0.9261 -0.5173 -0.0678
  137MOL    H2946541   2.663   2.994   5.760 -1.0011 -2.8163  1.0318
  137MOL    H3046542   2.642   2.759   5.729 -0.1372 -2.6625 -4.0602
  137MOL    H3146543   2.344   2.796   5.516 -1.2635 -1.6026 -0.3091
  137MOL    H3246544   2.318   2.691   5.300 -0.5785  0.1794 -0.2442
  137MOL    H3346545   2.511   2.567   5.192 -0.6661  3.0550 -0.9789
  137MOL    H3446546   2.719   2.550   5.301  0.8852  0.5792 -0.5846
  137MOL    H3546547   2.764   2.687   5.519 -0.4904  1.3454  1.4424
  137MOL    C3646548   2.400   2.686   5.790 -0.6658  0.1579 -0.5020
  137MOL    C3746549   2.274   2.706   5.876 -0.1909 -0.3919 -0.1949
  137MOL    C3846550   2.218   2.575   5.935 -1.0156 -0.1183  0.2234
  137MOL    C3946551   2.103   2.512   5.889 -1.0705  0.4774  1.0622
  137MOL    C4046552   2.064   2.389   5.941  0.2921  0.0001 -0.4688
  137MOL    C4146553   2.135   2.322   6.045  0.1477  0.7243 -1.2667
  137MOL    C4246554   2.241   2.391   6.104 -0.0511 -0.3031 -0.1605
  137MOL    C4346555   2.282   2.518   6.051 -0.0354  0.2076  0.1216
  137MOL    O4446556   2.168   2.768   5.795  0.1321 -0.3854 -0.3374
  137MOL    H4546557   2.367   2.617   5.713  1.5695 -0.7122 -0.7403
  137MOL    H4646558   2.478   2.638   5.850 -1.2399  0.4358  0.4724
  137MOL    H4746559   2.294   2.783   5.951  0.6015  0.2581 -1.0681
  137MOL    H4846560   2.045   2.545   5.805  0.4170  1.2702  0.3121
  137MOL    H4946561   1.979   2.336   5.901  1.8435 -1.6752 -1.6458
  137MOL    H5046562   2.107   2.220   6.069 -0.1166  1.3935  1.4746
  137MOL    H5146563   2.288   2.347   6.191  0.0998 -0.9661 -0.5761
  137MOL    H5246564   2.365   2.565   6.101  0.7903 -1.6419  0.5293
  137MOL    C5346565   2.068   2.849   5.864  0.5607  0.5025 -0.0616
  137MOL    C5446566   1.953   2.920   5.787 -0.4394  0.3082  0.3708
  137MOL    C5546567   1.892   2.815   5.696  0.2020  0.3319  0.5056
  137MOL    C5646568   1.969   2.742   5.605 -0.0608  0.9213  0.2193
  137MOL    C5746569   1.911   2.646   5.515  0.7650 -0.1351  0.2372
  137MOL    C5846570   1.771   2.615   5.517 -0.3730 -0.2536  0.2995
  137MOL    C5946571   1.696   2.691   5.602 -0.2862  0.4180 -1.1344
  137MOL    C6046572   1.751   2.789   5.694 -0.2857 -0.4873 -0.6262
  137MOL    O6146573   1.860   2.978   5.879  0.0781 -0.2840 -0.2292
  137MOL    H6246574   2.018   2.783   5.935  3.9950 -1.6352  0.4832
  137MOL    H6346575   2.119   2.914   5.934  0.0020 -0.9653  1.7670
  137MOL    H6446576   2.001   2.993   5.721  1.0284 -1.0809 -0.1260
  137MOL    H6546577   2.071   2.771   5.588  0.3396  0.6814  2.0730
  137MOL    H6646578   1.982   2.604   5.444 -0.2842 -0.5675 -0.5725
  137MOL    H6746579   1.726   2.540   5.453  2.1268 -0.5299 -1.2195
  137MOL    H6846580   1.592   2.662   5.603 -0.4500  1.0002 -1.1488
  137MOL    H6946581   1.684   2.836   5.764 -2.0126 -0.4916 -2.2453
  137MOL    C7046582   1.900   3.106   5.928  0.1684  0.5886 -0.5769
  137MOL    C7146583   1.805   3.150   6.048  0.0900  1.0367 -0.6877
  137MOL    C7246584   1.812   3.301   6.069 -0.3855  0.0168 -0.4561
  137MOL    C7346585   1.729   3.391   5.997 -0.0086  0.0165 -0.1352
  137MOL    C7446586   1.732   3.525   6.035  0.7137 -0.2418 -0.2255
  137MOL    C7546587   1.833   3.576   6.115  0.1211 -0.2217 -0.2936
  137MOL    C7646588   1.906   3.487   6.195  0.1296 -0.2122  0.6132
  137MOL    C7746589   1.891   3.348   6.170 -0.1700  0.5277  0.2986
  137MOL    O7846590   1.830   3.076   6.169 -0.7291 -0.1133  0.3208
  137MOL    H7946591   2.007   3.111   5.949 -0.3814  0.5278  2.4057
  137MOL    H8046592   1.889   3.170   5.840  2.7024  1.0942 -0.5784
  137MOL    H8146593   1.703   3.119   6.022 -0.6636  2.0601  0.9948
  137MOL    H8246594   1.659   3.346   5.929 -1.3262 -0.3962  1.4564
  137MOL    H8346595   1.663   3.589   5.981  0.2089 -1.5434 -1.1638
  137MOL    H8446596   1.851   3.683   6.116  0.6758 -0.3064  2.0282
  137MOL    H8546597   1.985   3.524   6.258  0.6227  0.0469 -0.1510
  137MOL    H8646598   1.954   3.286   6.232  0.3101  0.5076 -0.2055
  137MOL    C8746599   1.799   2.932   6.160  0.3028  0.2435 -0.1972
  137MOL    C8846600   1.827   2.847   6.289 -0.0553  0.1632  0.0468
  137MOL    C8946601   1.766   2.903   6.421 -0.1009 -0.4921 -0.0410
  137MOL    C9046602   1.637   2.864   6.459  0.0761  0.8775  0.1851
  137MOL    C9146603   1.581   2.905   6.579 -0.5286  0.1795  0.2452
  137MOL    C9246604   1.649   3.000   6.658 -0.1617  0.9159 -0.7432
  137MOL    C9346605   1.785   3.029   6.629 -0.9808  0.3815 -0.4681
  137MOL    C9446606   1.841   2.983   6.515  0.1090  0.6730  0.2664
  137MOL    O9546607   1.968   2.836   6.292  0.3000  0.5661 -0.1686
  137MOL    H9646608   1.857   2.891   6.077 -0.1777 -1.6029  0.3731
  137MOL    H9746609   1.692   2.923   6.142  0.6300  0.6968 -2.4890
  137MOL    H9846610   1.785   2.748   6.274 -0.1926 -0.2037  2.5859
  137MOL    H9946611   1.589   2.799   6.387  0.9707  1.1992 -0.7157
  137MOL   H10046612   1.478   2.883   6.598 -0.4058 -0.1603  0.5049
  137MOL   H10146613   1.609   3.025   6.755 -0.6742  0.1282 -0.7465
  137MOL   H10246614   1.836   3.087   6.704 -2.0311  1.2296 -0.4035
  137MOL   H10346615   1.942   2.999   6.479 -0.5839 -1.2172 -2.7000
  137MOL   C10446616   2.027   2.743   6.383 -0.0029 -0.6849 -0.2810
  137MOL   C10546617   2.151   2.782   6.470 -0.5032  0.7476 -0.3759
  137MOL   C10646618   2.167   2.677   6.582 -0.1327  0.0226 -0.1010
  137MOL   C10746619   2.069   2.661   6.691 -0.8899 -0.8331 -0.1671
  137MOL   C10846620   2.104   2.577   6.794 -0.3572  0.5883 -0.0970
  137MOL   C10946621   2.222   2.493   6.796  0.2701 -1.2679  0.2905
  137MOL   C11046622   2.316   2.510   6.690 -0.1239  0.2405  0.1567
  137MOL   C11146623   2.289   2.599   6.580  0.7179 -0.0466 -0.1785
  137MOL   O11246624   2.270   2.800   6.390  0.0526 -0.4535 -0.1814
  137MOL   H11346625   1.949   2.710   6.451  0.5656 -1.3880  0.0381
  137MOL   H11446626   2.053   2.655   6.324  0.3104  0.1165 -1.3723
  137MOL   H11546627   2.134   2.875   6.525  2.0935  0.0635  1.6848
  137MOL   H11646628   1.975   2.712   6.702 -0.8514 -1.1621  1.8553
  137MOL   H11746629   2.042   2.559   6.881  0.9756  0.4131  0.8223
  137MOL   H11846630   2.229   2.423   6.878 -1.6829 -1.4911  0.3016
  137MOL   H11946631   2.410   2.457   6.683  0.9745  2.0556  0.6249
  137MOL   H12046632   2.350   2.599   6.491 -1.4160  1.3236 -1.6870
  137MOL   C12146633   2.250   2.903   6.298 -0.4108 -0.5197  0.6069
  137MOL   C12246634   2.378   2.971   6.259  0.3981  0.1780 -0.1902
  137MOL   C12346635   2.351   3.070   6.149  0.4474 -0.3421  0.1055
  137MOL   C12446636   2.295   3.199   6.173 -0.2274  0.5787  0.1809
  137MOL   C12546637   2.277   3.285   6.064 -0.8662 -0.0577  0.2872
  137MOL   C12646638   2.339   3.258   5.941 -0.4005  0.3695  0.7094
  137MOL   C12746639   2.390   3.128   5.918  0.7944 -0.2638 -0.8626
  137MOL   C12846640   2.387   3.029   6.019 -0.2045  0.3536 -0.1807
  137MOL   O12946641   2.422   3.028   6.378 -0.3201  0.2561 -0.5438
  137MOL   H13046642   2.180   2.977   6.337 -0.7839 -0.3717 -0.3396
  137MOL   H13146643   2.210   2.860   6.206 -1.9666  1.3118  0.4120
  137MOL   H13246644   2.446   2.894   6.222 -0.7759 -0.7184 -0.5042
  137MOL   H13346645   2.247   3.226   6.266 -0.1521  0.1101  0.3523
  137MOL   H13446646   2.234   3.383   6.082 -1.7552 -0.2856 -0.5372
  137MOL   H13546647   2.342   3.324   5.856 -2.0099 -2.4988 -1.6956
  137MOL   H13646648   2.434   3.105   5.822 -0.7842 -0.1158 -1.6358
  137MOL   H13746649   2.443   2.938   6.007  0.4082  0.7205 -0.1445
  137MOL   C13846650   2.552   3.086   6.360  0.4444 -0.3958 -0.3999
  137MOL   C13946651   2.616   3.144   6.486 -0.2544  0.1327 -0.5374
  137MOL   C14046652   2.761   3.167   6.468 -0.3276  0.0645  0.1989
  137MOL   C14146653   2.799   3.286   6.397 -0.2953  0.0929  0.0832
  137MOL   C14246654   2.941   3.310   6.389 -0.5945 -0.4193 -0.0241
  137MOL   C14346655   3.031   3.212   6.423 -0.4034 -0.2071 -0.1872
  137MOL   C14446656   2.989   3.090   6.478 -0.2558  0.6215 -0.3112
  137MOL   C14546657   2.854   3.074   6.516  0.1561 -0.2031  0.1053
  137MOL   O14646658   2.559   3.262   6.537  0.5972 -0.7618  0.1374
  137MOL   H14746659   2.539   3.164   6.286 -0.7060 -0.9253 -0.7495
  137MOL   H14846660   2.619   3.015   6.313  2.8771  0.6184  1.3660
  137MOL   H14946661   2.612   3.062   6.558  1.9667 -1.1582 -1.8533
  137MOL   H15046662   2.723   3.350   6.356  0.0038 -0.5354 -1.4812
  137MOL   H15146663   2.974   3.404   6.348  0.2134 -0.6143  0.1609
  137MOL   H15246664   3.136   3.220   6.398  0.0737  0.0297  1.8371
  137MOL   H15346665   3.062   3.012   6.493 -3.0777 -2.1157 -0.3961
  137MOL   H15446666   2.823   2.981   6.561 -1.9054  0.2843 -0.2618
  137MOL   C15546667   2.585   3.283   6.678  0.1653 -0.1526  0.2165
  137MOL   C15646668   2.472   3.377   6.731  0.6026  0.0952 -0.3884
  137MOL   C15746669   2.359   3.290   6.768  0.0662 -0.5646 -0.0073
  137MOL   C15846670   2.324   3.267   6.909  0.8260  0.7675  0.4274
  137MOL   C15946671   2.217   3.189   6.945 -0.6339  0.1793 -0.1122
  137MOL   C16046672   2.154   3.112   6.849 -0.3507 -0.0074  0.3810
  137MOL   C16146673   2.178   3.145   6.714  0.3278  0.0549  0.5041
  137MOL   C16246674   2.278   3.233   6.671  0.2010 -0.7078  0.1862
  137MOL   O16346675   2.529   3.442   6.845 -0.1086  0.2269 -0.0699
  137MOL   H16446676   2.675   3.344   6.691 -0.8891  1.7574 -1.1863
  137MOL   H16546677   2.575   3.193   6.740 -2.1428  1.4839  2.3559
  137MOL   H16646678   2.439   3.443   6.651  0.7474  2.0862  1.1554
  137MOL   H16746679   2.381   3.322   6.983 -1.1977 -0.8235  3.2771
  137MOL   H16846680   2.194   3.176   7.050 -3.1710 -2.3545 -0.9120
  137MOL   H16946681   2.078   3.040   6.876 -0.6897  0.8575  1.8211
  137MOL   H17046682   2.115   3.116   6.631  2.0420 -0.9456 -0.4564
  137MOL   H17146683   2.298   3.243   6.565  0.3145  0.1044  0.2753
  137MOL   C17246684   2.485   3.571   6.877 -0.4316  0.4187 -0.4431
  137MOL   C17346685   2.533   3.608   7.019 -0.4756 -0.0780 -0.4951
  137MOL   C17446686   2.654   3.526   7.061  0.3995  0.0876 -0.2061
  137MOL   C17546687   2.784   3.584   7.045 -0.1325  0.1449 -0.2294
  137MOL   C17646688   2.903   3.521   7.102 -0.3371  0.6381 -0.0030
  137MOL   C17746689   2.889   3.403   7.168 -0.0125  0.0536 -0.1474
  137MOL   C17846690   2.760   3.348   7.183  0.6146  0.5401  0.1021
  137MOL   C17946691   2.645   3.399   7.122  0.4910  0.1215 -0.1765
  137MOL   O18046692   2.435   3.605   7.120 -0.3140  0.2918 -0.2822
  137MOL   H18146693   2.533   3.638   6.806  0.9927  0.7532  0.7998
  137MOL   H18246694   2.378   3.586   6.867 -0.1946  0.1092 -3.7605
  137MOL   H18346695   2.571   3.710   7.021  3.6975 -1.5475  0.2998
  137MOL   H18446696   2.793   3.681   6.998 -0.6350 -0.3335 -1.3428
  137MOL   H18546697   2.998   3.565   7.073  0.8765  0.6770  3.7328
  137MOL   H18646698   2.974   3.358   7.218 -1.6350 -1.5539  1.2107
  137MOL   H18746699   2.747   3.255   7.236  0.0529  0.8730  0.5551
  137MOL   H18846700   2.558   3.336   7.121 -0.6262  1.4969  2.5239
  137MOL   C18946701   2.467   3.673   7.238  0.1753 -0.1318 -0.3177
  137MOL   C19046702   2.335   3.682   7.319 -0.2785 -0.7652  0.5434
  137MOL   C19146703   2.347   3.801   7.412  0.6902 -0.4095  0.2199
  137MOL   C19246704   2.374   3.784   7.549 -0.1380 -0.2895 -0.2680
  137MOL   C19346705   2.384   3.902   7.631 -0.1051 -0.1245  0.2311
  137MOL   C19446706   2.362   4.034   7.587 -0.2410 -0.8551  0.7299
  137MOL   C19546707   2.334   4.047   7.451 -0.2083 -0.5369 -0.2622
  137MOL   C19646708   2.318   3.933   7.369  0.4595  0.8610 -0.0431
  137MOL   O19746709   2.305   3.564   7.399  0.2204  0.0526  0.8610
  137MOL   H19846710   2.547   3.621   7.290 -1.8744 -3.1049 -0.0277
  137MOL   H19946711   2.500   3.774   7.213  1.4955 -0.7911 -1.3497
  137MOL   H20046712   2.248   3.710   7.260 -0.7385 -3.0465  0.0968
  137MOL   H20146713   2.398   3.685   7.586 -2.1505 -1.3716 -1.7283
  137MOL   H20246714   2.397   3.892   7.738  0.5811  0.1926  0.1826
  137MOL   H20346715   2.364   4.119   7.653 -0.0753 -0.5302  0.3041
  137MOL   H20446716   2.316   4.144   7.407  0.1556 -0.0933  0.5435
  137MOL   H20546717   2.287   3.944   7.266 -0.5673 -2.8611 -0.1836
  137MOL   C20646718   2.293   3.447   7.317 -0.0117 -0.1083 -0.5590
  137MOL   C20746719   2.261   3.331   7.409 -0.0673 -0.2409  0.0610
  137MOL   C20846720   2.313   3.202   7.342  1.0173  0.3557  0.5844
  137MOL   C20946721   2.224   3.092   7.325 -0.2069 -0.2914  0.4858
  137MOL   C21046722   2.271   2.974   7.263 -0.0467  1.1199  0.4073
  137MOL   C21146723   2.401   2.965   7.218  0.1869 -0.4381  0.5204
  137MOL   C21246724   2.491   3.068   7.241  0.2885 -0.1458  0.4084
  137MOL   C21346725   2.447   3.186   7.298  0.1706 -0.4074  0.0472
  137MOL   O21446726   2.123   3.327   7.437 -0.7099  0.8585  0.0164
  137MOL   H21546727   2.217   3.475   7.244  1.2057 -0.8239 -2.1368
  137MOL   H21646728   2.390   3.431   7.269 -0.5542 -3.7999 -0.5983
  137MOL   H21746729   2.327   3.347   7.493 -0.8035 -1.5816  0.9136
  137MOL   H21846730   2.128   3.099   7.374 -0.4104  0.4784 -0.0123
  137MOL   H21946731   2.209   2.886   7.251 -0.0866  1.3275 -1.0591
  137MOL   H22046732   2.442   2.870   7.185  2.0394 -0.3851  2.5629
  137MOL   H22146733   2.596   3.078   7.216  0.3295  3.0757  1.5729
  137MOL   H22246734   2.528   3.258   7.302 -0.4480  0.4237 -1.8818
  137MOL   C22346735   2.079   3.427   7.526  0.0148  0.5367 -0.6193
  137MOL   C22446736   1.946   3.493   7.470  0.2323 -1.0547  0.1404
  137MOL   C22546737   1.824   3.396   7.470 -0.0928  0.2659 -0.6982
  137MOL   C22646738   1.793   3.315   7.359  0.3863 -0.1624  0.0221
  137MOL   C22746739   1.688   3.220   7.366 -0.1066 -0.2208 -0.3158
  137MOL   C22846740   1.607   3.203   7.486 -0.2700 -0.0204 -0.2499
  137MOL   C22946741   1.624   3.299   7.588 -0.3706  0.6236 -0.3117
  137MOL   C23046742   1.731   3.392   7.579  0.6015  0.3257  0.1880
  137MOL   O23146743   1.917   3.621   7.531 -0.3301 -0.2576  0.4059
  137MOL   H23246744   2.057   3.399   7.629  1.2648 -0.3828 -0.5930
  137MOL   H23346745   2.156   3.503   7.539  1.1914 -0.5821 -0.9650
  137MOL   H23446746   1.959   3.494   7.362 -0.6179 -0.9635  0.0322
  137MOL   H23546747   1.851   3.310   7.268  1.7905  0.4746  0.8529
  137MOL   H23646748   1.661   3.154   7.285 -0.2000  1.8455 -1.9896
  137MOL   H23746749   1.547   3.114   7.498  0.2839 -0.4530 -0.6831
  137MOL   H23846750   1.560   3.298   7.674  1.7101 -0.9183  1.2741
  137MOL   H23946751   1.745   3.470   7.653  0.3500  1.0091 -0.4666
  137MOL   C24046752   1.995   3.727   7.473 -0.2666 -0.4298  0.8430
  137MOL   C24146753   1.918   3.863   7.478 -0.3594 -0.2416  1.3337
  137MOL   C24246754   1.913   3.909   7.621  0.5762 -0.1808  0.0126
  137MOL   C24346755   2.021   3.972   7.677 -0.1167 -0.5112  0.2348
  137MOL   C24446756   2.027   3.995   7.818  0.0809 -0.1226 -0.9218
  137MOL   C24546757   1.916   3.964   7.904  1.1395  0.8357  0.6557
  137MOL   C24646758   1.801   3.909   7.840  0.4582 -0.2075 -0.5291
  137MOL   C24746759   1.804   3.874   7.706  0.1847 -0.1833  0.6761
  137MOL   O24846760   1.988   3.955   7.394  0.5822 -0.7894  0.1073
  137MOL   H24946761   2.091   3.731   7.525  0.4976  1.7782 -0.6216
  137MOL   H25046762   2.003   3.713   7.365 -0.3110 -1.2752  0.9512
  137MOL   H25146763   1.822   3.843   7.431  0.5541 -0.7992 -0.3416
  137MOL   H25246764   2.096   4.004   7.605  1.1064 -2.5083  0.5810
  137MOL   H25346765   2.113   4.043   7.861 -1.1672 -0.2434  1.7865
  137MOL   H25446766   1.916   3.990   8.008 -1.2354  0.1068  0.8679
  137MOL   H25546767   1.710   3.887   7.894  1.3533 -1.4307  0.5457
  137MOL   H25646768   1.717   3.827   7.661  0.1525 -1.5059  2.0843
  137MOL   C25746769   1.935   4.089   7.373 -0.2147 -0.4880 -0.7635
  137MOL   C25846770   2.013   4.157   7.262 -0.7078 -0.4720  0.1592
  137MOL   C25946771   2.003   4.307   7.250  0.0854 -0.5530  0.2599
  137MOL   C26046772   2.111   4.389   7.286 -0.4949  0.5310  0.0743
  137MOL   C26146773   2.112   4.525   7.262  0.5494  0.5488 -0.2457
  137MOL   C26246774   2.001   4.581   7.193 -0.4179  0.2847  0.5378
  137MOL   C26346775   1.892   4.502   7.156  0.4235  0.5577  0.1303
  137MOL   C26446776   1.891   4.366   7.195 -0.2648 -0.3216  0.2598
  137MOL   O26546777   1.976   4.097   7.139  0.0373  0.1461  0.2080
  137MOL   H26646778   1.949   4.150   7.462 -0.4578  1.2272 -1.8717
  137MOL   H26746779   1.828   4.093   7.351 -0.5898  1.2050  1.1834
  137MOL   H26846780   2.116   4.128   7.283 -0.2544 -0.8906 -2.4143
  137MOL   H26946781   2.200   4.347   7.330  0.1924  0.1235 -1.6716
  137MOL   H27046782   2.203   4.577   7.285  1.1952 -0.8971  0.5573
  137MOL   H27146783   1.991   4.687   7.172  0.1585 -0.1865 -2.3196
  137MOL   H27246784   1.809   4.542   7.100  1.1836 -0.1518 -1.5339
  137MOL   H27346785   1.816   4.300   7.153 -0.9506 -0.3223  1.4746
  137MOL   C27446786   2.080   4.088   7.043 -0.0406 -0.5391  0.0760
  137MOL   C27546787   2.041   3.979   6.940  0.0422 -0.6900 -0.2366
  137MOL   C27646788   2.003   3.846   7.007  0.0940  0.1474  0.6741
  137MOL   C27746789   1.873   3.835   7.046 -0.1735 -0.1050  0.9253
  137MOL   C27846790   1.823   3.712   7.087 -0.4318  0.1708 -0.5324
  137MOL   C27946791   1.905   3.601   7.088 -1.2444 -0.7306 -0.1436
  137MOL   C28046792   2.042   3.611   7.056  0.1757  0.0469  0.7152
  137MOL   C28146793   2.088   3.733   7.010  0.5559 -0.2986  0.1969
  137MOL   O28246794   2.154   3.973   6.849 -0.3070 -0.2321 -0.0016
  137MOL   H28346795   2.087   4.187   6.998 -0.6289 -0.6727 -0.3273
  137MOL   H28446796   2.172   4.059   7.094  0.6895  1.7409  0.1027
  137MOL   H28546797   1.956   4.021   6.886 -0.8787 -0.0494  1.6604
  137MOL   H28646798   1.814   3.925   7.035 -1.2739 -0.7815  1.1985
  137MOL   H28746799   1.717   3.706   7.102 -0.3348  1.0706  0.5384
  137MOL   H28846800   1.867   3.511   7.136 -0.3293 -0.9701  0.1318
  137MOL   H28946801   2.101   3.520   7.052 -1.9583 -1.4079  1.5971
  137MOL   H29046802   2.188   3.761   6.980  0.3379 -1.2482 -1.4962
  137MOL   C29146803   2.132   3.919   6.718  0.7749 -0.4301 -0.9790
  137MOL   C29246804   2.273   3.903   6.648 -0.1169  0.2702  0.2016
  137MOL   C29346805   2.251   3.811   6.532  0.8342  0.1034  0.0875
  137MOL   C29446806   2.201   3.843   6.408 -0.0981  0.2267  0.0612
  137MOL   C29546807   2.181   3.742   6.312 -0.0836 -0.5143 -0.3103
  137MOL   C29646808   2.203   3.605   6.338 -0.0952  0.5248  0.4195
  137MOL   C29746809   2.252   3.578   6.464 -0.4196 -0.1036 -0.4932
  137MOL   C29846810   2.270   3.678   6.562  0.0504 -0.1720 -0.3216
  137MOL   O29946811   2.326   4.023   6.590 -0.8983  0.1445 -0.9868
  137MOL   H30046812   2.052   3.966   6.661  1.4929  2.0624  0.0013
  137MOL   H30146813   2.093   3.818   6.729  1.2879 -0.4559  0.6120
  137MOL   H30246814   2.352   3.876   6.718  1.3296  0.7334 -1.2169
  137MOL   H30346815   2.191   3.947   6.381 -0.2107 -0.3868 -2.3772
  137MOL   H30446816   2.135   3.776   6.220  0.5049 -1.1870 -0.8618
  137MOL   H30546817   2.196   3.526   6.265  3.0072 -1.5392  2.2181
  137MOL   H30646818   2.262   3.472   6.484 -1.4577  0.0684  1.0464
  137MOL   H30746819   2.328   3.654   6.650 -2.4805 -1.7613  0.9761
  137MOL   C30846820   2.351   4.130   6.674 -0.2170 -0.1396  0.2081
  137MOL   C30946821   2.438   4.220   6.589 -0.2467 -0.3366 -0.2343
  137MOL   C31046822   2.453   4.356   6.644  0.0186  0.5245  0.0148
  137MOL   C31146823   2.526   4.371   6.769 -0.1846 -0.1871 -0.0462
  137MOL   C31246824   2.536   4.503   6.821 -0.6449 -0.1033 -0.4603
  137MOL   C31346825   2.483   4.616   6.750 -0.8411  0.1709  0.5213
  137MOL   C31446826   2.410   4.596   6.629  0.0157  0.0126 -0.4044
  137MOL   C31546827   2.398   4.469   6.580  0.1591  0.0240  0.2979
  137MOL   O31646828   2.570   4.166   6.577 -0.1346  0.1319 -0.1032
  137MOL   H31746829   2.412   4.098   6.759  1.5269  1.3177 -0.4537
  137MOL   H31846830   2.261   4.188   6.691  0.7235  1.2614  0.4241
  137MOL   H31946831   2.397   4.231   6.489 -1.1217  1.9137  0.3366
  137MOL   H32046832   2.561   4.286   6.825 -0.1870  1.7626  2.9882
  137MOL   H32146833   2.592   4.523   6.911  0.0799 -2.4319 -0.3538
  137MOL   H32246834   2.506   4.716   6.785  1.9725 -0.3702  0.3172
  137MOL   H32346835   2.369   4.684   6.582  0.1666  0.2554 -0.0851
  137MOL   H32446836   2.350   4.460   6.483  0.3000 -0.6596  0.2936
  137MOL   C32546837   2.619   4.151   6.445 -0.0279  0.2446  0.1363
  137MOL   C32646838   2.591   4.021   6.370 -0.2138  0.3782  0.0879
  137MOL   C32746839   2.641   3.889   6.442  1.0350 -0.6628 -0.3998
  137MOL   C32846840   2.751   3.886   6.530  0.0994 -0.0091 -0.0097
  137MOL   C32946841   2.799   3.760   6.588  0.0675 -0.1426 -0.3345
  137MOL   C33046842   2.736   3.640   6.553  0.2957  0.5379  0.1008
  137MOL   C33146843   2.616   3.648   6.474 -0.1829  0.2245 -0.0916
  137MOL   C33246844   2.568   3.766   6.416  0.3248  0.4411  0.5396
  137MOL   O33346845   2.457   4.012   6.325 -0.3153  0.1985  0.3343
  137MOL   H33446846   2.727   4.158   6.461 -0.3418 -0.4213  2.8264
  137MOL   H33546847   2.581   4.235   6.387 -1.1761  0.6494  1.4465
  137MOL   H33646848   2.656   4.031   6.283  0.0217 -2.0668 -0.0561
  137MOL   H33746849   2.815   3.969   6.554  2.6490 -2.4624  2.0020
  137MOL   H33846850   2.888   3.766   6.649 -0.0906 -0.0432 -0.1158
  137MOL   H33946851   2.771   3.545   6.591  3.1573  0.8781 -1.5028
  137MOL   H34046852   2.574   3.553   6.443  0.3708  0.1326 -0.5595
  137MOL   H34146853   2.490   3.779   6.343  0.8892  1.1302  0.0441
  137MOL   H34246854   2.412   3.977   6.400 -1.1194 -0.0390 -0.2504
  138MOL     C146855   0.898   5.883   0.202  0.0470 -0.5950 -0.1561
  138MOL     C246856   0.787   5.889   0.311  0.2499 -0.1597 -0.7711
  138MOL     C346857   0.659   5.918   0.245  0.5810 -0.2834 -0.2205
  138MOL     C446858   0.594   5.810   0.175  0.2243  0.4746  0.7818
  138MOL     C546859   0.475   5.840   0.100  0.8236  0.0262  0.5357
  138MOL     C646860   0.426   5.971   0.093 -0.4377 -0.1493  0.9433
  138MOL     C746861   0.489   6.074   0.169  0.2299  0.4169  0.7985
  138MOL     C846862   0.605   6.048   0.250  0.1028  0.6727  0.4225
  138MOL     O946863   0.821   5.980   0.412  0.4020  0.0577  0.1111
  138MOL    H1046864   0.909   5.985   0.166 -1.0704  0.8950  3.4401
  138MOL    H1146865   0.989   5.838   0.242  0.0534 -1.5719 -1.2566
  138MOL    H1246866   0.780   5.788   0.353  2.8260  0.2148  0.6795
  138MOL    H1346867   0.641   5.713   0.177  0.0314  0.3541 -0.1913
  138MOL    H1446868   0.415   5.761   0.057 -1.1417  2.5464 -1.5448
  138MOL    H1546869   0.335   6.000   0.042 -0.0179  2.1533  1.4525
  138MOL    H1646870   0.440   6.171   0.159  0.0589  0.3227  0.7111
  138MOL    H1746871   0.643   6.126   0.314 -1.0326  0.7162  1.0686
  138MOL    H1846872   0.878   5.827   0.111 -3.3160  0.3572 -0.0701
  138MOL    C1946873   0.737   5.981   0.532  0.9694  0.3480  0.1030
  138MOL    C2046874   0.796   6.080   0.635 -0.2647  0.5578  0.3232
  138MOL    C2146875   0.918   6.015   0.704  0.0680  0.0965  0.5958
  138MOL    C2246876   1.044   6.078   0.694 -0.1565  0.1886  0.0039
  138MOL    C2346877   1.155   6.021   0.752 -0.4457 -0.1155 -0.4853
  138MOL    C2446878   1.145   5.911   0.835 -1.5957 -0.1043 -0.4199
  138MOL    C2546879   1.017   5.852   0.850  0.0069 -0.2004 -0.2396
  138MOL    C2646880   0.900   5.901   0.786  0.1136 -0.2809  0.0948
  138MOL    O2746881   0.706   6.137   0.731 -0.1803  0.1618 -0.1032
  138MOL    H2846882   0.640   6.026   0.509  1.2402  1.3906  0.9792
  138MOL    H2946883   0.720   5.884   0.579  1.9855  0.4158  0.6264
  138MOL    H3046884   0.838   6.162   0.577 -1.4662  0.6480 -0.4323
  138MOL    H3146885   1.056   6.167   0.634 -0.1668 -0.7067 -1.3607
  138MOL    H3246886   1.246   6.079   0.745 -2.3049  3.0120  0.2784
  138MOL    H3346887   1.234   5.870   0.880 -2.7350 -1.4375  0.6577
  138MOL    H3446888   1.023   5.765   0.915 -0.5406  1.6025  2.2797
  138MOL    H3546889   0.805   5.850   0.792 -1.0654  1.6129 -1.5818
  138MOL    C3646890   0.733   6.272   0.765 -0.0363  0.2132 -0.8089
  138MOL    C3746891   0.673   6.317   0.897  0.2345  0.3926 -0.4956
  138MOL    C3846892   0.631   6.462   0.907 -0.2366  0.0882 -0.8198
  138MOL    C3946893   0.514   6.486   0.979  0.2752 -0.4555  0.4634
  138MOL    C4046894   0.465   6.618   1.006  0.6040 -0.1530 -0.4836
  138MOL    C4146895   0.528   6.726   0.943  0.2473  0.3042  0.1535
  138MOL    C4246896   0.652   6.701   0.868 -0.5548 -0.2628  0.7607
  138MOL    C4346897   0.700   6.570   0.853  0.2259  0.3256  0.6881
  138MOL    O4446898   0.764   6.292   1.007  0.4212 -0.3383  0.2034
  138MOL    H4546899   0.838   6.301   0.770  0.6251 -2.1446 -0.1262
  138MOL    H4646900   0.688   6.335   0.689 -1.9371 -0.1145  0.0138
  138MOL    H4746901   0.582   6.256   0.902 -0.3834  1.4443  2.0451
  138MOL    H4846902   0.453   6.399   1.002  1.1279 -1.6305 -1.6040
  138MOL    H4946903   0.369   6.633   1.051 -0.2207 -3.6290 -0.9795
  138MOL    H5046904   0.483   6.822   0.963 -2.4834 -0.7417 -0.6769
  138MOL    H5146905   0.711   6.786   0.838 -0.2173 -1.1429 -1.2039
  138MOL    H5246906   0.794   6.547   0.805  0.3819 -0.4631  1.3504
  138MOL    C5346907   0.803   6.158   1.040  0.1271 -0.4064  0.2726
  138MOL    C5446908   0.702   6.081   1.128  0.1782 -0.5757 -0.3301
  138MOL    C5546909   0.750   5.938   1.137  0.2942 -0.5428  0.5858
  138MOL    C5646910   0.837   5.893   1.239  1.1003  0.4741 -0.1654
  138MOL    C5746911   0.870   5.762   1.257  0.1009  0.7743 -0.1959
  138MOL    C5846912   0.829   5.668   1.164  0.2337  0.2012 -0.2439
  138MOL    C5946913   0.738   5.703   1.062 -0.2724 -0.0718  0.1953
  138MOL    C6046914   0.708   5.842   1.045  0.4737 -0.3018 -0.6625
  138MOL    O6146915   0.674   6.129   1.257  0.2817 -0.2051 -0.4075
  138MOL    H6246916   0.846   6.119   0.948  0.7037  0.8347  0.0073
  138MOL    H6346917   0.893   6.174   1.101  0.5310  0.7244 -0.5984
  138MOL    H6446918   0.608   6.083   1.071  0.0318  1.2596 -0.0524
  138MOL    H6546919   0.881   5.963   1.309  3.3936  0.4105 -1.5163
  138MOL    H6646920   0.947   5.733   1.327  0.7634 -1.4635 -1.7637
  138MOL    H6746921   0.856   5.564   1.172  0.6526  0.2294 -1.2033
  138MOL    H6846922   0.697   5.642   0.983 -1.6771  3.1748 -1.6994
  138MOL    H6946923   0.635   5.871   0.970 -0.2537 -0.5922 -0.0786
  138MOL    C7046924   0.608   6.252   1.264 -0.3584 -0.0351  0.3947
  138MOL    C7146925   0.527   6.267   1.398 -0.3840 -0.2348 -0.0812
  138MOL    C7246926   0.426   6.151   1.415  0.3086 -0.0390  0.3412
  138MOL    C7346927   0.458   6.042   1.499 -0.5316 -0.5000 -0.0542
  138MOL    C7446928   0.357   5.943   1.518  0.0170  0.2460  0.3587
  138MOL    C7546929   0.231   5.952   1.459 -0.2466  0.0569 -0.1064
  138MOL    C7646930   0.201   6.062   1.371 -0.4371 -0.5535  0.0642
  138MOL    C7746931   0.303   6.157   1.343 -0.4879 -0.3046 -0.1618
  138MOL    O7846932   0.451   6.395   1.388 -0.0286  0.3340 -0.6839
  138MOL    H7946933   0.681   6.333   1.263 -0.2504 -0.1335  0.3643
  138MOL    H8046934   0.544   6.276   1.179 -0.2272 -0.4487  0.1767
  138MOL    H8146935   0.597   6.262   1.482  0.8760  0.2823 -1.0941
  138MOL    H8246936   0.550   6.037   1.555 -1.4299  1.0228  1.5779
  138MOL    H8346937   0.384   5.863   1.585 -0.8435 -1.0910 -0.8789
  138MOL    H8446938   0.158   5.879   1.490 -0.8366 -0.1060 -1.8100
  138MOL    H8546939   0.105   6.071   1.321 -1.0154 -2.4086  0.7969
  138MOL    H8646940   0.298   6.231   1.265 -0.8372 -1.8741 -1.6573
  138MOL    C8746941   0.502   6.505   1.469 -0.3180 -0.0687 -0.1821
  138MOL    C8846942   0.481   6.480   1.619  0.2323  0.4907  0.1740
  138MOL    C8946943   0.473   6.615   1.689 -0.0139  0.4269 -0.8799
  138MOL    C9046944   0.376   6.642   1.784  0.0947 -0.1669  0.0151
  138MOL    C9146945   0.365   6.769   1.843 -0.5968  0.7679  0.7284
  138MOL    C9246946   0.446   6.872   1.800 -0.3107 -0.0337  0.1753
  138MOL    C9346947   0.553   6.846   1.710  0.0736 -0.4867  0.1610
  138MOL    C9446948   0.568   6.718   1.659  0.3073 -0.2082  0.0101
  138MOL    O9546949   0.594   6.412   1.664  0.2052  0.2264  0.4041
  138MOL    H9646950   0.435   6.590   1.453 -0.6723  0.1013  2.0539
  138MOL    H9746951   0.606   6.530   1.449  0.0102 -1.4542 -0.2139
  138MOL    H9846952   0.384   6.431   1.625 -0.1104  1.2886  1.5660
  138MOL    H9946953   0.308   6.566   1.822 -0.2703 -0.6797 -1.6266
  138MOL   H10046954   0.284   6.784   1.913 -1.2444 -3.2240  0.8992
  138MOL   H10146955   0.423   6.967   1.847  2.1137  1.0942 -0.8295
  138MOL   H10246956   0.621   6.928   1.698  0.4457 -0.6490  1.1745
  138MOL   H10346957   0.660   6.696   1.606  0.3563 -1.3205  0.5305
  138MOL   C10446958   0.571   6.331   1.781  0.0437  0.7082  0.4706
  138MOL   C10546959   0.674   6.219   1.806 -0.3132  0.1903 -0.3518
  138MOL   C10646960   0.800   6.277   1.854  0.2494  0.2768 -0.8535
  138MOL   C10746961   0.893   6.337   1.768  0.1201  1.2100 -0.0245
  138MOL   C10846962   1.018   6.383   1.814 -0.1368 -0.1430 -0.0865
  138MOL   C10946963   1.044   6.398   1.946 -0.6320  0.2693 -1.0638
  138MOL   C11046964   0.955   6.340   2.038 -0.6862 -0.1089 -0.2105
  138MOL   C11146965   0.840   6.274   1.993  0.5447  0.0846  0.6890
  138MOL   O11246966   0.610   6.131   1.905 -0.7472 -0.6520  0.9646
  138MOL   H11346967   0.561   6.385   1.875 -0.0921  0.0251  0.8572
  138MOL   H11446968   0.477   6.277   1.769 -0.6101  1.9854 -0.2062
  138MOL   H11546969   0.694   6.165   1.713  2.2996 -0.2124  0.4169
  138MOL   H11646970   0.882   6.342   1.661 -0.8795  1.0591  0.0706
  138MOL   H11746971   1.091   6.433   1.752 -0.5301  1.7974  0.9900
  138MOL   H11846972   1.125   6.457   1.986 -0.5473 -0.5686  0.0237
  138MOL   H11946973   0.976   6.341   2.144 -0.7394 -2.4450 -0.1487
  138MOL   H12046974   0.772   6.223   2.060 -0.5219  1.1011  0.3892
  138MOL   C12146975   0.662   6.000   1.898 -0.1689 -0.1147  0.8959
  138MOL   C12246976   0.585   5.908   1.996 -0.1029 -0.1680  0.2806
  138MOL   C12346977   0.592   5.968   2.133 -0.0656 -0.3763 -0.0506
  138MOL   C12446978   0.703   5.935   2.216 -0.2977 -0.2689  0.1992
  138MOL   C12546979   0.703   6.000   2.346 -0.3995  0.3250 -0.5602
  138MOL   C12646980   0.604   6.084   2.391 -0.6087  0.5403 -0.2254
  138MOL   C12746981   0.487   6.101   2.316 -0.5314  0.4107 -0.5347
  138MOL   C12846982   0.487   6.050   2.188  0.1641 -0.1382  0.2071
  138MOL   O12946983   0.446   5.880   1.959  0.1639 -0.0801 -0.0198
  138MOL   H13046984   0.766   6.014   1.928  0.9084 -3.2599 -1.1339
  138MOL   H13146985   0.652   5.959   1.798 -1.8329  0.2516  0.8955
  138MOL   H13246986   0.645   5.817   1.989 -1.8368 -1.2055 -1.8792
  138MOL   H13346987   0.787   5.878   2.181  0.3016  0.3868  0.5584
  138MOL   H13446988   0.790   5.982   2.408 -0.0589 -1.5585 -1.5423
  138MOL   H13546989   0.604   6.118   2.494  0.4387  3.8806 -1.2592
  138MOL   H13646990   0.403   6.152   2.361  1.1672  2.8174 -0.0228
  138MOL   H13746991   0.393   6.063   2.136 -0.1289 -0.6910  0.5883
  138MOL   C13846992   0.383   5.764   2.024 -0.1808 -0.3038  0.7880
  138MOL   C13946993   0.251   5.732   1.972  0.5062  0.0807  0.2029
  138MOL   C14046994   0.138   5.830   1.992 -0.1546 -0.5108  0.5672
  138MOL   C14146995   0.066   5.826   2.118  0.3874 -0.3944 -0.2716
  138MOL   C14246996   8.048   5.920   2.146  0.1440 -0.9298  0.2539
  138MOL   C14346997   8.012   6.006   2.045 -0.3167 -0.0396 -0.2140
  138MOL   C14446998   0.004   6.025   1.928  0.6291  0.3037  0.9713
  138MOL   C14546999   0.103   5.928   1.893  0.0460 -0.2634  1.0171
  138MOL   O14647000   0.269   5.681   1.838  0.1966 -0.4643 -0.1261
  138MOL   H14747001   0.375   5.780   2.132  0.3993  1.6444  0.5763
  138MOL   H14847002   0.445   5.676   2.008 -0.1521 -0.0859 -0.3390
  138MOL   H14947003   0.217   5.638   2.015  0.9205 -0.3742 -0.4533
  138MOL   H15047004   0.099   5.761   2.198  0.0600  0.2829  0.4149
  138MOL   H15147005   7.982   5.918   2.232  1.8643  0.6724  1.6424
  138MOL   H15247006   7.941   6.084   2.069  0.5091  0.1605  1.5956
  138MOL   H15347007   8.064   6.091   1.845 -0.5746 -0.5994  0.5356
  138MOL   H15447008   0.167   5.946   1.807  0.1331 -0.0346  1.1311
  138MOL   C15547009   0.156   5.600   1.794 -0.3523  0.1543  0.3100
  138MOL   C15647010   0.160   5.577   1.640 -0.6035 -0.4912  0.5556
  138MOL   C15747011   0.300   5.531   1.588 -0.6063  0.2137 -0.3803
  138MOL   C15847012   0.351   5.598   1.474  0.2085 -0.5019 -0.2421
  138MOL   C15947013   0.476   5.561   1.420 -0.2353 -0.5352  0.0347
  138MOL   C16047014   0.538   5.444   1.467 -0.7071 -0.1499 -0.2113
  138MOL   C16147015   0.491   5.384   1.585  0.2653  0.2464 -0.1847
  138MOL   C16247016   0.372   5.424   1.648  0.6611  0.1192 -0.3607
  138MOL   O16347017   0.059   5.489   1.594 -0.2015  0.1279  0.2385
  138MOL   H16447018   0.060   5.649   1.811  0.0626  0.5653  1.5075
  138MOL   H16547019   0.150   5.503   1.844 -1.2288 -0.7662 -1.5502
  138MOL   H16647020   0.134   5.673   1.596 -0.0079 -1.7487 -2.6745
  138MOL   H16747021   0.306   5.685   1.430 -0.7795 -1.6378 -1.5127
  138MOL   H16847022   0.535   5.615   1.347  1.4862 -1.7964  0.4564
  138MOL   H16947023   0.628   5.400   1.426  0.0324 -0.3424  1.5847
  138MOL   H17047024   0.558   5.310   1.628  1.1459  1.6574  0.9298
  138MOL   H17147025   0.337   5.364   1.731 -0.4378  2.7931  1.1698
  138MOL   C17247026   0.025   5.513   1.458  0.3783  0.5215  0.5630
  138MOL   C17347027   7.953   5.562   1.435 -0.0841  0.2787 -0.0655
  138MOL   C17447028   7.909   5.685   1.514 -0.2088 -0.8406 -0.0208
  138MOL   C17547029   7.944   5.817   1.471  0.1176 -0.9285  0.4279
  138MOL   C17647030   7.919   5.936   1.554  0.2988 -0.1296  0.2431
  138MOL   C17747031   7.855   5.912   1.682  0.0433 -0.2434  0.5246
  138MOL   C17847032   7.809   5.786   1.718 -0.0030 -0.1584  0.5600
  138MOL   C17947033   7.837   5.672   1.633 -0.2894 -0.0920  0.3331
  138MOL   O18047034   7.859   5.455   1.449  0.2826  0.2159 -0.1989
  138MOL   H18147035   0.081   5.596   1.414  1.2107  0.9442  2.3729
  138MOL   H18247036   0.046   5.418   1.410  2.0490  0.5065  1.2969
  138MOL   H18347037   7.949   5.585   1.328  2.3452  0.9892 -0.0399
  138MOL   H18447038   8.002   5.825   1.380 -1.0862  0.5610 -0.2363
  138MOL   H18547039   7.958   6.033   1.527  2.6042 -1.5976 -1.9605
  138MOL   H18647040   7.850   6.003   1.740 -0.8448  1.2451 -1.8063
  138MOL   H18747041   7.764   5.770   1.815  0.6871  0.0586  0.9167
  138MOL   H18847042   7.815   5.571   1.664  0.9167 -1.0659 -1.8414
  138MOL   C18947043   7.841   5.374   1.333  0.2163  0.0479  0.3053
  138MOL   C19047044   7.788   5.222   1.382  0.0941  0.1425 -0.8440
  138MOL   C19147045   7.822   5.115   1.277 -0.7141  0.1849  0.3359
  138MOL   C19247046   7.721   5.053   1.206 -0.0715 -0.5821  0.5112
  138MOL   C19347047   7.748   4.967   1.095 -0.2430  0.1289  0.3214
  138MOL   C19447048   7.880   4.933   1.065  0.1270  0.3069  0.3933
  138MOL   C19547049   7.985   4.996   1.133  0.2322 -0.5094 -0.3826
  138MOL   C19647050   7.955   5.091   1.230 -0.1243 -0.0427 -0.2734
  138MOL   O19747051   7.641   5.236   1.405 -0.0581  0.3236  0.4830
  138MOL   H19847052   7.770   5.433   1.274  0.0454  0.8696  1.3308
  138MOL   H19947053   7.932   5.360   1.274  0.9404  0.3916  1.3263
  138MOL   H20047054   7.842   5.187   1.470 -1.1797 -1.4150 -0.6603
  138MOL   H20147055   7.621   5.076   1.241 -0.2076 -0.2500 -0.0849
  138MOL   H20247056   7.665   4.919   1.045 -1.3160  1.3026  0.9246
  138MOL   H20347057   7.904   4.872   0.979 -1.3296  0.1621  0.0857
  138MOL   H20447058   0.007   4.985   1.100 -0.3444 -2.8900 -1.4487
  138MOL   H20547059   8.039   5.141   1.275  0.8478 -1.9112  0.0311
  138MOL   C20647060   7.603   5.283   1.539 -0.7329 -0.5706  1.1327
  138MOL   C20747061   7.455   5.331   1.556 -0.8346 -0.1786  0.2446
  138MOL   C20847062   7.441   5.421   1.676 -0.5710 -0.0610  0.0991
  138MOL   C20947063   7.365   5.369   1.784 -0.2760 -0.8412 -0.3651
  138MOL   C21047064   7.359   5.450   1.898 -0.2576 -0.4992 -0.0224
  138MOL   C21147065   7.426   5.569   1.910  0.9400  0.2870 -0.0619
  138MOL   C21247066   7.483   5.623   1.790 -0.2087  0.6088 -0.2820
  138MOL   C21347067   7.494   5.547   1.675  0.6114  0.1039  0.6543
  138MOL   O21447068   7.360   5.226   1.545 -0.4156  0.0963  0.2862
  138MOL   H21547069   7.619   5.219   1.625 -2.1054 -0.6320  1.3592
  138MOL   H21647070   7.664   5.371   1.557 -0.1872 -0.2475 -1.9722
  138MOL   H21747071   7.435   5.394   1.469 -0.7191 -1.3296 -0.6222
  138MOL   H21847072   7.317   5.272   1.784 -1.3553 -0.3252 -2.0579
  138MOL   H21947073   7.305   5.426   1.988 -0.8883  0.0641 -0.2448
  138MOL   H22047074   7.413   5.640   1.991 -0.2181  0.4566 -0.3951
  138MOL   H22147075   7.527   5.721   1.789  0.1511  0.4392 -2.0739
  138MOL   H22247076   7.541   5.588   1.587 -2.7679 -1.0779 -1.7971
  138MOL   C22347077   7.348   5.153   1.419  0.2956  0.0258  0.4061
  138MOL   C22447078   7.206   5.090   1.394 -0.5156 -0.0510  0.1525
  138MOL   C22547079   7.179   4.962   1.469  0.1005  0.4881 -0.5056
  138MOL   C22647080   7.255   4.925   1.581  0.0424  0.3215 -0.5988
  138MOL   C22747081   7.235   4.803   1.647  0.3535 -0.5783 -0.0480
  138MOL   C22847082   7.124   4.728   1.615 -0.0069 -0.7104 -0.1806
  138MOL   C22947083   7.039   4.770   1.511  0.0211  0.0930  0.2637
  138MOL   C23047084   7.066   4.880   1.431  0.8083 -0.1776  0.7208
  138MOL   O23147085   7.103   5.189   1.392 -0.3119  0.5650 -0.0613
  138MOL   H23247086   7.369   5.217   1.333  0.2183 -1.3104 -0.6427
  138MOL   H23347087   7.417   5.068   1.420 -0.4595 -0.6071 -0.4665
  138MOL   H23447088   7.209   5.061   1.289 -0.1309 -1.1905  0.4691
  138MOL   H23547089   7.332   4.987   1.625 -0.1434  2.1366 -2.7562
  138MOL   H23647090   7.297   4.775   1.731 -1.1343 -1.2790  0.8193
  138MOL   H23747091   7.113   4.630   1.658  0.4120 -1.5826 -1.9811
  138MOL   H23847092   6.955   4.708   1.484 -0.7554  1.2664 -0.0431
  138MOL   H23947093   6.999   4.892   1.348  0.1418  0.5549  1.3450
  138MOL   C24047094   7.096   5.261   1.271  0.9675  0.6812  0.0834
  138MOL   C24147095   6.955   5.323   1.268 -0.2142 -0.0598  0.5573
  138MOL   C24247096   6.948   5.431   1.164 -0.3673  0.4605 -0.2854
  138MOL   C24347097   7.067   5.472   1.085  0.6606  0.0336 -0.0672
  138MOL   C24447098   7.068   5.592   1.015 -0.5358  0.8354  0.3921
  138MOL   C24547099   6.953   5.674   1.013 -0.3749  0.0916 -0.6930
  138MOL   C24647100   6.841   5.636   1.082 -0.2582 -0.3643 -0.6991
  138MOL   C24747101   6.843   5.522   1.168  0.2666  0.0698 -0.0748
  138MOL   O24847102   6.866   5.217   1.231 -0.6895 -0.4179 -0.1915
  138MOL   H24947103   7.188   5.319   1.267  1.1179  0.6409  2.1980
  138MOL   H25047104   7.100   5.199   1.181 -1.3862  0.5874  0.0059
  138MOL   H25147105   6.922   5.368   1.362  1.4193  4.3184 -0.8571
  138MOL   H25247106   7.155   5.410   1.083 -0.6723 -1.8686 -0.7411
  138MOL   H25347107   7.157   5.617   0.958 -1.1956  0.7380 -0.6955
  138MOL   H25447108   6.940   5.772   0.970 -0.0554  0.3987 -0.0863
  138MOL   H25547109   6.758   5.705   1.094 -0.0428 -0.1061 -0.6993
  138MOL   H25647110   6.764   5.505   1.240 -0.5509 -0.9718 -1.2104
  138MOL   C25747111   6.789   5.165   1.340  0.1890  0.1387  0.2173
  138MOL   C25847112   6.678   5.079   1.285  0.1384  0.1405  0.8421
  138MOL   C25947113   6.570   5.151   1.205  0.2557 -0.1637  0.1342
  138MOL   C26047114   6.614   5.230   1.095  0.0549 -1.1121  0.1243
  138MOL   C26147115   6.520   5.303   1.024  0.0847 -0.5624 -0.0328
  138MOL   C26247116   6.382   5.284   1.053  1.3149 -0.1578  0.0920
  138MOL   C26347117   6.340   5.192   1.150 -0.5982  0.0452  0.7156
  138MOL   C26447118   6.434   5.125   1.225 -0.3769 -0.1752 -0.9910
  138MOL   O26547119   6.609   5.007   1.387 -0.5735 -0.0696  0.3531
  138MOL   H26647120   6.740   5.251   1.387 -0.5589 -0.5897  0.7895
  138MOL   H26747121   6.833   5.104   1.419 -1.6270  0.3279  1.4219
  138MOL   H26847122   6.707   5.005   1.210 -0.2071  0.6031  0.2542
  138MOL   H26947123   6.713   5.248   1.054 -0.4092  0.4669 -0.3348
  138MOL   H27047124   6.557   5.360   0.940  2.9250 -2.8020 -0.3997
  138MOL   H27147125   6.297   5.327   1.001  0.4790  0.4440  1.9087
  138MOL   H27247126   6.235   5.179   1.168 -0.5453 -0.4519  0.6854
  138MOL   H27347127   6.401   5.043   1.287 -1.6326 -0.7291 -2.3639
  138MOL   C27447128   6.672   4.890   1.428  0.5116  0.3454  0.7895
  138MOL   C27547129   6.566   4.796   1.477 -0.6100 -0.1293 -0.1194
  138MOL   C27647130   6.465   4.757   1.362 -1.2174  0.4838 -0.3848
  138MOL   C27747131   6.508   4.695   1.242  0.8245  0.7272 -0.0585
  138MOL   C27847132   6.412   4.647   1.147 -0.1544 -0.1283 -0.3399
  138MOL   C27947133   6.274   4.665   1.174 -0.4306 -0.2511 -0.2409
  138MOL   C28047134   6.233   4.737   1.296  0.2656  0.2009 -0.0378
  138MOL   C28147135   6.332   4.777   1.387 -0.1189 -0.6696  0.7173
  138MOL   O28247136   6.505   4.840   1.598 -0.2080  0.1011  0.2231
  138MOL   H28347137   6.729   4.833   1.355 -1.3843 -2.6407  1.5136
  138MOL   H28447138   6.738   4.911   1.512  0.7159  0.2250  0.6588
  138MOL   H28547139   6.606   4.699   1.503  1.4637  0.9391  0.7756
  138MOL   H28647140   6.613   4.681   1.223  0.4287 -2.3633 -0.2660
  138MOL   H28747141   6.457   4.578   1.077  2.2272 -0.2066  1.2078
  138MOL   H28847142   6.200   4.615   1.113 -2.2713  3.0022 -0.7699
  138MOL   H28947143   6.128   4.737   1.321 -0.0392  1.9621 -1.2775
  138MOL   H29047144   6.303   4.820   1.482 -3.3318 -0.5360 -0.2573
  138MOL   C29147145   6.582   4.798   1.714  0.1083 -0.1740 -0.3386
  138MOL   C29247146   6.546   4.889   1.845 -0.5558  0.4601  0.3721
  138MOL   C29347147   6.492   5.025   1.801  0.5156 -0.0782 -0.3527
  138MOL   C29447148   6.571   5.113   1.732  0.4513 -0.1404  1.3637
  138MOL   C29547149   6.526   5.242   1.706 -0.6286  0.1931 -0.5512
  138MOL   C29647150   6.397   5.284   1.754 -0.5873 -0.0143 -0.2659
  138MOL   C29747151   6.317   5.189   1.820  0.0989 -0.3257 -0.2305
  138MOL   C29847152   6.366   5.065   1.859 -0.4001 -0.6814 -0.1376
  138MOL   O29947153   6.475   4.820   1.946  0.4035 -0.2053 -0.0686
  138MOL   H30047154   6.689   4.812   1.702 -0.2301  1.8877 -1.1169
  138MOL   H30147155   6.564   4.691   1.729 -2.5977  0.5173  1.8362
  138MOL   H30247156   6.638   4.915   1.898  0.5330 -0.2309 -1.1243
  138MOL   H30347157   6.672   5.090   1.699 -0.1201 -1.8691  0.8147
  138MOL   H30447158   6.586   5.311   1.649  1.6080 -0.7007  0.6635
  138MOL   H30547159   6.371   5.386   1.730  2.0463  0.8699  0.4702
  138MOL   H30647160   6.219   5.219   1.854 -0.6473 -0.5395 -2.1099
  138MOL   H30747161   6.310   5.002   1.927 -0.0966  0.1046  0.8454
  138MOL   C30847162   6.528   4.715   2.025  0.5634 -0.1809  0.1985
  138MOL   C30947163   6.613   4.749   2.144  0.4187  0.0065  0.0074
  138MOL   C31047164   6.546   4.845   2.236  0.4353 -1.0341 -0.3101
  138MOL   C31147165   6.560   4.978   2.198  0.1092  0.7296 -0.7564
  138MOL   C31247166   6.508   5.075   2.286  0.1161 -0.0037  0.0150
  138MOL   C31347167   6.444   5.034   2.409 -0.2959 -0.3524 -0.3514
  138MOL   C31447168   6.418   4.896   2.436 -0.5961  0.1732  0.1113
  138MOL   C31547169   6.476   4.805   2.346  0.5597  0.3753 -0.2410
  138MOL   O31647170   6.629   4.616   2.196 -0.5830 -0.1500  0.1102
  138MOL   H31747171   6.574   4.644   1.956 -1.8507  0.0096 -1.6801
  138MOL   H31847172   6.442   4.655   2.056  0.7192 -0.1018  0.7871
  138MOL   H31947173   6.706   4.794   2.111  0.1607 -0.0465 -0.8016
  138MOL   H32047174   6.605   5.006   2.104 -1.0082  0.6666 -1.3245
  138MOL   H32147175   6.511   5.182   2.267 -1.1078  0.5092  2.5025
  138MOL   H32247176   6.416   5.111   2.479 -1.1786 -1.3595  0.4076
  138MOL   H32347177   6.373   4.854   2.524 -1.3879 -0.4217 -0.5606
  138MOL   H32447178   6.472   4.703   2.381 -1.0877  0.2677 -0.6764
  138MOL   C32547179   6.738   4.605   2.287 -0.0864 -0.0472 -0.0001
  138MOL   C32647180   6.749   4.456   2.337  0.0635 -0.4105  0.4270
  138MOL   C32747181   6.864   4.427   2.439 -0.2075 -0.2244  0.5452
  138MOL   C32847182   6.860   4.474   2.569 -0.5750 -0.8564  0.6274
  138MOL   C32947183   6.972   4.466   2.653 -0.1708 -0.1855 -0.5798
  138MOL   C33047184   7.090   4.413   2.600 -0.3951  0.1144 -0.7134
  138MOL   C33147185   7.100   4.367   2.469 -0.1874  0.3518 -0.2094
  138MOL   C33247186   6.982   4.369   2.391  0.4731 -0.0272  0.7196
  138MOL   O33347187   6.625   4.429   2.393 -0.8400 -0.1457 -0.1796
  138MOL   H33447188   6.722   4.676   2.369  0.6271  0.4278 -0.2744
  138MOL   H33547189   6.831   4.638   2.242 -1.0324 -0.7631 -2.6067
  138MOL   H33647190   6.760   4.395   2.248 -0.1229  0.4302 -0.1778
  138MOL   H33747191   6.771   4.526   2.600 -2.0022 -1.3593 -2.4756
  138MOL   H33847192   6.959   4.498   2.755 -2.6320 -2.2696 -0.1768
  138MOL   H33947193   7.178   4.409   2.663 -1.7750 -1.9428  1.1655
  138MOL   H34047194   7.188   4.323   2.426 -1.3019 -1.4514 -0.6876
  138MOL   H34147195   6.975   4.332   2.289 -1.6755  1.2336  0.3871
  138MOL   H34247196   6.566   4.406   2.322 -0.3157  1.4994 -1.1824
  139MOL     C147197   4.039   2.457   7.875 -0.0811 -0.3169  0.0563
  139MOL     C247198   3.972   2.320   7.908  0.0318 -0.7928  0.3207
  139MOL     C347199   3.949   2.249   7.778  0.1458  0.4593 -0.7868
  139MOL     C447200   4.046   2.166   7.723  0.2433  0.3752  0.3974
  139MOL     C547201   4.023   2.094   7.604 -0.0830  0.1205  0.3299
  139MOL     C647202   3.895   2.103   7.541 -0.2582 -0.9641  0.5853
  139MOL     C747203   3.799   2.186   7.598 -0.0415 -0.1617  0.7389
  139MOL     C847204   3.822   2.258   7.717 -0.6596  0.1494  0.2334
  139MOL     O947205   3.848   2.337   7.975  0.1219  0.0143  0.4083
  139MOL    H1047206   4.059   2.508   7.970 -0.6565 -0.4305  0.2385
  139MOL    H1147207   4.123   2.428   7.812  1.5155  0.2371  1.8702
  139MOL    H1247208   4.036   2.262   7.975  0.2447 -1.8602 -0.8018
  139MOL    H1347209   4.134   2.153   7.785 -0.0227 -0.7463  0.5446
  139MOL    H1447210   4.094   2.025   7.564 -0.2684  0.0916  0.0495
  139MOL    H1547211   3.873   2.043   7.454 -0.1576  1.6031 -1.2759
  139MOL    H1647212   3.703   2.205   7.553  0.4444 -0.5710 -0.5202
  139MOL    H1747213   3.747   2.325   7.758  1.0791  1.9346  0.5805
  139MOL    H1847214   3.972   2.514   7.811  1.7777 -1.7121 -3.2243
  139MOL    C1947215   3.798   2.220   8.026  0.3304  0.1969 -0.1011
  139MOL    C2047216   3.681   2.252   0.036 -0.5468  0.0753  0.1305
  139MOL    C2147217   3.642   2.139   0.125 -0.0267  0.3248 -0.0786
  139MOL    C2247218   3.735   2.100   0.221 -0.4256  0.3823  0.3138
  139MOL    C2347219   3.701   1.998   0.310 -0.4812 -0.3505  0.6733
  139MOL    C2447220   3.573   1.939   0.304  0.0323  0.2566 -0.1621
  139MOL    C2547221   3.484   1.975   0.199  0.7249  0.2152  0.0686
  139MOL    C2647222   3.516   2.077   0.108  0.1637 -0.1433 -0.5152
  139MOL    O2747223   3.573   2.306   8.042 -0.0586 -0.1728 -0.0889
  139MOL    H2847224   3.759   2.156   7.948  0.5199  1.3171 -1.1295
  139MOL    H2947225   3.875   2.162   8.077  0.0616 -0.9515 -1.0102
  139MOL    H3047226   3.719   2.331   0.101 -2.0209  3.3738 -2.8533
  139MOL    H3147227   3.824   2.158   0.239 -0.6513  0.8470 -0.0467
  139MOL    H3247228   3.765   1.971   0.392 -1.7329  0.4839  1.9464
  139MOL    H3347229   3.540   1.857   0.365 -0.1782  0.1928 -0.3618
  139MOL    H3447230   3.389   1.928   0.181  1.1260  0.1697 -2.1359
  139MOL    H3547231   3.453   2.110   0.027  0.2660  1.9214  0.2256
  139MOL    C3647232   3.498   2.404   0.025 -0.7045 -0.5815 -1.3867
  139MOL    C3747233   3.373   2.438   8.038  0.0619 -0.1103 -0.0535
  139MOL    C3847234   3.307   2.551   0.041 -0.2723  0.7009 -0.0194
  139MOL    C3947235   3.234   2.526   0.161 -0.0529 -0.0626  0.0267
  139MOL    C4047236   3.170   2.629   0.232 -0.3721 -0.7299 -0.2752
  139MOL    C4147237   3.186   2.758   0.189  0.9137  0.2936  0.1082
  139MOL    C4247238   3.258   2.791   0.075 -0.2574  0.1448 -0.0221
  139MOL    C4347239   3.311   2.684   8.076  1.0926  0.4196  0.4247
  139MOL    O4447240   3.277   2.328   8.042 -0.1027 -0.0311 -0.2525
  139MOL    H4547241   3.474   2.369   0.125  3.3987 -2.4407 -0.9432
  139MOL    H4647242   3.561   2.492   0.039 -0.9058 -0.6420 -0.0653
  139MOL    H4747243   3.394   2.490   7.944  1.3187 -2.0740 -0.8809
  139MOL    H4847244   3.226   2.426   0.202  0.6454  0.0806  0.5166
  139MOL    H4947245   3.106   2.597   0.313  1.1073  0.9056  1.5927
  139MOL    H5047246   3.138   2.843   0.234  0.2917 -0.0990  0.1903
  139MOL    H5147247   3.276   2.896   0.061 -1.8583  0.8035  2.6050
  139MOL    H5247248   3.355   2.707   7.981  1.6998  2.4602  1.1834
  139MOL    C5347249   3.278   2.233   7.934  0.0141  0.2627  0.1144
  139MOL    C5447250   3.206   2.283   7.802  0.1840 -0.3654 -0.7007
  139MOL    C5547251   3.223   2.189   7.690 -0.0862  0.7554 -0.1629
  139MOL    C5647252   3.338   2.102   7.681  0.6698  0.1383  0.0061
  139MOL    C5747253   3.349   2.017   7.565  0.0037  0.5753  0.3700
  139MOL    C5847254   3.251   2.014   7.469  1.1370 -0.3984  0.1710
  139MOL    C5947255   3.142   2.101   7.476  1.0498  0.3803 -0.3884
  139MOL    C6047256   3.127   2.189   7.585  0.0478 -0.0529  0.4634
  139MOL    O6147257   3.070   2.298   7.832  0.2815 -0.0422 -0.0272
  139MOL    H6247258   3.385   2.226   7.914  0.0836 -0.0001  0.5661
  139MOL    H6347259   3.246   2.132   7.961  1.7009 -0.2632  0.2222
  139MOL    H6447260   3.274   2.363   7.774  0.4216 -0.7505 -1.2247
  139MOL    H6547261   3.411   2.089   7.760  0.8578  3.3089  0.4256
  139MOL    H6647262   3.425   1.940   7.567  1.5181  2.0369  0.2479
  139MOL    H6747263   3.266   1.938   7.394  0.8878  0.2293 -0.5251
  139MOL    H6847264   3.063   2.093   7.402  1.6806 -1.4639 -0.8997
  139MOL    H6947265   3.036   2.245   7.602 -0.5081 -1.2283  1.4139
  139MOL    C7047266   3.049   2.440   7.861 -0.2104 -0.3120 -0.1015
  139MOL    C7147267   2.894   2.469   7.864  0.2498  0.3593 -0.0883
  139MOL    C7247268   2.827   2.433   7.730 -0.2009  0.0889 -0.4120
  139MOL    C7347269   2.723   2.339   7.725  0.3504 -0.1174 -0.1650
  139MOL    C7447270   2.675   2.285   7.606 -0.1476  0.4837 -0.0181
  139MOL    C7547271   2.732   2.329   7.482 -0.1255 -0.0914 -0.5356
  139MOL    C7647272   2.837   2.419   7.486  0.1212 -0.2836  0.4663
  139MOL    C7747273   2.878   2.473   7.609  0.1687  0.7869 -0.7393
  139MOL    O7847274   2.868   2.608   7.899 -0.6831  0.4345 -0.3967
  139MOL    H7947275   3.097   2.455   7.958  0.2110  2.9613 -0.7598
  139MOL    H8047276   3.093   2.511   7.792  0.7539  0.4728  1.2940
  139MOL    H8147277   2.836   2.422   7.944 -1.1815  0.9856 -0.7352
  139MOL    H8247278   2.685   2.296   7.816 -1.3728 -1.6366 -1.5561
  139MOL    H8347279   2.594   2.213   7.603  1.2292 -1.2402  2.4736
  139MOL    H8447280   2.686   2.297   7.389 -0.5887 -2.1304  0.3776
  139MOL    H8547281   2.885   2.455   7.396  1.1546 -1.3149  0.5996
  139MOL    H8647282   2.963   2.538   7.616  0.2051  1.1340 -3.8814
  139MOL    C8747283   2.933   2.662   8.007 -0.0291 -0.2545  0.1496
  139MOL    C8847284   2.847   2.767   0.004 -0.0114  0.1988  0.1401
  139MOL    C8947285   2.715   2.722   0.068  0.3852  0.0710  0.4277
  139MOL    C9047286   2.624   2.633   0.001  0.8636 -0.1104 -0.3284
  139MOL    C9147287   2.513   2.576   0.064  0.0210 -0.5338  0.8148
  139MOL    C9247288   2.488   2.602   0.200  0.1589 -0.5978 -0.1116
  139MOL    C9347289   2.578   2.686   0.266 -0.0043 -0.1572  0.0402
  139MOL    C9447290   2.692   2.740   0.201  0.0846  0.1343 -0.3782
  139MOL    O9547291   2.842   2.898   8.029 -0.1240  0.0968 -0.6363
  139MOL    H9647292   3.018   2.706   7.955 -0.2489  0.8005  0.6530
  139MOL    H9747293   2.975   2.597   0.004  1.5890  1.0741  0.4171
  139MOL    H9847294   2.906   2.794   0.092  2.0188 -3.6551  0.0483
  139MOL    H9947295   2.643   2.631   7.975  0.1992  3.5950 -0.6005
  139MOL   H10047296   2.455   2.501   0.012 -2.0884  1.2948  0.4661
  139MOL   H10147297   2.396   2.570   0.248 -0.3262  1.6508  0.4980
  139MOL   H10247298   2.569   2.707   0.372 -0.2421  0.0079 -0.0124
  139MOL   H10347299   2.766   2.796   0.256 -0.1001 -0.8083  0.8641
  139MOL   C10447300   2.785   2.913   7.902  0.1328  0.1030  0.3804
  139MOL   C10547301   2.845   3.019   7.808 -0.4075  0.0752 -0.2477
  139MOL   C10647302   2.995   3.019   7.798 -0.3186  0.6207  0.7482
  139MOL   C10747303   3.060   2.910   7.744 -0.3444  0.3253 -0.2746
  139MOL   C10847304   3.198   2.901   7.727 -0.2476 -0.9230 -0.7830
  139MOL   C10947305   3.279   3.004   7.781 -0.1444  0.4679 -0.5140
  139MOL   C11047306   3.215   3.119   7.830  0.3396 -0.7898  0.6994
  139MOL   C11147307   3.074   3.125   7.842 -0.3112 -0.3704  0.0686
  139MOL   O11247308   2.804   2.973   7.676 -0.8172 -0.7655 -0.2837
  139MOL   H11347309   2.787   2.817   7.849 -0.8464 -0.3165  1.1013
  139MOL   H11447310   2.679   2.928   7.921 -0.2308 -0.0989 -1.3559
  139MOL   H11547311   2.808   3.113   7.848  0.0875 -0.3577  1.2637
  139MOL   H11647312   2.991   2.836   7.706 -3.2113  2.4365  0.6106
  139MOL   H11747313   3.251   2.821   7.677  0.5237  0.6698 -2.5688
  139MOL   H11847314   3.385   2.995   7.766 -0.2683 -1.0631 -0.6191
  139MOL   H11947315   3.269   3.209   7.855 -0.3324  0.0678 -0.8988
  139MOL   H12047316   3.021   3.213   7.875 -1.9314 -1.2181 -0.1999
  139MOL   C12147317   2.711   3.046   7.603  0.4993  0.6080  0.4097
  139MOL   C12247318   2.562   2.998   7.616 -0.0472  0.2206  0.1141
  139MOL   C12347319   2.545   2.843   7.610  0.1487 -0.0165  0.2729
  139MOL   C12447320   2.553   2.788   7.482  0.5871  0.1945  0.0922
  139MOL   C12547321   2.528   2.650   7.461  0.4193 -0.3512 -0.1677
  139MOL   C12647322   2.503   2.566   7.575 -0.1226 -0.1640 -0.2802
  139MOL   C12747323   2.493   2.620   7.704  0.5499  0.3904  0.0106
  139MOL   C12847324   2.512   2.762   7.725  0.2428  1.0113 -0.0326
  139MOL   O12947325   2.499   3.049   7.737  0.0536 -0.3888  0.1348
  139MOL   H13047326   2.748   3.053   7.501  2.4724 -0.8008  1.0081
  139MOL   H13147327   2.726   3.153   7.614 -1.4141  0.8648  0.6998
  139MOL   H13247328   2.510   3.037   7.528  0.4734  0.0533 -0.2613
  139MOL   H13347329   2.578   2.851   7.398 -3.4703 -0.7263 -1.9313
  139MOL   H13447330   2.526   2.614   7.360 -0.8402 -2.9985  0.7729
  139MOL   H13547331   2.494   2.459   7.564  0.1319 -0.4791  2.2576
  139MOL   H13647332   2.474   2.546   7.781 -0.3221 -2.2721 -2.6672
  139MOL   H13747333   2.484   2.805   7.821  0.4251 -0.3354  0.6327
  139MOL   C13847334   2.448   3.179   7.716  0.0371  0.4736 -0.3153
  139MOL   C13947335   2.382   3.214   7.849 -0.2100 -0.3830 -0.5775
  139MOL   C14047336   2.472   3.209   7.976 -0.1768  0.3739 -0.5039
  139MOL   C14147337   2.557   3.318   7.992  0.2208 -0.0123 -0.1758
  139MOL   C14247338   2.652   3.309   0.018  0.2993  0.6073  0.8583
  139MOL   C14347339   2.653   3.201   0.105  0.5071 -1.1012  0.4121
  139MOL   C14447340   2.571   3.089   0.078 -0.8996 -0.8596 -0.6059
  139MOL   C14547341   2.481   3.093   8.054  0.0419 -0.1305 -0.3608
  139MOL   O14647342   2.319   3.349   7.835  0.1509  0.2975  0.2691
  139MOL   H14747343   2.376   3.177   7.635 -2.5900 -1.9754  1.9535
  139MOL   H14847344   2.530   3.247   7.692 -0.2151  1.2688  0.9791
  139MOL   H14947345   2.304   3.142   7.872  0.0452 -1.0084 -1.6676
  139MOL   H15047346   2.551   3.403   7.925 -2.3702  0.2033  0.2459
  139MOL   H15147347   2.720   3.391   0.035  1.0864  0.5316 -1.7496
  139MOL   H15247348   2.730   3.195   0.180 -1.1561 -0.4458  2.1956
  139MOL   H15347349   2.570   2.997   0.135 -0.2228  0.6046  1.8621
  139MOL   H15447350   2.410   3.012   8.048  1.9043 -1.9821  1.5766
  139MOL   C15547351   2.205   3.366   7.920 -0.4232  0.4093  0.8377
  139MOL   C15647352   2.156   3.512   7.907 -0.4564 -0.4241 -1.0392
  139MOL   C15747353   2.015   3.519   7.958  0.5462  0.1041 -0.4913
  139MOL   C15847354   1.989   3.470   0.001 -0.0223  0.3851 -0.3899
  139MOL   C15947355   1.866   3.481   0.065 -0.0918  0.2202  0.0922
  139MOL   C16047356   1.758   3.547   0.003 -0.2973 -0.0898  0.8740
  139MOL   C16147357   1.770   3.593   7.951 -0.7149  0.2702  0.0499
  139MOL   C16247358   1.901   3.575   7.893 -0.5413 -0.7628 -0.5698
  139MOL   O16347359   2.246   3.595   7.987 -0.3523  0.1036  0.3519
  139MOL   H16447360   2.208   3.337   8.025 -0.3202  0.4728  0.8520
  139MOL   H16547361   2.121   3.316   7.873 -1.0377  1.3709  0.9044
  139MOL   H16647362   2.158   3.552   7.806 -0.1707 -2.4741 -1.8634
  139MOL   H16747363   2.071   3.417   0.046 -0.8289 -1.0600 -0.5882
  139MOL   H16847364   1.844   3.451   0.167  1.2977  1.2257  0.7002
  139MOL   H16947365   1.666   3.553   0.060  0.3668  0.5932  1.8776
  139MOL   H17047366   1.689   3.628   7.890  2.0744  1.6129 -3.0793
  139MOL   H17147367   1.913   3.615   7.793 -0.1500 -0.8693 -0.5638
  139MOL   C17247368   2.238   3.736   7.951  0.4964 -0.8905  0.4334
  139MOL   C17347369   2.306   3.829   8.058  0.1219  0.2681 -0.1631
  139MOL   C17447370   2.199   3.901   0.063  0.1851 -0.3616 -0.2445
  139MOL   C17547371   2.195   4.037   0.063 -0.0273 -0.4483 -0.2214
  139MOL   C17647372   2.080   4.097   0.112  0.2941 -0.4227 -0.4089
  139MOL   C17747373   1.978   4.029   0.178  0.2492  0.9790 -0.6535
  139MOL   C17847374   1.995   3.889   0.198  0.0313 -0.1071 -0.0900
  139MOL   C17947375   2.096   3.824   0.125 -0.2192 -0.0777  0.5660
  139MOL   O18047376   2.380   3.917   7.984  0.4687 -0.2040 -0.2076
  139MOL   H18147377   2.301   3.755   7.864 -0.2480  1.3187  0.3350
  139MOL   H18247378   2.136   3.770   7.931  0.6136 -2.0632 -2.5019
  139MOL   H18347379   2.372   3.763   0.035  0.7741  1.0473 -0.0061
  139MOL   H18447380   2.265   4.093   0.003 -1.6246 -0.2498 -1.9671
  139MOL   H18547381   2.067   4.204   0.100 -0.8629 -0.5761 -0.6039
  139MOL   H18647382   1.888   4.072   0.219  0.3379  1.5464 -1.0617
  139MOL   H18747383   1.915   3.833   0.244  0.1548 -0.3624 -0.1882
  139MOL   H18847384   2.101   3.717   0.115 -0.9929  0.0174 -0.9395
  139MOL   C18947385   2.507   3.938   8.049  0.4453 -0.7528 -0.0340
  139MOL   C19047386   2.592   4.033   7.971 -0.6576 -0.6071  0.1423
  139MOL   C19147387   2.738   4.029   8.029 -0.1744 -0.2367 -0.1867
  139MOL   C19247388   2.830   3.943   7.970 -0.4337  0.5218  0.2423
  139MOL   C19347389   2.964   3.932   8.017  0.2571 -0.0746  0.5001
  139MOL   C19447390   2.997   4.008   0.055 -0.1731  0.2341  0.2743
  139MOL   C19547391   2.909   4.101   0.108  0.2445  0.2268  0.6485
  139MOL   C19647392   2.780   4.120   0.047  0.4051 -0.5286 -0.2588
  139MOL   O19747393   2.540   4.162   7.994 -0.4806 -0.0732  0.1810
  139MOL   H19847394   2.497   3.986   0.066  1.4568 -1.2735  0.3353
  139MOL   H19947395   2.564   3.845   8.054  0.8315 -0.6621 -2.2229
  139MOL   H20047396   2.588   4.007   7.865 -0.6897  0.2750 -0.0805
  139MOL   H20147397   2.792   3.893   7.883 -0.4576 -0.8822  1.0520
  139MOL   H20247398   3.035   3.869   7.966 -1.2519 -1.9228  0.6224
  139MOL   H20347399   3.094   4.006   0.101  1.0374 -0.0580 -2.1853
  139MOL   H20447400   2.933   4.160   0.195  1.2598  2.7988 -1.2917
  139MOL   H20547401   2.715   4.191   0.095  2.3235 -0.9770  3.1740
  139MOL   C20647402   2.448   4.211   7.899 -0.5032 -0.4378  0.1978
  139MOL   C20747403   2.378   4.341   7.941 -0.7227 -0.3594  0.0345
  139MOL   C20847404   2.264   4.367   7.854  0.0144  0.2328 -0.3508
  139MOL   C20947405   2.280   4.424   7.723 -0.3733  0.0085  0.5023
  139MOL   C21047406   2.164   4.460   7.646 -0.3683 -0.2037  0.7316
  139MOL   C21147407   2.032   4.421   7.691 -0.3656 -0.0272 -0.6405
  139MOL   C21247408   2.019   4.353   7.818 -0.1737  0.3411 -0.7026
  139MOL   C21347409   2.133   4.337   7.897 -0.8148  0.3212 -0.1107
  139MOL   O21447410   2.482   4.440   7.916  0.4716 -0.0197 -0.3387
  139MOL   H21547411   2.494   4.228   7.801  0.4845  2.3492  1.1062
  139MOL   H21647412   2.370   4.136   7.889 -2.0991  1.2309 -0.1875
  139MOL   H21747413   2.346   4.338   8.045  0.0654 -1.0675  0.2633
  139MOL   H21847414   2.380   4.454   7.696 -0.8907  1.8321  0.5768
  139MOL   H21947415   2.174   4.515   7.554 -0.7399 -0.8452  0.3034
  139MOL   H22047416   1.942   4.424   7.632 -1.2435  0.7722  0.7236
  139MOL   H22147417   1.924   4.312   7.848 -0.0468  0.2616 -0.4198
  139MOL   H22247418   2.121   4.293   7.995 -4.8048  0.3373 -0.5082
  139MOL   C22347419   2.580   4.458   8.014  0.0325 -0.2277 -0.1280
  139MOL   C22447420   2.643   4.600   7.992  0.8662  0.6759  0.4732
  139MOL   C22547421   2.537   4.718   8.006  0.2284  0.0913 -0.3406
  139MOL   C22647422   2.468   4.767   7.895 -0.3674  0.8251 -0.0024
  139MOL   C22747423   2.391   4.883   7.894 -0.3391 -1.2735 -0.2473
  139MOL   C22847424   2.378   4.947   8.019 -0.0793 -0.6080 -0.3053
  139MOL   C22947425   2.430   4.894   0.060 -0.2430  0.9367 -0.1184
  139MOL   C23047426   2.514   4.780   0.054 -0.3668  0.1453 -0.5040
  139MOL   O23147427   2.750   4.605   0.004  0.5078 -0.8329  0.2699
  139MOL   H23247428   2.533   4.456   0.032  0.0989  1.1612 -0.0576
  139MOL   H23347429   2.648   4.375   7.996 -0.1018 -0.3364 -0.1346
  139MOL   H23447430   2.685   4.593   7.892 -1.0396  2.1203 -0.4528
  139MOL   H23547431   2.475   4.693   7.817  0.7531  0.9911 -0.0676
  139MOL   H23647432   2.337   4.915   7.806 -0.3141 -0.1770  0.1318
  139MOL   H23747433   2.309   5.030   8.015 -0.1124 -0.4627  2.1839
  139MOL   H23847434   2.419   4.924   0.163 -1.6001 -1.2708  0.4254
  139MOL   H23947435   2.569   4.738   0.136 -0.4666 -2.7277 -1.8535
  139MOL   C24047436   2.882   4.555   8.052 -0.1960 -0.2715  0.6448
  139MOL   C24147437   2.959   4.646   7.954 -0.6119  0.0617  0.7707
  139MOL   C24247438   3.111   4.614   7.952 -0.8379  0.7133  0.0842
  139MOL   C24347439   3.157   4.494   7.888 -0.6530  0.1922  0.3313
  139MOL   C24447440   3.288   4.455   7.897  0.7296 -0.0074 -0.3093
  139MOL   C24547441   3.376   4.536   7.980 -0.6594 -0.4179 -0.3779
  139MOL   C24647442   3.332   4.650   8.036  0.3920 -0.1252 -0.0868
  139MOL   C24747443   3.202   4.694   8.018 -0.5082  0.2454  0.1022
  139MOL   O24847444   2.902   4.609   7.828 -0.2547  0.4179 -0.2996
  139MOL   H24947445   2.948   4.548   0.059 -0.8759 -2.5786  0.9893
  139MOL   H25047446   2.882   4.454   8.013  1.6330  0.2704 -0.8789
  139MOL   H25147447   2.936   4.750   7.974  2.7806  0.8812  0.6035
  139MOL   H25247448   3.080   4.431   7.846 -0.5791  0.4864 -0.2659
  139MOL   H25347449   3.318   4.363   7.851  1.4034  0.3045 -0.4974
  139MOL   H25447450   3.477   4.502   7.997 -0.9340 -2.1593 -2.0530
  139MOL   H25547451   3.399   4.719   0.006  0.1794 -0.7971  1.1307
  139MOL   H25647452   3.168   4.783   8.069  2.2209  1.5498 -0.2630
  139MOL   C25747453   2.892   4.715   7.737 -0.4648  0.0185 -0.1902
  139MOL   C25847454   2.839   4.660   7.603  0.1864 -0.0631 -0.1241
  139MOL   C25947455   2.942   4.586   7.520 -0.2614  0.5207 -0.5140
  139MOL   C26047456   2.962   4.451   7.548 -0.9304  0.5276 -0.0246
  139MOL   C26147457   3.061   4.378   7.487  0.2948 -0.1701 -0.2167
  139MOL   C26247458   3.133   4.438   7.383 -0.4651  0.1265 -0.7589
  139MOL   C26347459   3.111   4.567   7.345 -0.0897 -0.2685  0.9289
  139MOL   C26447460   3.020   4.649   7.419  0.2965  0.1015 -0.3672
  139MOL   O26547461   2.795   4.776   7.535  0.6385 -0.2466 -0.1530
  139MOL   H26647462   2.988   4.765   7.722  0.1779 -0.4954  1.9936
  139MOL   H26747463   2.819   4.784   7.780  0.7158  1.7212 -0.8432
  139MOL   H26847464   2.753   4.600   7.635 -0.6650 -0.3356 -2.7457
  139MOL   H26947465   2.904   4.408   7.627 -0.3647 -1.2083 -0.5413
  139MOL   H27047466   3.085   4.277   7.517 -0.2952 -0.3408 -0.3166
  139MOL   H27147467   3.204   4.378   7.327  0.0691 -0.1616  0.2162
  139MOL   H27247468   3.166   4.624   7.271 -0.1445  2.2819  2.7860
  139MOL   H27347469   2.997   4.752   7.395  1.2091  0.5503  0.6152
  139MOL   C27447470   2.659   4.806   7.547  0.4842 -0.2514 -0.2762
  139MOL   C27547471   2.573   4.736   7.436  0.0650 -0.5555 -0.8009
  139MOL   C27647472   2.442   4.807   7.435 -0.2865 -0.2248  0.3449
  139MOL   C27747473   2.345   4.780   7.537  0.2906 -0.7422 -1.1111
  139MOL   C27847474   2.231   4.858   7.547  0.1623 -0.1772  0.5344
  139MOL   C27947475   2.214   4.968   7.455 -0.3505 -0.2223 -0.2742
  139MOL   C28047476   2.308   4.997   7.354  0.5296  1.1460 -0.2282
  139MOL   C28147477   2.422   4.913   7.349  0.0772  0.0838  0.1848
  139MOL   O28247478   2.552   4.597   7.461  0.6144  0.0728 -0.2347
  139MOL   H28347479   2.628   4.792   7.650  0.0580 -4.4809 -0.8838
  139MOL   H28447480   2.658   4.913   7.524 -1.4342 -0.3037 -0.5084
  139MOL   H28547481   2.616   4.752   7.337  1.7968 -0.7939 -0.0888
  139MOL   H28647482   2.371   4.697   7.601  1.8818 -0.1101 -0.9360
  139MOL   H28747483   2.169   4.827   7.630 -2.3818  0.2872 -1.1513
  139MOL   H28847484   2.135   5.039   7.476  0.0482  0.0819  0.2312
  139MOL   H28947485   2.305   5.084   7.291  2.4288  0.6917 -0.9856
  139MOL   H29047486   2.500   4.935   7.278  0.4106  1.3420  0.9393
  139MOL   C29147487   2.501   4.520   7.356  0.2510  1.5116 -0.1556
  139MOL   C29247488   2.606   4.465   7.252  0.1575  1.2936  0.3229
  139MOL   C29347489   2.554   4.348   7.181 -0.2787  0.2107  0.2427
  139MOL   C29447490   2.609   4.218   7.206  0.6087 -0.8598 -0.5801
  139MOL   C29547491   2.565   4.103   7.136  0.8276 -0.0234  0.1321
  139MOL   C29647492   2.449   4.118   7.050 -0.6214  0.1122 -0.4430
  139MOL   C29747493   2.394   4.248   7.028  0.1550  0.0884  0.0707
  139MOL   C29847494   2.448   4.359   7.094 -0.7655  0.1281  0.4092
  139MOL   O29947495   2.639   4.573   7.161  0.1822 -0.0039  0.4024
  139MOL   H30047496   2.417   4.560   7.299  0.4735 -0.2258 -1.7539
  139MOL   H30147497   2.449   4.435   7.400 -2.4345  3.7359  1.1071
  139MOL   H30247498   2.696   4.436   7.306 -0.2400  0.0805  0.3681
  139MOL   H30347499   2.682   4.201   7.284 -0.4428 -1.6446  0.2526
  139MOL   H30447500   2.620   4.011   7.149 -1.8894 -1.6887  0.2237
  139MOL   H30547501   2.407   4.039   6.990  0.7932  0.8432 -2.4599
  139MOL   H30647502   2.321   4.256   6.949 -1.7804  2.3850  2.0071
  139MOL   H30747503   2.404   4.455   7.073  1.3227  0.4127 -3.2983
  139MOL   C30847504   2.778   4.587   7.135 -0.0296 -0.1438 -0.3789
  139MOL   C30947505   2.795   4.698   7.028  0.7076 -0.0800 -0.9750
  139MOL   C31047506   2.753   4.836   7.080  0.0215 -0.6107 -0.2620
  139MOL   C31147507   2.634   4.903   7.043 -0.5307  0.1967  0.6524
  139MOL   C31247508   2.612   5.035   7.095 -0.2711  0.4550  0.1575
  139MOL   C31347509   2.699   5.091   7.193 -0.1511  0.1343 -0.7944
  139MOL   C31447510   2.808   5.017   7.230  0.1665  0.6031  0.3282
  139MOL   C31547511   2.841   4.894   7.170 -0.3433 -0.7762 -0.0886
  139MOL   O31647512   2.931   4.706   6.987  0.3378 -0.1343  0.6389
  139MOL   H31747513   2.819   4.490   7.107  1.6709  0.5297 -0.2795
  139MOL   H31847514   2.835   4.621   7.221 -1.1524  3.2217 -0.9227
  139MOL   H31947515   2.733   4.678   6.940 -1.0075  1.3753 -0.1163
  139MOL   H32047516   2.566   4.853   6.976  1.2500  0.2284 -1.2130
  139MOL   H32147517   2.529   5.090   7.055  0.3066  0.8664 -0.4808
  139MOL   H32247518   2.684   5.195   7.219  0.1587  0.2662 -1.1317
  139MOL   H32347519   2.876   5.064   7.300  1.6076  0.4683 -0.9486
  139MOL   H32447520   2.933   4.849   7.201  0.6844  1.7220  0.6425
  139MOL   C32547521   3.011   4.593   6.952 -0.4033 -0.2299 -0.5494
  139MOL   C32647522   3.124   4.646   6.865  0.2656 -0.1992 -0.8393
  139MOL   C32747523   3.082   4.720   6.732 -0.0051 -0.2713 -0.3640
  139MOL   C32847524   2.976   4.672   6.652  0.1320  0.3813  0.5915
  139MOL   C32947525   2.960   4.713   6.517 -0.4378 -0.0426 -0.2294
  139MOL   C33047526   3.038   4.812   6.461  0.0246 -0.5445  0.7671
  139MOL   C33147527   3.142   4.869   6.541  0.8105 -0.6714 -0.0641
  139MOL   C33247528   3.173   4.814   6.670  0.5270 -0.6694  0.1802
  139MOL   O33347529   3.220   4.718   6.940  0.1222 -0.1631 -0.2790
  139MOL   H33447530   2.961   4.517   6.892 -0.3130 -0.3306 -0.4977
  139MOL   H33547531   3.049   4.546   7.042  2.5991  1.2439 -0.9950
  139MOL   H33647532   3.185   4.560   6.837  0.3994 -0.3001 -0.2467
  139MOL   H33747533   2.905   4.598   6.685  1.2075 -0.6313  0.6549
  139MOL   H33847534   2.885   4.657   6.463 -0.3452 -0.0972 -0.3010
  139MOL   H33947535   3.013   4.830   6.358  0.7939 -0.1516  0.6442
  139MOL   H34047536   3.205   4.946   6.499  0.5332 -1.4362 -1.9307
  139MOL   H34147537   3.265   4.845   6.717  0.9253 -0.4780 -0.7081
  139MOL   H34247538   3.215   4.811   6.928 -1.5236 -0.2012 -0.0057
  140MOL     C147539   2.001   0.249   1.041 -0.5597  0.2439 -0.4679
  140MOL     C247540   2.040   0.328   0.912  0.6217 -0.1964  1.5534
  140MOL     C347541   2.042   0.479   0.928 -0.5770  0.0321 -0.5157
  140MOL     C447542   1.946   0.570   0.879  0.2614  0.6098 -0.2367
  140MOL     C547543   1.953   0.707   0.902  0.4784 -0.3602  0.1346
  140MOL     C647544   2.059   0.768   0.970 -0.6611 -0.2143  0.0644
  140MOL     C747545   2.164   0.681   1.017 -0.1213  0.2404  0.0886
  140MOL     C847546   2.158   0.541   0.993  0.0466  0.0104  0.1749
  140MOL     O947547   1.936   0.292   0.819  0.3045  0.1431 -0.1366
  140MOL    H1047548   2.066   0.287   1.120 -1.6551  0.8360  0.1660
  140MOL    H1147549   1.901   0.261   1.083 -0.1424 -0.5241  0.7702
  140MOL    H1247550   2.143   0.303   0.883  1.2829  1.1965  2.6549
  140MOL    H1347551   1.858   0.529   0.831 -0.2426  1.1099  0.2533
  140MOL    H1447552   1.869   0.766   0.869  3.0070  1.2503 -3.9575
  140MOL    H1547553   2.073   0.873   0.991  3.2945 -0.9891  1.8025
  140MOL    H1647554   2.245   0.730   1.069  0.2171  0.6975 -0.8749
  140MOL    H1747555   2.238   0.477   1.028  0.3113 -0.6120 -1.5181
  140MOL    H1847556   2.010   0.142   1.026  0.6555  0.5216 -1.9403
  140MOL    C1947557   1.986   0.267   0.694 -0.0154  0.1555 -0.3994
  140MOL    C2047558   1.888   0.284   0.578  0.5435 -0.5333  0.8460
  140MOL    C2147559   1.838   0.427   0.573 -0.4463 -0.0673  0.2357
  140MOL    C2247560   1.929   0.529   0.530  0.6635  0.4190  0.7389
  140MOL    C2347561   1.891   0.668   0.530  0.3872  0.2594  1.1560
  140MOL    C2447562   1.760   0.697   0.579  0.5935  0.1634 -0.6324
  140MOL    C2547563   1.676   0.595   0.638 -0.0147  0.4936 -0.0746
  140MOL    C2647564   1.711   0.459   0.617  0.6109 -0.0942 -0.5624
  140MOL    O2747565   1.795   0.178   0.590 -0.1327 -0.3744 -0.8692
  140MOL    H2847566   2.061   0.344   0.679  0.3860 -0.4688 -1.6702
  140MOL    H2947567   2.032   0.169   0.687 -0.9408 -0.3017 -0.2440
  140MOL    H3047568   1.944   0.273   0.485 -4.2905 -0.8993 -2.2103
  140MOL    H3147569   2.031   0.502   0.505 -0.0554 -1.6418 -0.0647
  140MOL    H3247570   1.960   0.743   0.495  1.4450  0.3056  3.2847
  140MOL    H3347571   1.739   0.803   0.585  0.6936  0.2189 -1.1653
  140MOL    H3447572   1.582   0.620   0.685 -0.1226 -0.1234  0.0461
  140MOL    H3547573   1.645   0.383   0.657 -1.9366  2.0822 -0.5135
  140MOL    C3647574   1.735   0.137   0.471  1.0523 -0.2647  0.0008
  140MOL    C3747575   1.622   0.037   0.493  1.6008  1.1237 -0.4811
  140MOL    C3847576   1.581   8.064   0.355 -0.2018 -0.8279 -0.1929
  140MOL    C3947577   1.634   7.943   0.303 -0.1933 -0.5667 -0.4635
  140MOL    C4047578   1.598   7.895   0.178  0.3418 -0.0112 -0.3824
  140MOL    C4147579   1.496   7.963   0.105  0.1053 -0.0141  0.1777
  140MOL    C4247580   1.449   0.006   0.148 -0.8568  0.6213 -0.3258
  140MOL    C4347581   1.494   0.062   0.273  0.1429 -0.3180  0.3561
  140MOL    O4447582   1.513   0.110   0.559 -0.0659 -0.3723  0.1815
  140MOL    H4547583   1.696   0.230   0.428 -0.4220 -0.8317  0.0735
  140MOL    H4647584   1.811   0.113   0.397 -0.0720 -0.3522 -1.1623
  140MOL    H4747585   1.655   8.029   0.548 -2.9164  0.2652  1.0552
  140MOL    H4847586   1.702   7.885   0.363  0.5644 -0.5698 -1.3327
  140MOL    H4947587   1.638   7.798   0.152 -1.8433 -1.3571  1.0693
  140MOL    H5047588   1.464   7.933   0.006 -2.2991 -0.8620  1.1734
  140MOL    H5147589   1.379   0.066   0.092 -2.0718  1.4590  2.0191
  140MOL    H5247590   1.442   0.154   0.298  2.0375  0.9669 -0.2875
  140MOL    C5347591   1.416   0.033   0.628 -0.3801  0.2642  0.1816
  140MOL    C5447592   1.341   0.126   0.722 -0.4348  0.4511  0.2483
  140MOL    C5547593   1.309   0.266   0.663  0.3468  0.2377  1.2038
  140MOL    C5647594   1.271   0.273   0.526  0.3974 -0.7074  0.4169
  140MOL    C5747595   1.251   0.399   0.470 -0.3926 -0.0443  0.0639
  140MOL    C5847596   1.258   0.521   0.543 -0.3411  0.3107 -0.3267
  140MOL    C5947597   1.306   0.510   0.675  0.7188 -0.8821 -0.1631
  140MOL    C6047598   1.331   0.381   0.735 -1.3090  0.4806  0.0208
  140MOL    O6147599   1.237   0.059   0.790 -0.1478 -0.5798  0.1716
  140MOL    H6247600   1.354   8.066   0.551 -0.9594  1.0469  0.1656
  140MOL    H6347601   1.454   8.032   0.691  1.1248  1.2269  0.5148
  140MOL    H6447602   1.415   0.148   0.799  0.4252  3.4204 -1.3078
  140MOL    H6547603   1.252   0.180   0.474 -1.5303  1.1338 -2.3165
  140MOL    H6647604   1.226   0.392   0.365 -0.6554  1.3580  0.0269
  140MOL    H6747605   1.241   0.612   0.487  0.6927  0.3740 -0.5516
  140MOL    H6847606   1.335   0.603   0.723  0.0539  1.7283 -4.5617
  140MOL    H6947607   1.371   0.373   0.835 -0.3059 -0.6936 -0.4684
  140MOL    C7047608   1.140   0.127   0.867  1.2327 -0.1545 -0.6290
  140MOL    C7147609   1.052   0.037   0.952  0.2151  0.7562  0.0665
  140MOL    C7247610   1.131   8.038   1.056  0.3563  0.0398  0.5016
  140MOL    C7347611   1.195   0.030   1.159 -0.5930 -0.3259 -0.2976
  140MOL    C7447612   1.283   8.052   1.247  0.2364 -0.3975 -0.1487
  140MOL    C7547613   1.304   7.913   1.243  0.2211  0.0211  0.1330
  140MOL    C7647614   1.224   7.831   1.155  0.1519  0.1568  0.7874
  140MOL    C7747615   1.143   7.894   1.055 -0.1149  0.6091 -0.0808
  140MOL    O7847616   0.977   8.034   0.862 -0.1879  0.1443  0.1405
  140MOL    H7947617   1.193   0.192   0.936  1.5364 -0.8369 -0.2171
  140MOL    H8047618   1.084   0.192   0.800 -1.2211 -1.1991  0.3444
  140MOL    H8147619   0.980   0.092   1.013 -0.4310  1.9041 -1.6723
  140MOL    H8247620   1.175   0.137   1.158  0.1935 -0.1463  1.4662
  140MOL    H8347621   1.343   0.038   1.309 -1.6255 -0.5053  1.8263
  140MOL    H8447622   1.382   7.870   1.305  0.5731 -1.2810 -1.1761
  140MOL    H8547623   1.250   7.726   1.146 -0.1998 -0.0839  2.4570
  140MOL    H8647624   1.094   7.829   0.984  1.5968 -1.2785  0.4019
  140MOL    C8747625   0.837   8.038   0.850  0.0238 -0.2245 -0.6072
  140MOL    C8847626   0.781   7.914   0.788  0.2523 -0.1651  0.4144
  140MOL    C8947627   0.648   7.945   0.712 -0.0124  0.3781  0.2551
  140MOL    C9047628   0.658   7.977   0.577  0.7839 -0.7189  0.3478
  140MOL    C9147629   0.544   8.021   0.512 -0.2390 -0.5829 -0.0957
  140MOL    C9247630   0.418   8.016   0.568 -0.1201 -1.0440 -0.4238
  140MOL    C9347631   0.410   7.979   0.704  0.4357  0.7615 -0.1368
  140MOL    C9447632   0.525   7.942   0.777  0.7700 -0.0188  0.1396
  140MOL    O9547633   0.777   7.823   0.899  0.0130 -0.9350 -0.3135
  140MOL    H9647634   0.828   0.045   0.784 -1.3795  0.4097  0.3826
  140MOL    H9747635   0.785   8.072   0.939  0.1417 -1.6665  0.0140
  140MOL    H9847636   0.858   7.881   0.718  0.7760  0.8316  0.5051
  140MOL    H9947637   0.753   7.984   0.526 -0.0855  0.3435 -1.1744
  140MOL   H10047638   0.563   8.055   0.411 -0.5982 -0.7194 -0.2107
  140MOL   H10147639   0.329   8.054   0.519  0.5961  2.3280  0.7516
  140MOL   H10247640   0.315   7.984   0.755 -1.2654  0.4293 -3.1152
  140MOL   H10347641   0.524   7.916   0.881  2.5496  0.0018  0.1743
  140MOL   C10447642   0.809   7.686   0.871  0.0381  0.4124 -0.5237
  140MOL   C10547643   0.799   7.603   1.002  0.6757  0.2246 -0.0184
  140MOL   C10647644   0.658   7.580   1.052  0.2018 -0.5332 -0.1957
  140MOL   C10747645   0.565   7.683   1.058 -0.6863 -0.4454  0.0107
  140MOL   C10847646   0.436   7.661   1.119 -0.2243  0.1269  0.7868
  140MOL   C10947647   0.417   7.537   1.185  0.2744 -0.0769 -0.0493
  140MOL   C11047648   0.508   7.429   1.169 -0.5358  0.8051  0.0917
  140MOL   C11147649   0.620   7.451   1.092 -0.5377  0.7507 -0.1309
  140MOL   O11247650   0.878   7.479   0.970  0.3718 -0.0358 -0.1976
  140MOL   H11347651   0.744   7.651   0.791  0.2431  0.7534 -0.8417
  140MOL   H11447652   0.908   7.682   0.824 -0.2012 -1.0417 -0.9318
  140MOL   H11547653   0.856   7.663   1.073  2.1389 -0.5641 -0.4937
  140MOL   H11647654   0.585   7.783   1.022 -3.0517  0.4957  1.1830
  140MOL   H11747655   0.376   7.751   1.119  0.5698  0.6665 -0.3149
  140MOL   H11847656   0.330   7.522   1.247 -0.2593 -1.4913 -1.1223
  140MOL   H11947657   0.497   7.338   1.226 -1.2920 -0.4532 -2.0441
  140MOL   H12047658   0.692   7.371   1.081 -1.6382 -0.5245  1.5744
  140MOL   C12147659   0.973   7.433   1.071  0.3114  0.0056  0.2274
  140MOL   C12247660   1.114   7.409   1.019  0.5578 -0.7370 -0.7235
  140MOL   C12347661   1.129   7.283   0.932 -0.7696  0.0511  0.6362
  140MOL   C12447662   1.101   7.156   0.986 -0.2938 -0.0888  0.4463
  140MOL   C12547663   1.115   7.043   0.910 -0.2687 -0.3078  0.5440
  140MOL   C12647664   1.164   7.044   0.780  0.2689 -0.0641  1.2830
  140MOL   C12747665   1.194   7.170   0.722  0.3018 -0.8000 -0.2697
  140MOL   C12847666   1.178   7.288   0.798 -0.1549 -0.4366 -0.4576
  140MOL   O12947667   1.164   7.538   0.970 -0.0310 -0.4768 -0.3789
  140MOL   H13047668   0.926   7.352   1.127  2.6231 -2.5548 -1.3845
  140MOL   H13147669   0.983   7.507   1.150 -1.1136  0.3790  0.0611
  140MOL   H13247670   1.170   7.377   1.106 -1.5887 -2.0078  0.2156
  140MOL   H13347671   1.064   7.155   1.087  0.1632 -1.2204  0.6067
  140MOL   H13447672   1.089   6.951   0.959  0.9090 -1.4877 -0.9957
  140MOL   H13547673   1.197   6.958   0.723  2.0793 -1.5113  4.4007
  140MOL   H13647674   1.221   7.180   0.618 -0.4541  1.3714 -0.2852
  140MOL   H13747675   1.200   7.388   0.766 -0.2580  0.4833  2.2269
  140MOL   C13847676   1.304   7.545   0.960  0.4322  0.4139 -0.1826
  140MOL   C13947677   1.352   7.660   0.872  0.4769  0.6590 -0.1967
  140MOL   C14047678   1.506   7.662   0.866  0.5212  0.6341 -0.2266
  140MOL   C14147679   1.574   7.757   0.942  0.1386  0.2110 -0.2266
  140MOL   C14247680   1.714   7.753   0.958 -0.1385  0.2042 -0.5684
  140MOL   C14347681   1.786   7.649   0.899  0.0775  0.3763  0.4212
  140MOL   C14447682   1.719   7.559   0.818 -0.0022  0.5577  0.1059
  140MOL   C14547683   1.580   7.564   0.800  0.8902 -0.3728  0.2401
  140MOL   O14647684   1.287   7.647   0.742  0.0356 -0.2017 -0.0242
  140MOL   H14747685   1.350   7.449   0.936  1.2212  0.7253  0.0665
  140MOL   H14847686   1.342   7.566   1.060  0.3895  1.6477 -0.4176
  140MOL   H14947687   1.312   7.754   0.911 -0.0889 -0.8560  2.9752
  140MOL   H15047688   1.520   7.837   0.991 -0.3700 -1.8753  2.7663
  140MOL   H15147689   1.766   7.820   1.026 -2.2199  0.0807  1.1791
  140MOL   H15247690   1.892   7.648   0.917 -0.1911  0.9534  2.1578
  140MOL   H15347691   1.777   7.490   0.759  1.0516  0.2023  1.5565
  140MOL   H15447692   1.533   7.483   0.747 -0.8257 -0.4710  1.8858
  140MOL   C15547693   1.305   7.756   0.658  0.2688  0.1323 -0.8557
  140MOL   C15647694   1.183   7.746   0.555 -0.4957 -0.2034  0.0314
  140MOL   C15747695   1.148   7.875   0.480 -0.0432  0.2433 -0.0124
  140MOL   C15847696   1.094   7.982   0.552  0.1062 -0.6207  0.1473
  140MOL   C15947697   1.062   0.024   0.484  0.4893 -0.1677  0.1529
  140MOL   C16047698   1.083   0.035   0.342  0.3294 -0.9933 -0.0753
  140MOL   C16147699   1.137   8.008   0.271 -0.6375  0.5509 -0.2323
  140MOL   C16247700   1.176   7.890   0.342  0.0546 -0.1122  0.2114
  140MOL   O16347701   1.209   7.632   0.468  0.1118 -0.2828 -0.1469
  140MOL   H16447702   1.397   7.734   0.604  0.2487  2.3327 -1.8438
  140MOL   H16547703   1.303   7.850   0.713 -0.4158 -1.6327  2.3017
  140MOL   H16647704   1.091   7.728   0.610  1.6944 -0.8447  3.6082
  140MOL   H16747705   1.079   7.976   0.659 -0.2684  0.0613  0.1363
  140MOL   H16847706   1.012   0.101   0.540 -1.9266 -1.1557 -0.5910
  140MOL   H16947707   1.052   0.127   0.294  2.4041  0.5207  1.3639
  140MOL   H17047708   1.148   8.010   0.163  1.0349  1.2737 -0.0673
  140MOL   H17147709   1.212   7.804   0.287  1.3534 -0.9814  2.3695
  140MOL   C17247710   1.149   7.512   0.505  0.0129 -0.0831  0.1787
  140MOL   C17347711   1.025   7.473   0.419 -0.1394 -0.1012 -0.4352
  140MOL   C17447712   1.059   7.465   0.270  0.4383 -0.1609  0.4979
  140MOL   C17547713   1.054   7.582   0.190  0.2174 -0.6059  0.2413
  140MOL   C17647714   1.088   7.580   0.056  0.0355 -0.6108  0.7633
  140MOL   C17747715   1.128   7.462   8.079 -0.3145  0.3806  0.2069
  140MOL   C17847716   1.129   7.348   0.077 -0.3823  0.3584  0.3700
  140MOL   C17947717   1.106   7.349   0.213  0.2900  0.3889 -0.5902
  140MOL   O18047718   0.932   7.583   0.439 -0.4936  0.0077  0.4905
  140MOL   H18147719   1.224   7.434   0.493 -0.6350 -0.6765 -0.0656
  140MOL   H18247720   1.131   7.517   0.613  0.5124  1.4256  0.2061
  140MOL   H18347721   0.983   7.377   0.448 -0.8081  0.0866 -0.7570
  140MOL   H18447722   1.033   7.681   0.227  1.4932 -0.1965 -0.0823
  140MOL   H18547723   1.100   7.678   0.012 -1.1134 -0.0363  1.6987
  140MOL   H18647724   1.146   7.456   7.973 -0.0397 -0.2816  0.2940
  140MOL   H18747725   1.148   7.255   0.027  1.7125  2.2654 -2.5742
  140MOL   H18847726   1.103   7.262   0.276  5.0846  1.8527  1.8838
  140MOL   C18947727   0.837   7.553   0.546  0.4239  0.2718  0.1327
  140MOL   C19047728   0.714   7.481   0.488 -0.3652  0.1062 -0.2132
  140MOL   C19147729   0.583   7.505   0.566 -0.1857  0.5786 -0.4212
  140MOL   C19247730   0.509   7.625   0.536  0.2919  0.9667 -0.5607
  140MOL   C19347731   0.393   7.653   0.606  0.1465  0.6781  0.1228
  140MOL   C19447732   0.367   7.578   0.724  0.3495 -0.0708  0.4479
  140MOL   C19547733   0.433   7.456   0.755  0.2584  0.3661  0.1896
  140MOL   C19647734   0.535   7.416   0.667 -0.2022  0.0445  1.0638
  140MOL   O19747735   0.755   7.344   0.477  0.5485  0.3711 -0.9674
  140MOL   H19847736   0.883   7.498   0.628 -3.3301 -0.7479  1.6642
  140MOL   H19947737   0.806   7.645   0.595  0.2674 -0.0919  0.7260
  140MOL   H20047738   0.698   7.517   0.386 -0.9772  1.1531  0.2459
  140MOL   H20147739   0.534   7.690   0.454 -0.7294  1.8724 -0.1624
  140MOL   H20247740   0.340   7.744   0.586 -0.7378  0.4347  1.3458
  140MOL   H20347741   0.290   7.618   0.788 -0.2249 -1.2496  0.4971
  140MOL   H20447742   0.414   7.398   0.844  1.6294  0.5650  0.6283
  140MOL   H20547743   0.587   7.322   0.681 -0.4364 -0.0482  1.3078
  140MOL   C20647744   0.665   7.249   0.409 -0.1164 -0.3073  0.0778
  140MOL   C20747745   0.729   7.172   0.294 -0.3874  0.1430 -0.1291
  140MOL   C20847746   0.632   7.179   0.172  0.3361  0.1205 -0.3084
  140MOL   C20947747   0.637   7.284   0.079  0.9262 -0.4423  0.0392
  140MOL   C21047748   0.533   7.300   8.054  0.0253  0.1283  0.5499
  140MOL   C21147749   0.435   7.206   8.051 -0.5459 -0.0686  0.0399
  140MOL   C21247750   0.442   7.093   0.054  0.0461  0.2367 -0.7771
  140MOL   C21347751   0.537   7.077   0.152 -0.2773  0.3190 -0.6816
  140MOL   O21447752   0.767   7.040   0.330 -0.3015  0.0403 -0.3960
  140MOL   H21547753   0.648   7.174   0.487 -0.6609  0.3340  0.5825
  140MOL   H21647754   0.565   7.289   0.392 -0.2559  0.2889  2.1553
  140MOL   H21747755   0.822   7.224   0.272  0.5828 -1.4838  0.0489
  140MOL   H21847756   0.706   7.366   0.098  0.7472 -0.2578 -0.1087
  140MOL   H21947757   0.534   7.383   7.985  1.6571 -1.6836 -1.7009
  140MOL   H22047758   0.368   7.207   7.966  0.4799 -0.9526 -0.8042
  140MOL   H22147759   0.369   7.015   0.036 -0.4408  0.6095 -0.4244
  140MOL   H22247760   0.538   6.990   0.216  0.1621  1.9307  1.5822
  140MOL   C22347761   0.896   7.029   0.392 -0.1924 -0.4456 -0.0314
  140MOL   C22447762   0.886   6.928   0.506  0.1793  0.3316 -0.4751
  140MOL   C22547763   0.784   6.973   0.612  0.1864  0.5288 -0.0194
  140MOL   C22647764   0.653   6.922   0.619  1.2670  0.1703 -0.5220
  140MOL   C22747765   0.566   6.989   0.713 -0.1763  0.9354 -0.1550
  140MOL   C22847766   0.612   7.085   0.810  0.9376 -0.8815  0.8035
  140MOL   C22947767   0.747   7.135   0.793  0.5387  0.1427 -0.0224
  140MOL   C23047768   0.833   7.069   0.702  0.6902 -0.0102 -0.4352
  140MOL   O23147769   0.854   6.801   0.447 -0.0955 -0.3213 -0.3564
  140MOL   H23247770   0.975   7.003   0.322 -0.3701  1.2730 -0.8932
  140MOL   H23347771   0.920   7.119   0.448  1.6084 -1.4523  0.8693
  140MOL   H23447772   0.980   6.929   0.561 -0.2455 -0.7535  0.2931
  140MOL   H23547773   0.605   6.863   0.543  0.8914  3.1956 -2.7198
  140MOL   H23647774   0.464   6.954   0.724  0.3996 -1.0929 -0.8722
  140MOL   H23747775   0.543   7.129   0.880  2.6268  1.8327  0.8019
  140MOL   H23847776   0.796   7.208   0.857  1.5256  0.1406 -0.7651
  140MOL   H23947777   0.934   7.107   0.696  0.5303  0.2826 -1.3566
  140MOL   C24047778   0.866   6.684   0.528 -0.4118  0.7528 -0.0928
  140MOL   C24147779   0.794   6.556   0.471  0.1226 -0.1811  0.1851
  140MOL   C24247780   0.660   6.586   0.408 -0.3356 -0.5897 -0.2369
  140MOL   C24347781   0.649   6.675   0.301 -0.4846 -1.1919  0.1754
  140MOL   C24447782   0.534   6.697   0.233  0.4110  0.4916  0.3875
  140MOL   C24547783   0.421   6.626   0.273 -0.9571  0.4037  0.6996
  140MOL   C24647784   0.422   6.547   0.394  0.3353  0.0286  0.3203
  140MOL   C24747785   0.542   6.527   0.460  0.2039 -0.3632 -0.3034
  140MOL   O24847786   0.890   6.492   0.385 -0.1950  0.1373 -0.6621
  140MOL   H24947787   0.972   6.664   0.536 -1.2461 -3.5928  1.4193
  140MOL   H25047788   0.841   6.701   0.633  2.1671 -2.1984  1.0528
  140MOL   H25147789   0.799   6.496   0.561 -0.9896  0.6015  0.7750
  140MOL   H25247790   0.738   6.725   0.265 -0.9452 -0.7411 -0.3488
  140MOL   H25347791   0.529   6.762   0.146  0.6060 -1.9672 -1.5034
  140MOL   H25447792   0.323   6.634   0.228 -0.3333  0.6950 -0.6316
  140MOL   H25547793   0.336   6.486   0.419  0.4223 -0.1383  0.2122
  140MOL   H25647794   0.551   6.477   0.555 -0.2419  0.5197  0.2079
  140MOL   C25747795   0.863   6.354   0.349 -0.4829 -0.0321 -0.1984
  140MOL   C25847796   0.967   6.298   0.252  0.1528 -0.3133 -0.5027
  140MOL   C25947797   1.107   6.296   0.308  0.4914  0.5414 -0.3568
  140MOL   C26047798   1.183   6.410   0.298  0.1748 -0.3686 -0.0336
  140MOL   C26147799   1.312   6.417   0.353  0.0888 -0.3671  0.1539
  140MOL   C26247800   1.367   6.310   0.419 -0.0392  0.0418  0.9690
  140MOL   C26347801   1.293   6.191   0.427  0.4046 -0.8902  0.2990
  140MOL   C26447802   1.162   6.183   0.369  0.1430  0.6790 -0.5124
  140MOL   O26547803   0.945   6.377   0.135  0.5880 -0.5135 -0.4561
  140MOL   H26647804   0.766   6.361   0.300 -0.6232 -1.3516 -0.1162
  140MOL   H26747805   0.850   6.293   0.438 -2.1955 -2.0208 -1.7962
  140MOL   H26847806   0.941   6.196   0.223 -1.7984 -0.4312  1.5493
  140MOL   H26947807   1.143   6.498   0.250  0.8542  1.2734  2.2668
  140MOL   H27047808   1.362   6.513   0.347 -1.8547  0.5483 -1.9478
  140MOL   H27147809   1.460   6.332   0.468  0.8813  1.5917 -1.3475
  140MOL   H27247810   1.335   6.107   0.480 -0.2952 -1.8751 -0.6725
  140MOL   H27347811   1.100   6.095   0.371  0.0423  0.7617  0.4872
  140MOL   C27447812   1.036   6.368   0.026 -0.2377  0.2107  0.2305
  140MOL   C27547813   0.993   6.480   8.003 -0.4232  0.0576  0.2305
  140MOL   C27647814   1.046   6.457   7.858  0.0460  0.4907  1.0743
  140MOL   C27747815   1.151   6.540   7.813 -0.1974  0.0916 -0.0878
  140MOL   C27847816   1.201   6.519   7.685 -0.3444  0.2197 -0.8288
  140MOL   C27947817   1.154   6.413   7.608  0.7134 -0.9965  0.0486
  140MOL   C28047818   1.048   6.331   7.650 -0.0012 -0.4087  0.6800
  140MOL   C28147819   0.994   6.354   7.776 -0.0810  0.4211  0.2126
  140MOL   O28247820   1.036   6.602   8.065 -0.3149 -0.3178 -0.0917
  140MOL   H28347821   1.139   6.379   0.059  0.4061  0.1082 -1.6804
  140MOL   H28447822   1.027   6.276   8.048  1.4180 -0.4995  1.0890
  140MOL   H28547823   0.885   6.490   7.994 -0.1523  1.1957 -1.9913
  140MOL   H28647824   1.203   6.609   7.877 -1.5039  0.4993  0.5638
  140MOL   H28747825   1.289   6.572   7.650  0.4610 -1.1996 -0.9669
  140MOL   H28847826   1.201   6.407   7.511  1.8726  0.7238  0.4628
  140MOL   H28947827   1.026   6.243   7.590  1.7130  0.8427 -1.8330
  140MOL   H29047828   0.927   6.276   7.810  0.8008 -0.0358  0.9379
  140MOL   C29147829   0.946   6.667   0.080  0.1739 -0.5543 -0.0068
  140MOL   C29247830   0.887   6.800   0.028 -0.0655  0.5807  0.3561
  140MOL   C29347831   0.997   6.886   8.038 -0.1050 -0.9943  0.1105
  140MOL   C29447832   1.007   6.892   7.902  0.0113 -0.6458 -0.4396
  140MOL   C29547833   1.110   6.956   7.831  0.3117  0.2168  0.8376
  140MOL   C29647834   1.214   7.006   7.914 -0.0602 -0.4959  0.2739
  140MOL   C29747835   1.215   6.997   8.058 -0.5513  0.1974  0.7093
  140MOL   C29847836   1.097   6.946   0.030 -0.2153 -0.3642 -0.6466
  140MOL   O29947837   0.785   6.763   8.017  0.2211 -0.5258  0.2546
  140MOL   H30047838   1.000   6.685   0.174 -0.5231 -0.0019  0.2937
  140MOL   H30147839   0.861   6.604   0.109 -0.8668 -0.5186 -2.9061
  140MOL   H30247840   0.841   6.856   0.110  1.1057  0.0446  1.3856
  140MOL   H30347841   0.928   6.834   7.855  1.0085 -0.7119 -2.0784
  140MOL   H30447842   1.112   6.948   7.723 -0.6989 -3.1481  1.0132
  140MOL   H30547843   1.308   7.043   7.876 -0.5628 -0.3969 -0.8838
  140MOL   H30647844   1.304   7.030   0.029 -0.3730  0.9121 -0.0602
  140MOL   H30747845   1.098   6.940   0.138 -0.9880  0.7782 -0.5781
  140MOL   C30847846   0.686   6.862   7.985 -0.5639  0.7320 -0.3302
  140MOL   C30947847   0.589   6.817   7.884 -0.2447  0.0995  0.9175
  140MOL   C31047848   0.669   6.777   7.757  0.1807 -0.6005 -0.0580
  140MOL   C31147849   0.735   6.655   7.753  0.2210  0.1451  0.3636
  140MOL   C31247850   0.803   6.624   7.633 -0.4449 -0.1630  0.1140
  140MOL   C31347851   0.803   6.715   7.530  0.6265 -0.1426 -0.1820
  140MOL   C31447852   0.754   6.845   7.540  0.0920 -0.2333  0.0691
  140MOL   C31547853   0.684   6.874   7.653  0.0836 -0.4616 -0.1629
  140MOL   O31647854   0.514   6.712   7.933 -0.2622 -0.3912  0.3073
  140MOL   H31747855   0.717   6.962   7.954  0.5647  0.0130 -1.5689
  140MOL   H31847856   0.630   6.873   8.078 -2.0278  1.2826 -1.2764
  140MOL   H31947857   0.512   6.889   7.859 -1.8128 -2.3797 -1.7272
  140MOL   H32047858   0.726   6.577   7.828  0.4961  0.0436  0.2926
  140MOL   H32147859   0.844   6.525   7.627  1.2533  0.3779  2.4886
  140MOL   H32247860   0.846   6.687   7.434  1.4091  1.4352 -0.2963
  140MOL   H32347861   0.762   6.917   7.459  2.3066 -0.3231  0.1721
  140MOL   H32447862   0.639   6.971   7.664 -1.3927 -0.8424 -2.6607
  140MOL   C32547863   0.404   6.658   7.851 -0.3762 -0.3204 -0.1951
  140MOL   C32647864   0.363   6.521   7.909  0.3130  0.3102  0.1031
  140MOL   C32747865   0.471   6.412   7.907  0.0767  0.2396 -0.1762
  140MOL   C32847866   0.565   6.402   8.017  0.1436 -0.0038  0.6847
  140MOL   C32947867   0.662   6.299   8.015  0.4831 -0.4790  0.1846
  140MOL   C33047868   0.673   6.211   7.909 -0.2511 -0.2746  0.8086
  140MOL   C33147869   0.584   6.224   7.800  0.5308  0.2849  0.1777
  140MOL   C33247870   0.483   6.324   7.802  0.3729 -0.5914  0.4923
  140MOL   O33347871   0.296   6.549   8.030 -0.5941 -0.1439 -0.5452
  140MOL   H33447872   0.438   6.651   7.747 -1.3383  0.2329 -0.5510
  140MOL   H33547873   0.319   6.726   7.842  0.2749  0.3757 -1.2049
  140MOL   H33647874   0.274   6.492   7.853 -0.0237 -0.8220  1.2165
  140MOL   H33747875   0.557   6.463   0.026 -0.0146 -2.1861  2.2132
  140MOL   H33847876   0.732   6.299   0.018  1.1086  1.4028 -0.3130
  140MOL   H33947877   0.756   6.142   7.907  0.2360  0.3046  0.8786
  140MOL   H34047878   0.594   6.141   7.731 -1.2052  0.7678 -0.6858
  140MOL   H34147879   0.414   6.325   7.718 -0.0591  1.3951  0.8527
  140MOL   H34247880   0.362   6.560   0.017 -1.6003 -2.7450  0.9949
  141MOL     C147881   0.916   3.449   7.792  0.2420 -0.2366 -0.2564
  141MOL     C247882   0.985   3.402   7.924 -0.4727 -0.1203 -0.5462
  141MOL     C347883   0.884   3.379   8.038 -0.4445  0.0331 -0.0365
  141MOL     C447884   0.854   3.491   0.033  0.4719 -0.2580 -0.0338
  141MOL     C547885   0.759   3.486   0.138  0.0646  1.0284  0.0544
  141MOL     C647886   0.699   3.359   0.164 -0.6160 -0.4366 -0.1131
  141MOL     C747887   0.730   3.244   0.086 -0.5644 -0.1000  0.6026
  141MOL     C847888   0.820   3.255   8.062 -0.6221  0.0264  0.3648
  141MOL     O947889   1.100   3.486   7.962  0.1676 -0.3654  0.0449
  141MOL    H1047890   0.817   3.405   7.784 -0.6873  1.9679 -1.4114
  141MOL    H1147891   0.891   3.555   7.778  0.6328 -0.2635 -1.2044
  141MOL    H1247892   1.017   3.301   7.897 -1.4630 -0.9529  1.3268
  141MOL    H1347893   0.883   3.592   0.006 -2.3362  0.3167 -1.0240
  141MOL    H1447894   0.732   3.570   0.200  0.2456  1.8513 -0.9735
  141MOL    H1547895   0.623   3.340   0.238  0.4480 -4.3588  0.1042
  141MOL    H1647896   0.672   3.153   0.089  1.9292 -1.8135 -0.9386
  141MOL    H1747897   0.833   3.171   7.996  0.2911 -1.4304  2.3527
  141MOL    H1847898   0.971   3.421   7.703 -1.7904  1.2054 -2.0107
  141MOL    C1947899   1.190   3.424   8.050  0.6639  0.3735  0.1674
  141MOL    C2047900   1.320   3.400   7.966 -0.4899 -0.5540  0.2273
  141MOL    C2147901   1.361   3.538   7.911  0.0448 -0.0307 -0.2217
  141MOL    C2247902   1.395   3.555   7.776  0.0770  0.1508  0.0839
  141MOL    C2347903   1.435   3.678   7.725  0.4391  0.1013 -0.9436
  141MOL    C2447904   1.438   3.790   7.809 -0.3147  0.1129  0.5266
  141MOL    C2547905   1.407   3.775   7.950 -0.0213 -0.6183  0.2243
  141MOL    C2647906   1.370   3.646   8.000  0.1397 -0.3240  1.2124
  141MOL    O2747907   1.293   3.302   7.866 -0.2378  0.4857 -0.4730
  141MOL    H2847908   1.197   3.490   0.056  0.4685 -0.5018  0.8719
  141MOL    H2947909   1.154   3.332   0.018  2.1996  0.3381  1.3000
  141MOL    H3047910   1.403   3.368   8.029  0.5766  1.5214 -0.0732
  141MOL    H3147911   1.403   3.466   7.716  1.6265  0.9923 -0.9975
  141MOL    H3247912   1.461   3.683   7.620  1.6460 -0.3557 -0.6835
  141MOL    H3347913   1.485   3.884   7.786 -2.4277  0.7761 -1.2201
  141MOL    H3447914   1.415   3.857   8.019  1.2326 -0.8847  0.4183
  141MOL    H3547915   1.345   3.641   0.025 -1.6605 -2.6917  0.7116
  141MOL    C3647916   1.305   3.167   7.909  0.0565 -0.3857  0.4000
  141MOL    C3747917   1.275   3.077   7.795  0.7239  0.2712 -0.5735
  141MOL    C3847918   1.122   3.076   7.761 -0.4221  0.4069  0.0282
  141MOL    C3947919   1.066   3.141   7.648  0.0606  0.1883  0.4859
  141MOL    C4047920   0.930   3.121   7.614  0.2057  0.1887 -0.2128
  141MOL    C4147921   0.843   3.050   7.697 -1.1898  0.7771 -0.2333
  141MOL    C4247922   0.891   2.995   7.816  1.1300  0.5476  0.8024
  141MOL    C4347923   1.028   3.012   7.852 -0.1375 -0.3289 -0.1950
  141MOL    O4447924   1.317   2.947   7.829  0.4361 -0.7991 -0.3515
  141MOL    H4547925   1.406   3.150   7.948 -0.4574 -0.7817  1.6042
  141MOL    H4647926   1.228   3.144   7.983 -0.3079 -1.1587 -0.2163
  141MOL    H4747927   1.332   3.102   7.705 -0.0973  0.0958 -1.1534
  141MOL    H4847928   1.136   3.193   7.584  1.1680 -2.3753 -0.4879
  141MOL    H4947929   0.879   3.175   7.536 -1.5464  1.6141  1.8641
  141MOL    H5047930   0.739   3.045   7.668 -1.0540  4.1143 -1.5555
  141MOL    H5147931   0.827   2.938   7.882 -0.3183 -1.0597 -1.9120
  141MOL    H5247932   1.062   2.963   7.942  0.4618 -0.2316 -0.3680
  141MOL    C5347933   1.371   2.861   7.734  0.3582 -0.2836  0.9766
  141MOL    C5447934   1.433   2.731   7.787 -0.3855 -0.4890  0.1838
  141MOL    C5547935   1.539   2.762   7.896  0.2717  0.1056  0.1136
  141MOL    C5647936   1.669   2.791   7.859 -0.0158 -0.8622  0.2553
  141MOL    C5747937   1.756   2.842   7.961 -0.5263  0.3906 -0.9448
  141MOL    C5847938   1.715   2.832   0.017 -0.1320  0.5107 -0.4703
  141MOL    C5947939   1.586   2.803   0.049 -0.2144  1.1278  0.0798
  141MOL    C6047940   1.494   2.769   8.033  0.3950 -0.4397  0.8390
  141MOL    O6147941   1.329   2.646   7.834 -0.4514 -0.4517  0.3744
  141MOL    H6247942   1.318   2.842   7.641 -1.0211 -3.5452  2.3495
  141MOL    H6347943   1.454   2.921   7.697  0.4280 -0.7363  0.3737
  141MOL    H6447944   1.480   2.687   7.699  0.0325  0.1140  0.0963
  141MOL    H6547945   1.694   2.774   7.756 -0.8498  0.0094 -0.1010
  141MOL    H6647946   1.850   2.887   7.933 -0.7233  0.6838 -1.1292
  141MOL    H6747947   1.786   2.872   0.088 -1.3460 -2.5316  2.5566
  141MOL    H6847948   1.547   2.817   0.149  1.4349 -0.8464  1.0647
  141MOL    H6947949   1.389   2.753   8.053  0.4246 -0.3876  1.0325
  141MOL    C7047950   1.376   2.512   7.846  0.3658 -0.2116  0.1458
  141MOL    C7147951   1.272   2.415   7.912 -0.4615 -0.1304 -0.3224
  141MOL    C7247952   1.262   2.453   8.062  0.7081  1.1597 -0.4206
  141MOL    C7347953   1.372   2.422   0.071 -0.0214  0.1581 -0.7142
  141MOL    C7447954   1.349   2.428   0.213 -0.2533 -0.3289 -0.2889
  141MOL    C7547955   1.228   2.482   0.260  0.3473 -0.6016 -0.0108
  141MOL    C7647956   1.132   2.537   0.168  0.9004  0.6798  0.3623
  141MOL    C7747957   1.143   2.512   0.029 -0.4713 -0.2683  0.5581
  141MOL    O7847958   1.320   2.287   7.878  0.1212  0.4771 -0.3849
  141MOL    H7947959   1.388   2.468   7.747 -0.8786 -1.0450  0.3457
  141MOL    H8047960   1.470   2.498   7.899  0.8844 -1.0199 -0.9714
  141MOL    H8147961   1.178   2.423   7.859 -0.4464 -2.8627 -0.8328
  141MOL    H8247962   1.469   2.382   0.043  0.9086  1.1191  0.9974
  141MOL    H8347963   1.408   2.386   0.292 -0.2514  0.8948  0.3787
  141MOL    H8447964   1.205   2.481   0.366 -0.0771  4.0651  0.0436
  141MOL    H8547965   1.046   2.589   0.207 -1.9609 -2.1446 -1.9112
  141MOL    H8647966   1.062   2.536   8.042  0.4543  1.5182  0.0489
  141MOL    C8747967   1.238   2.175   7.919  0.3098 -0.0965 -0.1697
  141MOL    C8847968   1.113   2.164   7.829  0.1980  0.5238  0.1040
  141MOL    C8947969   1.142   2.185   7.679 -0.3438  0.0271 -0.1035
  141MOL    C9047970   1.200   2.083   7.600  0.3786 -0.6839 -0.8338
  141MOL    C9147971   1.231   2.097   7.462 -0.4374  0.4032  0.2096
  141MOL    C9247972   1.199   2.215   7.401 -0.4638  0.6829  0.0705
  141MOL    C9347973   1.141   2.323   7.470  0.2903  0.1024 -0.1349
  141MOL    C9447974   1.107   2.302   7.607 -0.1809 -0.2587 -0.1159
  141MOL    O9547975   1.023   2.256   7.881  0.0210  0.0147 -0.9056
  141MOL    H9647976   1.220   2.190   8.025  0.8021 -2.4506  0.2760
  141MOL    H9747977   1.300   2.087   7.902  1.3752  0.4906  0.5709
  141MOL    H9847978   1.064   2.066   7.834 -0.9875  1.0964 -0.0600
  141MOL    H9947979   1.237   1.991   7.643  2.0370  0.6257  0.5820
  141MOL   H10047980   1.288   2.016   7.420  1.7449  1.3504  1.2575
  141MOL   H10147981   1.224   2.233   7.298 -2.4563 -0.0785 -0.5627
  141MOL   H10247982   1.114   2.413   7.416  0.7911  0.1021 -0.3988
  141MOL   H10347983   1.056   2.379   7.663  2.0824  2.2923 -1.4501
  141MOL   C10447984   0.887   2.230   7.846  0.5489 -0.1815  0.0562
  141MOL   C10547985   0.788   2.348   7.873  0.5062  0.1304 -0.1461
  141MOL   C10647986   0.795   2.445   7.757 -0.2313  0.5332  0.2755
  141MOL   C10747987   0.724   2.426   7.637 -0.6195 -0.6420  0.2275
  141MOL   C10847988   0.747   2.507   7.528  0.0326  0.6025 -0.1654
  141MOL   C10947989   0.831   2.623   7.533  0.0144  1.5927  0.2296
  141MOL   C11047990   0.899   2.639   7.660  0.2354 -0.2605  0.0059
  141MOL   C11147991   0.882   2.554   7.770 -0.7239  0.0016 -0.2630
  141MOL   O11247992   0.656   2.294   7.889 -0.7209 -0.0634  0.5251
  141MOL   H11347993   0.875   2.197   7.743  0.6349 -1.7634  0.5452
  141MOL   H11447994   0.846   2.140   7.893  0.3351  0.7134  1.5993
  141MOL   H11547995   0.822   2.394   7.966  0.2295 -0.5768  0.3150
  141MOL   H11647996   0.668   2.334   7.635 -0.6987 -0.6798  2.8788
  141MOL   H11747997   0.691   2.480   7.440  0.0019 -1.7708  0.5460
  141MOL   H11847998   0.848   2.689   7.449 -2.4783  1.8622 -0.1034
  141MOL   H11947999   0.970   2.720   7.660 -1.0551  0.8800  0.0263
  141MOL   H12048000   0.937   2.575   7.860 -3.2715  1.0970  1.0921
  141MOL   C12148001   0.560   2.380   7.946  0.5783  0.0609 -0.3128
  141MOL   C12248002   0.468   2.308   8.048  0.1443 -1.8105 -0.8011
  141MOL   C12348003   0.403   2.181   8.000 -0.1037 -0.3542 -0.1884
  141MOL   C12448004   0.361   2.158   7.862  0.2323  0.0002  0.8197
  141MOL   C12548005   0.287   2.043   7.832  0.2441  0.1339 -0.3701
  141MOL   C12648006   0.257   1.951   7.933  0.0345  1.0096  0.1191
  141MOL   C12748007   0.307   1.969   8.062  0.4801  0.2754  0.2142
  141MOL   C12848008   0.373   2.083   0.020 -0.0643  0.2363 -0.0063
  141MOL   O12948009   0.524   2.285   0.102  0.5459 -1.0541  0.6051
  141MOL   H13048010   0.494   2.392   7.860  2.3541  0.1482 -1.6947
  141MOL   H13148011   0.606   2.473   7.980 -1.0676  0.0461  2.0578
  141MOL   H13248012   0.391   2.384   8.061  0.4863 -1.6283  0.1668
  141MOL   H13348013   0.380   2.234   7.788  1.6874 -1.1440 -0.0075
  141MOL   H13448014   0.260   2.023   7.729 -1.2664  1.2505 -0.2063
  141MOL   H13548015   0.198   1.862   7.913  0.3861  1.5218 -3.5732
  141MOL   H13648016   0.289   1.890   0.053  1.5766 -0.2945 -0.1239
  141MOL   H13748017   0.388   2.098   0.125 -0.9137  1.9855 -0.1206
  141MOL   C13848018   0.580   2.402   0.161  0.4953 -0.1741 -0.0087
  141MOL   C13948019   0.580   2.379   0.319  0.3472 -0.6037  1.2582
  141MOL   C14048020   0.702   2.453   0.374 -0.2859 -0.9844 -0.0394
  141MOL   C14148021   0.825   2.382   0.408 -0.0088  0.4304  0.7047
  141MOL   C14248022   0.935   2.454   0.453 -0.2482 -1.0490 -0.0754
  141MOL   C14348023   0.944   2.591   0.447  0.0651 -0.5758 -0.1878
  141MOL   C14448024   0.832   2.661   0.409  0.0506 -0.5203  0.3235
  141MOL   C14548025   0.714   2.597   0.365  0.2637 -0.0914 -0.2624
  141MOL   O14648026   0.460   2.434   0.377  0.3713 -0.0826  0.0693
  141MOL   H14748027   0.523   2.492   0.138  0.2210 -0.2993  0.1794
  141MOL   H14848028   0.682   2.425   0.131  0.5931  1.2163  1.3233
  141MOL   H14948029   0.592   2.278   0.357  1.3831 -1.5226 -1.3739
  141MOL   H15048030   0.820   2.274   0.404 -0.8037  0.4747  0.4358
  141MOL   H15148031   1.015   2.387   0.480  0.5453  0.2694  0.9113
  141MOL   H15248032   1.029   2.644   0.488 -0.1332  1.1904 -1.9302
  141MOL   H15348033   0.831   2.768   0.405 -1.8466 -0.5699 -0.6474
  141MOL   H15448034   0.632   2.657   0.329  2.2022  1.3096 -2.4985
  141MOL   C15548035   0.343   2.361   0.385 -0.4967  0.6892 -0.7830
  141MOL   C15648036   0.212   2.445   0.388  0.1506  0.0211 -0.6135
  141MOL   C15748037   0.216   2.545   0.504 -0.4154  0.2603 -0.1422
  141MOL   C15848038   0.236   2.501   0.636  0.1094  0.0884 -0.1672
  141MOL   C15948039   0.240   2.588   0.745 -0.9255 -0.1158  0.1705
  141MOL   C16048040   0.196   2.721   0.728 -0.3037  0.0838  0.0875
  141MOL   C16148041   0.166   2.768   0.596  0.7449  0.3944 -0.4762
  141MOL   C16248042   0.169   2.679   0.490  0.3416 -0.2399 -0.4020
  141MOL   O16348043   0.211   2.521   0.264 -0.4708  0.0445  0.9931
  141MOL   H16448044   0.352   2.278   0.455 -0.5422  1.9078  0.6808
  141MOL   H16548045   0.341   2.307   0.290 -2.0029 -1.3992  0.3915
  141MOL   H16648046   0.126   2.382   0.406  1.4603 -1.8467 -0.7835
  141MOL   H16748047   0.258   2.396   0.644  0.9895 -0.1216 -4.2227
  141MOL   H16848048   0.259   2.563   0.848  0.6587  2.0458  0.4624
  141MOL   H16948049   0.194   2.790   0.811  2.5766  0.9411 -0.4656
  141MOL   H17048050   0.119   2.865   0.582 -0.8559 -0.4044 -0.7551
  141MOL   H17148051   0.140   2.722   0.395  0.6644 -1.4111 -1.0386
  141MOL   C17248052   0.160   2.442   0.158 -0.5102  0.2558  0.8074
  141MOL   C17348053   0.122   2.519   0.031  0.1884 -0.1035 -0.1721
  141MOL   C17448054   0.012   2.439   8.029 -0.0074 -0.8316  0.9801
  141MOL   C17548055   0.052   2.337   7.938  0.0052  0.3698 -0.7258
  141MOL   C17648056   8.045   2.274   7.850  0.3487  0.3034  0.2059
  141MOL   C17748057   7.906   2.302   7.869 -0.0028 -0.3575  0.3629
  141MOL   C17848058   7.864   2.398   7.957  0.6678 -1.0068 -0.4167
  141MOL   C17948059   7.954   2.474   8.037 -0.2045 -0.5094  0.1128
  141MOL   O18048060   0.245   2.547   8.046  0.5428  0.0720  0.0086
  141MOL   H18148061   0.223   2.362   0.119  1.2890  1.8843  0.2817
  141MOL   H18248062   0.063   2.400   0.185  0.0407 -2.1119 -0.7614
  141MOL   H18348063   0.075   2.614   0.057 -1.1539 -0.8202  0.0652
  141MOL   H18448064   0.159   2.327   7.930  0.1838  1.4175  0.2857
  141MOL   H18548065   8.072   2.189   7.789 -0.1439  0.1010  0.2671
  141MOL   H18648066   7.828   2.250   7.814 -0.1350  0.2500 -0.0258
  141MOL   H18748067   7.761   2.413   7.985  0.9140  0.1990 -0.1277
  141MOL   H18848068   7.910   2.544   0.026 -1.3010 -0.8677 -0.2203
  141MOL   C18948069   0.241   2.639   7.942 -0.2017 -0.0212  1.1096
  141MOL   C19048070   0.386   2.667   7.897  0.8467 -0.4286  0.5185
  141MOL   C19148071   0.479   2.720   8.006 -0.1094 -0.7838 -0.8497
  141MOL   C19248072   0.613   2.716   7.967  0.3996 -0.6354 -0.3134
  141MOL   C19348073   0.710   2.752   8.060  0.3562 -0.4964 -0.2509
  141MOL   C19448074   0.677   2.804   0.103 -0.4576 -0.2340 -0.0239
  141MOL   C19548075   0.544   2.813   0.142  0.0412 -0.4791  0.0828
  141MOL   C19648076   0.444   2.764   0.055  0.4134  0.1195 -0.1334
  141MOL   O19748077   0.371   2.751   7.783  0.3335 -0.0954  0.0678
  141MOL   H19848078   0.170   2.610   7.865 -0.5811  2.6087  0.4280
  141MOL   H19948079   0.193   2.733   7.972 -0.4783  0.0821  0.3510
  141MOL   H20048080   0.418   2.569   7.859  3.5800 -0.2266  2.1653
  141MOL   H20148081   0.638   2.687   7.866  1.5993  1.5881 -0.6834
  141MOL   H20248082   0.814   2.749   8.031  0.3854 -1.0020 -0.1090
  141MOL   H20348083   0.758   2.830   0.169 -0.8326 -1.8617  1.1095
  141MOL   H20448084   0.519   2.847   0.242  2.8795 -2.0343  1.3941
  141MOL   H20548085   0.345   2.755   0.095  0.6956  1.4350  0.9046
  141MOL   C20648086   0.407   2.692   7.659 -0.5546  0.5237 -0.3389
  141MOL   C20748087   0.310   2.584   7.620  0.0394 -0.3906 -0.0453
  141MOL   C20848088   0.359   2.517   7.499  0.0237 -0.0907  0.1440
  141MOL   C20948089   0.356   2.588   7.379  0.1487  0.0792  0.0570
  141MOL   C21048090   0.389   2.528   7.257  0.3307 -0.1271  0.3283
  141MOL   C21148091   0.443   2.397   7.255 -0.2438  0.0857  0.1106
  141MOL   C21248092   0.461   2.331   7.383  0.3275 -0.4144 -0.0664
  141MOL   C21348093   0.420   2.390   7.499 -0.6610 -0.5261  0.1209
  141MOL   O21448094   0.196   2.667   7.580  0.2261 -0.6909  0.3845
  141MOL   H21548095   0.403   2.774   7.587 -0.6808  0.4901 -0.3707
  141MOL   H21648096   0.510   2.658   7.666 -0.5547  0.2608 -1.5983
  141MOL   H21748097   0.278   2.510   7.693  0.9504  0.7946  1.5777
  141MOL   H21848098   0.309   2.684   7.366 -0.2790 -0.2654 -1.0889
  141MOL   H21948099   0.379   2.586   7.167  1.2053 -1.7379 -0.8399
  141MOL   H22048100   0.461   2.356   7.157  0.4619  2.4241 -0.7562
  141MOL   H22148101   0.504   2.232   7.390  1.5713  0.1671  0.7528
  141MOL   H22248102   0.425   2.338   7.593 -0.1902 -1.0937 -0.2121
  141MOL   C22348103   0.077   2.596   7.562  0.7717  0.0032  0.0734
  141MOL   C22448104   8.041   2.698   7.551 -0.0903 -0.0617  0.5708
  141MOL   C22548105   8.030   2.762   7.685 -0.5678 -0.0803  0.1593
  141MOL   C22648106   0.016   2.875   7.726 -0.1679  0.1236  0.3252
  141MOL   C22748107   0.010   2.926   7.856 -0.7425  0.1360 -0.2528
  141MOL   C22848108   8.005   2.863   7.951 -0.3640  0.6513  0.1930
  141MOL   C22948109   7.927   2.754   7.911 -0.2164  0.3490  0.1820
  141MOL   C23048110   7.941   2.706   7.781  0.2778  0.0358  0.1143
  141MOL   O23148111   8.061   2.779   7.437 -0.3002 -0.1116 -0.5153
  141MOL   H23248112   0.075   2.531   7.474 -2.5185  0.9116 -0.6010
  141MOL   H23348113   0.058   2.535   7.650  1.4464  1.9861  1.6425
  141MOL   H23448114   7.958   2.630   7.530  1.3025 -1.5163 -0.3029
  141MOL   H23548115   0.085   2.920   7.656 -0.3447  0.2407  0.2251
  141MOL   H23648116   0.077   3.004   7.890  1.7045 -2.0838  0.1913
  141MOL   H23748117   7.995   2.905   8.049 -0.6824  0.9496  0.0288
  141MOL   H23848118   7.855   2.710   7.978 -0.0526 -1.1215 -0.6047
  141MOL   H23948119   7.899   2.614   7.743 -1.9336  0.7850  0.6911
  141MOL   C24048120   7.949   2.862   7.406 -0.2279  0.6330 -0.0394
  141MOL   C24148121   7.992   2.955   7.282 -0.7599  0.1820  0.5090
  141MOL   C24248122   0.047   3.019   7.314 -0.2273 -0.5846  0.4840
  141MOL   C24348123   0.154   3.028   7.224  1.0205  0.2557  0.0577
  141MOL   C24448124   0.274   3.096   7.254  0.3389  0.0632 -0.3048
  141MOL   C24548125   0.292   3.161   7.376  0.3972  0.1877 -0.4803
  141MOL   C24648126   0.179   3.165   7.464 -0.1262  0.8069  0.9724
  141MOL   C24748127   0.059   3.094   7.433 -0.4549 -0.1979 -0.3524
  141MOL   O24848128   7.987   2.893   7.158  0.4736 -0.3752 -0.4709
  141MOL   H24948129   7.859   2.804   7.385  0.4074  0.3068 -1.8857
  141MOL   H25048130   7.921   2.920   7.495 -0.6642  0.0582  0.2011
  141MOL   H25148131   7.923   3.039   7.278 -0.7660  0.3142  2.7668
  141MOL   H25248132   0.148   2.977   7.130 -1.4905  1.8222 -0.6795
  141MOL   H25348133   0.349   3.093   7.176 -0.6051  3.3995 -1.4210
  141MOL   H25448134   0.387   3.206   7.400 -0.5519  3.1350 -1.9737
  141MOL   H25548135   0.183   3.226   7.554  0.8259 -0.2996  1.6868
  141MOL   H25648136   8.050   3.112   7.492 -0.4217 -3.2797  0.7222
  141MOL   C25748137   7.871   2.903   7.081 -0.9047  0.0996 -0.9680
  141MOL   C25848138   7.870   2.810   6.961 -0.0178  0.2880  0.2094
  141MOL   C25948139   7.759   2.848   6.852  0.2244  0.8830 -0.6044
  141MOL   C26048140   7.729   2.977   6.816  0.0664 -0.1560 -1.1113
  141MOL   C26148141   7.635   3.000   6.716  0.1234  0.2139 -0.9106
  141MOL   C26248142   7.580   2.893   6.642  0.7893 -0.0629  0.5852
  141MOL   C26348143   7.614   2.759   6.669  0.6732 -0.4916  0.3832
  141MOL   C26448144   7.703   2.736   6.772  0.7809 -0.9683 -0.0884
  141MOL   O26548145   7.841   2.683   7.015 -0.1723  0.3226 -0.0476
  141MOL   H26648146   7.851   3.007   7.055 -2.7497 -0.2523 -1.0045
  141MOL   H26748147   7.783   2.879   7.141 -0.2636  1.3150  0.4932
  141MOL   H26848148   7.962   2.803   6.903 -0.5996 -2.5480 -0.4205
  141MOL   H26948149   7.780   3.062   6.860 -0.0027 -0.4661 -0.4203
  141MOL   H27048150   7.616   3.102   6.687 -1.6649  0.5031  1.1532
  141MOL   H27148151   7.513   2.915   6.560  0.8041  1.5424  0.9946
  141MOL   H27248152   7.571   2.675   6.615 -1.5617  0.3053  0.8450
  141MOL   H27348153   7.743   2.638   6.791  0.5854 -0.4386  3.4905
  141MOL   C27448154   7.934   2.633   7.104  0.0812 -0.6503  0.0583
  141MOL   C27548155   7.931   2.482   7.084 -0.2133 -0.6960 -0.3173
  141MOL   C27648156   7.977   2.441   6.946 -1.2695  0.6578 -0.2342
  141MOL   C27748157   7.889   2.393   6.849  0.1926  0.7601  0.5640
  141MOL   C27848158   7.935   2.347   6.720  0.7732  0.2090  0.6464
  141MOL   C27948159   8.072   2.344   6.691  0.1339  0.1276  0.1605
  141MOL   C28048160   0.086   2.401   6.787 -0.1327  0.4736  0.5201
  141MOL   C28148161   0.034   2.440   6.917  0.2962 -0.9478  0.1857
  141MOL   O28248162   7.808   2.422   7.125  0.8223  0.1366 -0.1197
  141MOL   H28348163   8.032   2.652   7.062  0.0935 -0.3223  0.2391
  141MOL   H28448164   7.921   2.664   7.208 -1.9382 -1.1641 -0.0065
  141MOL   H28548165   7.998   2.439   7.159  0.4329 -3.4570 -2.3909
  141MOL   H28648166   7.782   2.391   6.859 -0.3416 -1.8985 -4.4002
  141MOL   H28748167   7.863   2.312   6.648  2.8143  0.6918 -1.7013
  141MOL   H28848168   0.028   2.308   6.596 -3.1261  1.0389 -1.4973
  141MOL   H28948169   0.191   2.411   6.761 -0.3999  0.5286 -0.5604
  141MOL   H29048170   0.103   2.481   6.988  0.4856 -0.9572  0.0071
  141MOL   C29148171   7.790   2.278   7.133 -0.0477  0.5225 -0.1906
  141MOL   C29248172   7.643   2.231   7.148 -0.0152 -0.0718  0.1202
  141MOL   C29348173   7.626   2.086   7.131 -0.2620  0.3092  0.0250
  141MOL   C29448174   7.612   2.005   7.248 -0.1727  0.8054 -0.3958
  141MOL   C29548175   7.579   1.868   7.241  0.6590 -0.2367  0.5559
  141MOL   C29648176   7.570   1.812   7.110 -0.2572  0.1729  0.1360
  141MOL   C29748177   7.587   1.893   6.995 -0.5009 -0.0153 -0.0570
  141MOL   C29848178   7.623   2.029   7.003  0.1732 -0.2459 -0.0785
  141MOL   O29948179   7.601   2.274   7.278 -0.0419 -0.2653 -0.2810
  141MOL   H30048180   7.856   2.259   7.218  1.3813 -0.6858 -1.5321
  141MOL   H30148181   7.833   2.234   7.042  2.4375 -0.9838  1.6366
  141MOL   H30248182   7.591   2.285   7.069  2.7457 -0.2344 -1.8702
  141MOL   H30348183   7.641   2.041   7.345  0.2902  1.4665 -0.7751
  141MOL   H30448184   7.574   1.806   7.329  2.5613 -0.7776  0.2897
  141MOL   H30548185   7.556   1.706   7.095 -1.7708  0.3367  0.3912
  141MOL   H30648186   7.571   1.845   6.900 -0.8114  1.4023 -0.7231
  141MOL   H30748187   7.635   2.081   6.909 -0.9461  0.6409  0.2679
  141MOL   C30848188   7.479   2.342   7.287  0.3679 -0.3636 -0.3647
  141MOL   C30948189   7.362   2.251   7.249 -0.9220 -0.1973 -0.2589
  141MOL   C31048190   7.225   2.288   7.320  1.2449  0.0773  0.2113
  141MOL   C31148191   7.142   2.180   7.352  0.4506 -0.5833  0.0877
  141MOL   C31248192   7.027   2.203   7.436  0.9056  0.7207  0.1642
  141MOL   C31348193   7.000   2.334   7.477  0.3919  0.1277  0.4000
  141MOL   C31448194   7.081   2.441   7.438 -0.3131  0.3403  0.3575
  141MOL   C31548195   7.195   2.420   7.355 -0.5875  0.5883  0.1727
  141MOL   O31648196   7.353   2.242   7.105  0.0675  0.0127 -0.0225
  141MOL   H31748197   7.471   2.430   7.223 -2.1310 -0.9700 -0.9289
  141MOL   H31848198   7.464   2.378   7.389 -1.3566  0.0517 -0.7548
  141MOL   H31948199   7.392   2.152   7.283  0.4347  0.6505  1.0846
  141MOL   H32048200   7.173   2.080   7.325 -0.9346 -1.2440  0.8838
  141MOL   H32148201   6.966   2.117   7.460  0.9562  0.9731  1.1989
  141MOL   H32248202   6.909   2.354   7.532  0.8245  1.0655  0.7986
  141MOL   H32348203   7.043   2.540   7.460 -0.9995  0.4497 -1.3179
  141MOL   H32448204   7.255   2.505   7.327  0.7459 -0.5559 -0.5244
  141MOL   C32548205   7.302   2.362   7.043 -0.3197 -0.3610 -0.3570
  141MOL   C32648206   7.265   2.332   6.897 -0.4911 -0.6129  0.0473
  141MOL   C32748207   7.384   2.287   6.815  0.1976 -0.1856  0.2392
  141MOL   C32848208   7.478   2.381   6.773  0.5933 -0.8387  0.5633
  141MOL   C32948209   7.583   2.351   6.692  0.4915  0.0051  0.7943
  141MOL   C33048210   7.588   2.213   6.649 -0.1571 -0.2485 -0.5875
  141MOL   C33148211   7.499   2.117   6.703 -0.1857  0.3993  0.1126
  141MOL   C33248212   7.398   2.148   6.790 -0.5499  0.8131  0.4055
  141MOL   O33348213   7.156   2.246   6.903 -0.6448 -0.1805 -0.5533
  141MOL   H33448214   7.384   2.434   7.039  0.9364 -1.8271 -1.1841
  141MOL   H33548215   7.211   2.398   7.091 -1.3795 -1.4174 -1.5389
  141MOL   H33648216   7.243   2.432   6.860 -0.7494 -0.1362  1.4481
  141MOL   H33748217   7.462   2.485   6.799  2.5155  0.8001 -4.3124
  141MOL   H33848218   7.644   2.430   6.651 -0.7071  0.2298 -0.5925
  141MOL   H33948219   7.665   2.192   6.577  0.1878 -0.7397 -0.0749
  141MOL   H34048220   7.511   2.012   6.683  0.4846  0.2782  1.1151
  141MOL   H34148221   7.342   2.067   6.835  1.0248 -0.1275  0.7319
  141MOL   H34248222   7.173   2.185   6.974  1.3162  0.7090 -0.2329
  142MOL     C148223   6.234   4.616   6.708 -0.2820  0.3532 -0.0603
  142MOL     C248224   6.100   4.671   6.761  0.3098  0.3697 -0.3333
  142MOL     C348225   6.055   4.780   6.661  0.4852 -0.0574 -0.8493
  142MOL     C448226   6.097   4.914   6.673  0.6010  0.2605 -0.2735
  142MOL     C548227   6.085   5.015   6.570 -0.2290  0.2951  0.4363
  142MOL     C648228   6.026   4.971   6.451  0.0753  0.1622  0.5125
  142MOL     C748229   5.981   4.837   6.438 -0.1323 -0.7741  0.1338
  142MOL     C848230   5.989   4.748   6.548  0.4742  0.1431 -0.1255
  142MOL     O948231   6.136   4.722   6.890  0.0584 -0.2604  0.6398
  142MOL    H1048232   6.321   4.683   6.712  0.9269 -1.0757 -1.5484
  142MOL    H1148233   6.274   4.540   6.774  0.3112  0.0471 -0.7604
  142MOL    H1248234   6.025   4.594   6.779  0.3578 -0.2918 -2.8428
  142MOL    H1348235   6.155   4.949   6.757 -0.3709  0.1017  0.4731
  142MOL    H1448236   6.129   5.110   6.596  0.0009  0.2842  0.0887
  142MOL    H1548237   6.007   5.035   6.366  1.6639 -0.0314 -0.0205
  142MOL    H1648238   5.939   4.808   6.343  3.3082  2.7391 -2.6358
  142MOL    H1748239   5.971   4.642   6.540 -0.4772  0.3364 -0.6645
  142MOL    H1848240   6.225   4.582   6.604  0.5628 -0.3681  0.0966
  142MOL    C1948241   6.028   4.745   6.989  0.8565 -0.2110  0.2618
  142MOL    C2048242   6.094   4.806   7.112  0.2389  0.4007 -0.3261
  142MOL    C2148243   6.011   4.768   7.231  0.8026  0.4439 -0.1505
  142MOL    C2248244   5.885   4.829   7.247 -0.1494  0.0444 -0.1176
  142MOL    C2348245   5.795   4.790   7.346  0.3535  0.0955 -0.7068
  142MOL    C2448246   5.830   4.694   7.439  0.0263  0.3994 -0.5525
  142MOL    C2548247   5.955   4.631   7.424  0.3741  0.4147 -0.1346
  142MOL    C2648248   6.049   4.671   7.322 -0.0860  0.0252 -0.2317
  142MOL    O2748249   6.099   4.949   7.093  0.1195  0.4954 -0.2856
  142MOL    H2848250   5.951   4.811   6.950  2.2409  0.6495 -1.0623
  142MOL    H2948251   5.992   4.646   7.015  2.2785 -1.1301 -1.1875
  142MOL    H3048252   6.186   4.749   7.124 -0.8569 -1.0040  1.6206
  142MOL    H3148253   5.847   4.897   7.172 -0.9750 -0.3409 -0.0574
  142MOL    H3248254   5.700   4.840   7.359  0.0080 -0.7585  0.1700
  142MOL    H3348255   5.771   4.673   7.527 -0.9685  0.3397 -1.2363
  142MOL    H3448256   5.984   4.557   7.497  1.8631  0.8914 -0.2320
  142MOL    H3548257   6.149   4.629   7.315  0.8872  2.5015 -1.8127
  142MOL    C3648258   6.183   5.016   7.180 -0.0207  0.1523 -0.4924
  142MOL    C3748259   6.326   4.962   7.170 -0.8029 -0.0846 -0.0267
  142MOL    C3848260   6.376   4.951   7.023 -0.1672 -0.7678  0.0260
  142MOL    C3948261   6.344   5.051   6.935 -0.0325  0.0941 -0.4390
  142MOL    C4048262   6.386   5.046   6.801  0.0986  0.4519 -0.1601
  142MOL    C4148263   6.473   4.941   6.761  0.0654  0.2106 -0.0824
  142MOL    C4248264   6.511   4.849   6.852  0.5739  0.3054  0.0456
  142MOL    C4348265   6.456   4.845   6.984 -0.3644 -0.7832  0.3053
  142MOL    O4448266   6.354   4.843   7.252  0.2229 -0.2618  0.7119
  142MOL    H4548267   6.183   5.124   7.167  0.6798  0.1618 -0.4327
  142MOL    H4648268   6.150   5.014   7.284  0.9970  0.1998 -0.1664
  142MOL    H4748269   6.383   5.042   7.218 -2.5896  0.4696  1.2510
  142MOL    H4848270   6.276   5.128   6.969 -0.4395 -0.6068  0.3484
  142MOL    H4948271   6.353   5.131   6.743  0.7985  0.7065 -0.1882
  142MOL    H5048272   6.504   4.932   6.658  0.5627  0.8126  0.0137
  142MOL    H5148273   6.582   4.771   6.829 -0.7101 -0.5268 -1.1638
  142MOL    H5248274   6.484   4.768   7.055  2.7666 -0.2401 -0.2664
  142MOL    C5348275   6.388   4.871   7.391  0.1052 -0.0276  0.0139
  142MOL    C5448276   6.538   4.878   7.406 -0.6630 -0.4445  0.4754
  142MOL    C5548277   6.565   4.947   7.539  0.3536 -0.1364  0.0669
  142MOL    C5648278   6.546   4.883   7.664 -0.4665  0.2999 -0.0730
  142MOL    C5748279   6.581   4.947   7.787  0.0743 -0.4040 -0.4316
  142MOL    C5848280   6.638   5.075   7.782 -0.0698 -0.0692  0.1971
  142MOL    C5948281   6.654   5.143   7.656  0.2203 -0.1241  0.3209
  142MOL    C6048282   6.615   5.082   7.533  0.8117 -0.2254  0.2055
  142MOL    O6148283   6.573   4.746   7.399 -0.2404 -0.4426 -0.0979
  142MOL    H6248284   6.341   4.961   7.430 -1.4284 -0.3726 -0.9786
  142MOL    H6348285   6.348   4.788   7.450  2.7775  0.4011  2.5275
  142MOL    H6448286   6.570   4.942   7.324  1.1538  1.1992  2.4043
  142MOL    H6548287   6.517   4.779   7.669  4.4903 -1.1297  2.4575
  142MOL    H6648288   6.565   4.884   7.874  1.1938  0.8342  0.7000
  142MOL    H6748289   6.662   5.133   7.870  3.6857 -1.3596  0.1208
  142MOL    H6848290   6.683   5.246   7.663  0.1118 -0.0542 -0.2561
  142MOL    H6948291   6.629   5.136   7.441 -1.0114 -1.1403 -0.6367
  142MOL    C7048292   6.685   4.717   7.318  0.3450 -0.0290 -0.9204
  142MOL    C7148293   6.708   4.567   7.340 -0.8541  0.2586  0.6772
  142MOL    C7248294   6.731   4.540   7.489 -0.6700  0.2053  0.7298
  142MOL    C7348295   6.856   4.560   7.548 -0.2076  0.3599  0.2833
  142MOL    C7448296   6.872   4.538   7.691  0.1903  0.5002 -0.1399
  142MOL    C7548297   6.755   4.515   7.761  0.7753 -0.2968  0.1446
  142MOL    C7648298   6.631   4.496   7.705 -0.4053  0.0134  0.8286
  142MOL    C7748299   6.624   4.506   7.564  0.5874  0.4543  0.1387
  142MOL    O7848300   6.815   4.528   7.259 -0.2549  0.2404 -0.3183
  142MOL    H7948301   6.655   4.735   7.215  2.5579 -0.3555 -1.6649
  142MOL    H8048302   6.767   4.781   7.353 -2.5023  2.0824  2.2505
  142MOL    H8148303   6.625   4.501   7.316  1.2858 -2.0289 -0.6511
  142MOL    H8248304   6.937   4.590   7.482 -1.2612  2.1297 -0.2485
  142MOL    H8348305   6.970   4.556   7.732 -0.0546  1.1373  0.1783
  142MOL    H8448306   6.745   4.522   7.869 -0.0355 -0.6500  0.1020
  142MOL    H8548307   6.540   4.482   7.762 -1.4396  2.8945 -0.0345
  142MOL    H8648308   6.523   4.502   7.528  1.0845  0.4640 -1.2750
  142MOL    C8748309   6.866   4.393   7.263 -0.2047 -0.1334 -0.1031
  142MOL    C8848310   7.007   4.386   7.200  0.0532  0.4115 -0.1416
  142MOL    C8948311   7.114   4.439   7.283 -0.5165  0.3730  0.1589
  142MOL    C9048312   7.131   4.578   7.294 -0.3666  0.1347  1.3300
  142MOL    C9148313   7.221   4.633   7.395 -0.2129  0.1499  0.2032
  142MOL    C9248314   7.287   4.551   7.485 -0.2146  0.2757 -0.3696
  142MOL    C9348315   7.276   4.407   7.464 -0.4227 -0.3747  0.6222
  142MOL    C9448316   7.183   4.353   7.372  0.1100 -0.6352 -0.3642
  142MOL    O9548317   6.990   4.454   7.082 -0.0714 -0.2802 -0.7943
  142MOL    H9648318   6.788   4.331   7.219  1.2668 -0.6276 -2.0657
  142MOL    H9748319   6.876   4.359   7.366 -2.8378 -1.2484 -0.1629
  142MOL    H9848320   7.030   4.286   7.165  1.0703  0.5903 -0.0130
  142MOL    H9948321   7.088   4.653   7.228  1.0042 -0.1692  0.0509
  142MOL   H10048322   7.237   4.740   7.395  1.6041 -0.0583 -2.3031
  142MOL   H10148323   7.348   4.591   7.565  1.3659 -1.8012 -0.4799
  142MOL   H10248324   7.336   4.349   7.532  1.8653 -1.1631 -1.9860
  142MOL   H10348325   7.155   4.248   7.377  1.2810 -0.9813 -0.8532
  142MOL   C10448326   7.108   4.479   6.999 -0.5084  0.1187 -0.2038
  142MOL   C10548327   7.066   4.565   6.878  0.5135 -0.0529 -0.3862
  142MOL   C10648328   7.008   4.698   6.938  0.0807  0.1685 -0.8509
  142MOL   C10748329   6.874   4.723   6.964  0.0434 -0.4275  0.2091
  142MOL   C10848330   6.837   4.849   7.014 -0.1489 -0.3492  0.7029
  142MOL   C10948331   6.932   4.944   7.051 -0.1408 -0.2971 -0.3602
  142MOL   C11048332   7.067   4.913   7.027 -0.0925  0.0907 -0.1479
  142MOL   C11148333   7.106   4.791   6.971 -0.0362 -0.9041 -0.1559
  142MOL   O11248334   7.182   4.580   6.791 -0.4910 -0.0802 -0.4527
  142MOL   H11348335   7.189   4.535   7.047 -1.3174  0.6815  0.5192
  142MOL   H11448336   7.153   4.391   6.954 -0.0472 -0.8351  2.0374
  142MOL   H11548337   6.984   4.518   6.824  0.8459 -0.8743 -0.1686
  142MOL   H11648338   6.805   4.642   6.946 -0.8414  0.1356  1.0435
  142MOL   H11748339   6.733   4.877   7.021  0.1473  0.7448  0.8580
  142MOL   H11848340   6.900   5.041   7.085  2.2441  0.1734  0.6551
  142MOL   H11948341   7.135   4.991   7.057  1.6114 -0.4666 -2.3910
  142MOL   H12048342   7.210   4.763   6.957  0.4553  1.2753 -1.1880
  142MOL   C12148343   7.156   4.630   6.658  0.2427 -0.5285 -0.2834
  142MOL   C12248344   7.135   4.522   6.549  0.1064  0.2143 -0.1882
  142MOL   C12348345   7.243   4.414   6.541 -0.9200 -0.2749  0.0078
  142MOL   C12448346   7.235   4.305   6.633  0.3001  0.0040  0.5532
  142MOL   C12548347   7.329   4.202   6.626  0.4105 -0.1336 -0.4470
  142MOL   C12648348   7.441   4.216   6.541  0.9046 -0.0104 -0.0218
  142MOL   C12748349   7.444   4.319   6.447  0.4806 -0.0070 -0.3702
  142MOL   C12848350   7.347   4.414   6.445 -0.6633  0.5856  0.3273
  142MOL   O12948351   7.011   4.450   6.577 -0.3077 -0.4460  0.0849
  142MOL   H13048352   7.248   4.684   6.635  0.8294 -1.4100 -0.0599
  142MOL   H13148353   7.084   4.711   6.648 -1.4553 -2.0635 -0.5380
  142MOL   H13248354   7.119   4.578   6.457  0.0810 -0.0989 -0.3727
  142MOL   H13348355   7.145   4.298   6.692  0.8689  0.7181  1.5417
  142MOL   H13448356   7.317   4.118   6.692 -0.3566 -0.5858 -1.1484
  142MOL   H13548357   7.527   4.152   6.545 -0.0663 -1.2157  2.4507
  142MOL   H13648358   7.521   4.333   6.373  0.3769 -0.4905 -0.5697
  142MOL   H13748359   7.354   4.493   6.372 -2.0192 -0.2008 -0.6720
  142MOL   C13848360   6.892   4.521   6.547 -0.3977  0.0866 -0.3735
  142MOL   C13948361   6.752   4.456   6.585 -0.0626 -0.3828  0.4739
  142MOL   C14048362   6.727   4.334   6.499 -0.0353  0.9360 -0.5139
  142MOL   C14148363   6.805   4.218   6.517  0.0160  0.1576 -0.8599
  142MOL   C14248364   6.777   4.098   6.441 -0.2752  0.0081 -0.1597
  142MOL   C14348365   6.671   4.100   6.354  0.1141  0.3226  0.6780
  142MOL   C14448366   6.589   4.215   6.343  0.3719 -0.4756 -0.5315
  142MOL   C14548367   6.617   4.334   6.416  0.1397  0.0203  1.1358
  142MOL   O14648368   6.750   4.428   6.722 -0.2259 -0.2566  0.2525
  142MOL   H14748369   6.884   4.553   6.443 -0.8020  0.6091 -0.1845
  142MOL   H14848370   6.880   4.606   6.614  3.2465  0.5198 -0.1964
  142MOL   H14948371   6.677   4.530   6.558 -0.1157 -1.0565 -1.2462
  142MOL   H15048372   6.887   4.225   6.587 -1.7576  1.9075  1.1481
  142MOL   H15148373   6.833   4.006   6.445 -1.5821 -0.7773  0.1703
  142MOL   H15248374   6.643   4.017   6.291  1.4919 -0.4225  1.0442
  142MOL   H15348375   6.503   4.223   6.278  0.3102  0.1898 -0.3695
  142MOL   H15448376   6.557   4.420   6.391  0.6727  0.3781  1.0944
  142MOL   C15548377   6.627   4.406   6.784 -0.0907  0.3120  0.2005
  142MOL   C15648378   6.655   4.342   6.917 -0.0692  0.4414  0.1674
  142MOL   C15748379   6.529   4.359   7.004 -0.8250  0.0949 -0.7052
  142MOL   C15848380   6.429   4.258   7.011 -0.4595  0.2681 -0.0675
  142MOL   C15948381   6.315   4.280   7.091  0.1032  0.5696 -0.6083
  142MOL   C16048382   6.304   4.396   7.159 -0.5216 -0.5261 -0.1876
  142MOL   C16148383   6.398   4.498   7.162 -0.0045  0.1261 -0.5091
  142MOL   C16248384   6.507   4.481   7.078  0.1134  0.6719 -0.1141
  142MOL   O16348385   6.683   4.203   6.893 -0.1163 -0.5986 -0.3892
  142MOL   H16448386   6.564   4.337   6.728 -0.0127 -0.4107  0.9924
  142MOL   H16548387   6.583   4.505   6.794 -0.3120 -0.0644  3.4657
  142MOL   H16648388   6.731   4.402   6.967  2.2487 -1.3407 -1.0580
  142MOL   H16748389   6.441   4.163   6.960  2.1003 -0.0795  1.0888
  142MOL   H16848390   6.248   4.195   7.084 -0.4346  1.1612 -3.0890
  142MOL   H16948391   6.207   4.411   7.205  0.0569  2.8297  0.1390
  142MOL   H17048392   6.396   4.586   7.225  0.1247 -0.5598  0.4767
  142MOL   H17148393   6.573   4.566   7.066  0.2605  0.5433 -0.2243
  142MOL   C17248394   6.824   4.181   6.930 -0.2522 -0.0854  0.3304
  142MOL   C17348395   6.868   4.043   6.880 -0.3913  0.0683 -0.2435
  142MOL   C17448396   6.763   3.938   6.901  0.3355 -0.0531  0.0752
  142MOL   C17548397   6.677   3.896   6.796 -0.1686 -0.0869  0.2007
  142MOL   C17648398   6.575   3.795   6.820 -0.1903  0.2816  0.0441
  142MOL   C17748399   6.554   3.748   6.949  0.3723  0.1254  0.0117
  142MOL   C17848400   6.645   3.787   7.048 -0.5507  0.1936 -0.3618
  142MOL   C17948401   6.738   3.887   7.029 -0.4599 -0.1705 -0.2212
  142MOL   O18048402   6.985   4.004   6.955 -0.4480 -0.0287  0.1636
  142MOL   H18148403   6.893   4.259   6.898 -1.8215  0.7217 -1.1770
  142MOL   H18248404   6.837   4.198   7.037 -1.1214 -2.2012  0.7974
  142MOL   H18348405   6.887   4.058   6.774 -2.4912  0.1714 -0.6232
  142MOL   H18448406   6.684   3.926   6.693 -5.6096  1.5445  0.1325
  142MOL   H18548407   6.509   3.757   6.744 -0.1950 -1.5772  0.9496
  142MOL   H18648408   6.471   3.682   6.972 -0.6991  2.1379  2.1028
  142MOL   H18748409   6.632   3.749   7.149  1.1795 -0.9331 -0.5440
  142MOL   H18848410   6.792   3.925   7.114 -0.0092  1.0882 -1.0519
  142MOL   C18948411   7.109   4.007   6.878  0.1783  0.1837  0.2370
  142MOL   C19048412   7.237   4.004   6.965  0.5121 -1.0460  0.3018
  142MOL   C19148413   7.248   3.876   7.048  0.4091 -0.5296  0.1557
  142MOL   C19248414   7.234   3.881   7.188 -0.1934  0.4305 -0.2588
  142MOL   C19348415   7.238   3.762   7.259 -0.0886 -1.1466 -0.0826
  142MOL   C19448416   7.238   3.635   7.198  0.2111  0.2746  0.4487
  142MOL   C19548417   7.256   3.628   7.058 -0.5475 -0.2829 -0.6388
  142MOL   C19648418   7.267   3.752   6.980  0.2592 -0.4622 -0.2714
  142MOL   O19748419   7.240   4.123   7.038 -0.1628 -0.3645  0.0772
  142MOL   H19848420   7.110   3.910   6.828 -1.9146 -1.1099  2.5960
  142MOL   H19948421   7.116   4.089   6.806  1.3888 -0.9878 -1.0184
  142MOL   H20048422   7.314   3.997   6.888 -2.0616 -2.6639 -2.2319
  142MOL   H20148423   7.215   3.975   7.238  0.5218 -0.2016  1.2201
  142MOL   H20248424   7.221   3.776   7.365  0.9201  0.2872 -0.0833
  142MOL   H20348425   7.229   3.545   7.257  0.2420  0.1319  0.2370
  142MOL   H20448426   7.254   3.529   7.014  2.3966 -0.6666  0.0041
  142MOL   H20548427   7.280   3.747   6.873 -2.2510  1.1813 -0.6857
  142MOL   C20648428   7.348   4.218   7.021 -0.2535  0.4020  0.1691
  142MOL   C20748429   7.480   4.156   7.077 -0.1008  0.1561  0.0424
  142MOL   C20848430   7.592   4.257   7.120  0.7853  0.2893  0.4747
  142MOL   C20948431   7.610   4.282   7.257  0.1864 -0.8476 -0.0634
  142MOL   C21048432   7.724   4.356   7.297 -0.0577 -0.2791  0.1974
  142MOL   C21148433   7.815   4.400   7.207 -0.0816  0.2437 -0.1740
  142MOL   C21248434   7.800   4.369   7.073 -0.4598 -0.1692  0.8994
  142MOL   C21348435   7.683   4.301   7.029  0.0675 -0.0326 -0.1489
  142MOL   O21448436   7.540   4.064   6.985  0.4132 -0.6588 -0.6959
  142MOL   H21548437   7.361   4.245   6.916 -0.1078 -1.5414 -0.3331
  142MOL   H21648438   7.330   4.312   7.073 -1.2680  1.3148 -1.8106
  142MOL   H21748439   7.449   4.104   7.167 -1.7303  1.7507  0.4281
  142MOL   H21848440   7.545   4.248   7.336 -1.0437  1.5844  0.0288
  142MOL   H21948441   7.735   4.384   7.400 -1.0704 -0.7584  0.4466
  142MOL   H22048442   7.904   4.456   7.234  0.2205 -0.2013 -0.2312
  142MOL   H22148443   7.868   4.390   6.991 -2.6166 -0.0898 -0.9160
  142MOL   H22248444   7.666   4.284   6.923 -0.6369  0.9215 -0.1989
  142MOL   C22348445   7.619   3.972   7.057  0.2619  0.2277 -0.5083
  142MOL   C22448446   7.711   3.893   6.957 -0.1191  0.2854  0.1328
  142MOL   C22548447   7.628   3.829   6.846  0.3790 -0.3030 -0.3103
  142MOL   C22648448   7.601   3.688   6.846  0.4122 -0.4842  0.1475
  142MOL   C22748449   7.538   3.625   6.735 -0.5577  0.5255 -0.2244
  142MOL   C22848450   7.497   3.703   6.624  0.2476 -0.0222  0.6759
  142MOL   C22948451   7.510   3.839   6.632 -0.0592 -0.5380 -0.1130
  142MOL   C23048452   7.576   3.902   6.737  1.2196  1.0069 -0.0574
  142MOL   O23148453   7.805   3.991   6.912 -0.0274 -0.1558  0.2442
  142MOL   H23248454   7.690   4.011   7.130 -1.5822 -0.2982  1.6223
  142MOL   H23348455   7.551   3.908   7.114 -1.1984  1.5257 -0.7761
  142MOL   H23448456   7.763   3.809   7.004 -0.7223  0.0199  0.3417
  142MOL   H23548457   7.650   3.624   6.918  1.0280 -2.3708 -1.9112
  142MOL   H23648458   7.526   3.518   6.726  0.0652  0.3196  1.2880
  142MOL   H23748459   7.457   3.657   6.535  2.4260 -2.2815  0.7981
  142MOL   H23848460   7.485   3.898   6.545  0.4580 -0.7586 -0.4126
  142MOL   H23948461   7.595   4.008   6.727 -0.6719  1.4365  0.7410
  142MOL   C24048462   7.937   3.934   6.872 -0.3922 -0.2576 -0.0006
  142MOL   C24148463   8.016   4.060   6.822  0.7053 -0.2888 -0.2324
  142MOL   C24248464   0.082   4.016   6.806 -0.2942  0.5068  0.2257
  142MOL   C24348465   0.166   4.030   6.917 -0.3959  0.0972 -0.2794
  142MOL   C24448466   0.303   3.994   6.902  0.6716  0.0950  0.1027
  142MOL   C24548467   0.354   3.938   6.779 -0.7527  0.4707 -0.6876
  142MOL   C24648468   0.262   3.916   6.676  0.4356  0.3457  0.3753
  142MOL   C24748469   0.123   3.948   6.688 -0.4327 -0.1768  0.2291
  142MOL   O24848470   7.963   4.098   6.694 -0.1425  0.0329 -0.4224
  142MOL   H24948471   7.982   3.889   6.960 -0.0961  1.1153  0.5601
  142MOL   H25048472   7.941   3.866   6.787 -1.5008 -0.6398  0.2463
  142MOL   H25148473   8.014   4.141   6.895 -0.1215 -0.6549  0.1666
  142MOL   H25248474   0.119   4.084   6.999 -0.8698 -0.0764 -0.4384
  142MOL   H25348475   0.368   4.011   6.987  0.7261 -1.5117  0.3957
  142MOL   H25448476   0.459   3.916   6.763 -0.7086  0.9140 -1.0322
  142MOL   H25548477   0.294   3.870   6.584  0.1029 -0.3763  0.6193
  142MOL   H25648478   0.052   3.928   6.610 -0.4991 -0.7548  0.4414
  142MOL   C25748479   7.878   4.218   6.685 -0.3958  0.1716 -0.0094
  142MOL   C25848480   7.877   4.275   6.548  0.4988  0.2476  0.6385
  142MOL   C25948481   7.843   4.176   6.434  0.5834 -0.2130  0.4508
  142MOL   C26048482   7.877   4.208   6.304  0.3003  0.3077  0.5369
  142MOL   C26148483   7.815   4.135   6.200  0.2828  0.1723 -0.0566
  142MOL   C26248484   7.759   4.010   6.228  0.0140 -0.5442  0.3384
  142MOL   C26348485   7.740   3.972   6.358  0.0662  0.4051 -0.0320
  142MOL   C26448486   7.780   4.053   6.462 -0.5601 -0.5112  0.2665
  142MOL   O26548487   7.979   4.376   6.529  0.2544  0.1203 -0.2292
  142MOL   H26648488   7.915   4.293   6.755 -1.5929  0.7331  0.0230
  142MOL   H26748489   7.777   4.191   6.715 -0.8766  0.7753 -1.0411
  142MOL   H26848490   7.784   4.330   6.559 -0.3698 -1.1044  0.1903
  142MOL   H26948491   7.926   4.301   6.278  0.7008 -0.4131 -1.3999
  142MOL   H27048492   7.827   4.174   6.100  0.2254 -1.4985 -0.7287
  142MOL   H27148493   7.715   3.948   6.151 -1.0136 -0.5603  0.9342
  142MOL   H27248494   7.696   3.878   6.389  1.1325 -0.4447 -1.0158
  142MOL   H27348495   7.768   4.020   6.564  1.2686 -1.7468  0.0914
  142MOL   C27448496   0.031   4.322   6.530 -0.7815 -0.0456 -0.5442
  142MOL   C27548497   0.132   4.432   6.496  0.0745  0.3807 -0.0175
  142MOL   C27648498   0.153   4.532   6.610  0.2760  0.5386  0.2191
  142MOL   C27748499   0.118   4.671   6.599 -0.1881 -0.5042 -0.3633
  142MOL   C27848500   0.124   4.750   6.712 -0.2784  0.8436 -0.4867
  142MOL   C27948501   0.175   4.694   6.827 -0.4876  0.6131 -0.1599
  142MOL   C28048502   0.224   4.564   6.836  0.2760  0.2258 -0.5290
  142MOL   C28148503   0.209   4.482   6.729  0.6063  0.3791  0.2445
  142MOL   O28248504   0.090   4.491   6.375 -0.0010 -0.7029  0.6971
  142MOL   H28348505   0.051   4.285   6.631 -1.1357 -0.2281 -0.5391
  142MOL   H28448506   0.035   4.237   6.462 -0.7550 -1.7357  1.5351
  142MOL   H28548507   0.234   4.397   6.480 -0.3697 -1.4997  1.0933
  142MOL   H28648508   0.072   4.718   6.513 -0.4775  0.0882  0.1080
  142MOL   H28748509   0.094   4.853   6.708  1.2481  1.6020  4.2085
  142MOL   H28848510   0.197   4.759   6.911 -2.8728  0.3055  0.7495
  142MOL   H28948511   0.276   4.527   6.923 -0.1467  2.2768  0.6351
  142MOL   H29048512   0.231   4.377   6.736 -0.1793 -0.0146 -2.6132
  142MOL   C29148513   0.125   4.422   6.255  0.1832 -0.4385  0.1299
  142MOL   C29248514   0.064   4.505   6.140 -0.0555 -0.4409  0.4861
  142MOL   C29348515   0.140   4.633   6.092 -0.1294  0.8974  0.1170
  142MOL   C29448516   0.165   4.741   6.179 -0.1011  0.1701  0.1817
  142MOL   C29548517   0.246   4.853   6.133 -0.2665 -0.1550 -0.0022
  142MOL   C29648518   0.294   4.860   6.005  0.4439  0.6818 -0.2506
  142MOL   C29748519   0.263   4.753   5.920 -0.0203 -0.0906  0.4288
  142MOL   C29848520   0.204   4.632   5.966  0.7815  0.4925  0.5027
  142MOL   O29948521   0.048   4.421   6.032 -0.4559 -0.0693  0.0900
  142MOL   H30048522   0.086   4.321   6.262 -1.5122  0.2094  0.3528
  142MOL   H30148523   0.233   4.406   6.253  0.2040 -0.4552  1.3772
  142MOL   H30248524   8.043   4.532   6.169  0.0732  0.3822  0.2097
  142MOL   H30348525   0.129   4.753   6.280  0.0155 -0.2945  0.2789
  142MOL   H30448526   0.265   4.925   6.211  0.3705  1.0152 -1.2053
  142MOL   H30548527   0.362   4.940   5.978  1.5324  0.9782  3.1715
  142MOL   H30648528   0.297   4.743   5.818 -0.5688  3.4113 -0.1401
  142MOL   H30748529   0.182   4.550   5.900 -0.4316  1.3714 -0.2126
  142MOL   C30848530   7.995   4.433   5.971 -0.0292  0.1707 -0.9955
  142MOL   C30948531   7.982   4.348   5.841  0.0769 -0.8127  0.1661
  142MOL   C31048532   0.002   4.372   5.729 -0.2617 -0.5764  0.2350
  142MOL   C31148533   0.131   4.327   5.734  0.3376 -0.1947 -0.4711
  142MOL   C31248534   0.225   4.347   5.627  0.5439  0.2153  0.8737
  142MOL   C31348535   0.177   4.412   5.514 -0.1425 -0.1365 -0.4506
  142MOL   C31448536   0.049   4.473   5.511  0.0269 -0.7594 -0.2212
  142MOL   C31548537   8.040   4.446   5.612 -0.5365 -0.0841 -0.3514
  142MOL   O31648538   7.974   4.216   5.877  0.4349 -0.2178  0.0466
  142MOL   H31748539   7.982   4.536   5.937 -1.9747 -0.4043 -2.0366
  142MOL   H31848540   7.912   4.411   6.038  1.8824 -0.0895  1.3921
  142MOL   H31948541   7.881   4.370   5.806 -0.1084  0.8405  1.6531
  142MOL   H32048542   0.163   4.262   5.813 -1.4625  0.9334  1.2087
  142MOL   H32148543   0.327   4.314   5.616  0.2753 -0.3668  0.0186
  142MOL   H32248544   0.245   4.422   5.431  0.1018  1.9740 -0.0230
  142MOL   H32348545   0.018   4.522   5.420  0.0173  0.7807  0.5965
  142MOL   H32448546   7.938   4.482   5.611 -0.7628 -0.7030  0.1874
  142MOL   C32548547   7.908   4.142   5.784  0.0224  0.0453 -0.5009
  142MOL   C32648548   7.951   3.997   5.805 -0.7576 -0.3688 -0.1375
  142MOL   C32748549   0.023   3.980   5.822 -0.0548  0.0556  0.2516
  142MOL   C32848550   0.089   3.967   5.947 -0.4881 -0.8934  0.0421
  142MOL   C32948551   0.223   3.957   5.954  0.1903  0.3235  0.0719
  142MOL   C33048552   0.306   3.960   5.841 -0.0960 -0.6039 -0.3485
  142MOL   C33148553   0.246   3.971   5.717 -0.4541  0.3328 -0.2159
  142MOL   C33248554   0.105   3.976   5.704 -0.0621 -0.3623 -0.6857
  142MOL   O33348555   7.876   3.964   5.920  0.0673  0.4631 -0.0868
  142MOL   H33448556   7.939   4.162   5.682 -1.0285 -0.9781 -1.0314
  142MOL   H33548557   7.800   4.157   5.791  0.1174  1.0104 -0.9543
  142MOL   H33648558   7.920   3.929   5.726  0.4356  0.9456 -1.7671
  142MOL   H33748559   0.032   3.954   6.037 -1.4472 -1.2186 -0.6059
  142MOL   H33848560   0.267   3.942   6.051 -0.2962 -1.6406  0.0037
  142MOL   H33948561   0.409   3.930   5.854  0.2219  0.1488 -1.0608
  142MOL   H34048562   0.314   3.960   5.633  0.0716 -0.5994  0.3291
  142MOL   H34148563   0.052   3.987   5.610 -0.0686 -0.4953 -0.6987
  142MOL   H34248564   7.901   4.035   5.977 -0.1717  0.3672  0.1331
  143MOL     C148565   1.971   5.063   3.788  0.2148  0.4603  0.0441
  143MOL     C248566   1.825   5.064   3.850  1.0889 -0.1144  0.2433
  143MOL     C348567   1.725   4.971   3.786 -0.0151 -0.2281 -0.0661
  143MOL     C448568   1.702   4.843   3.839  0.5128  0.4282  0.7142
  143MOL     C548569   1.604   4.756   3.783 -0.0288 -0.5142 -0.1137
  143MOL     C648570   1.549   4.790   3.659 -0.0660  0.3161 -0.4882
  143MOL     C748571   1.584   4.906   3.599  0.7174  0.5501 -0.1236
  143MOL     C848572   1.676   4.999   3.653  0.2459 -0.2527 -0.0379
  143MOL     O948573   1.777   5.191   3.859  0.0482 -0.5295 -0.3962
  143MOL    H1048574   1.961   5.112   3.691  0.2179  2.4624  1.0336
  143MOL    H1148575   2.044   5.116   3.849 -0.4805 -0.4474  1.7164
  143MOL    H1248576   1.836   5.030   3.953 -1.1154 -0.0512  0.5222
  143MOL    H1348577   1.752   4.821   3.933 -0.5303 -1.6444  0.7931
  143MOL    H1448578   1.564   4.663   3.822  1.5021 -0.7899  0.8190
  143MOL    H1548579   1.474   4.729   3.611 -1.1815  1.3909 -0.1376
  143MOL    H1648580   1.543   4.941   3.505 -1.7039  1.9140  1.3707
  143MOL    H1748581   1.694   5.094   3.605 -2.5255  1.2958  1.8446
  143MOL    H1848582   2.006   4.959   3.791 -2.2003 -0.4135 -0.6784
  143MOL    C1948583   1.659   5.206   3.942 -0.1198  0.5666 -0.2085
  143MOL    C2048584   1.523   5.214   3.885  0.6908 -0.0513 -0.1276
  143MOL    C2148585   1.467   5.353   3.895 -0.4955 -0.3294  0.4633
  143MOL    C2248586   1.375   5.388   3.998  0.9164 -0.2804  0.0062
  143MOL    C2348587   1.321   5.520   4.001  0.2176  0.1363 -0.5345
  143MOL    C2448588   1.369   5.615   3.911  0.3414 -0.1131  0.3222
  143MOL    C2548589   1.465   5.581   3.811  0.1037  0.3277  0.1759
  143MOL    C2648590   1.505   5.448   3.802  0.4424 -0.1460  0.3639
  143MOL    O2748591   1.438   5.121   3.956  0.2173  0.1419  0.3937
  143MOL    H2848592   1.654   5.134   4.024  2.3102  0.1236 -0.4012
  143MOL    H2948593   1.683   5.299   3.994  0.7949 -0.8830  2.0569
  143MOL    H3048594   1.529   5.193   3.778  1.5306 -2.5134  0.3636
  143MOL    H3148595   1.345   5.319   4.076 -2.1287  0.6649 -0.2682
  143MOL    H3248596   1.252   5.536   4.083 -1.1051 -1.3001 -1.3484
  143MOL    H3348597   1.338   5.718   3.901  1.9343  0.1689 -2.1993
  143MOL    H3448598   1.507   5.656   3.745 -0.3348  0.5147  0.1092
  143MOL    H3548599   1.565   5.423   3.716  1.7018  1.4383  0.7684
  143MOL    C3648600   1.360   5.034   3.873 -0.2789 -0.2115  0.5591
  143MOL    C3748601   1.242   5.115   3.816  0.6544 -0.1509  0.2113
  143MOL    C3848602   1.135   5.016   3.781 -0.6146 -0.0990 -0.2192
  143MOL    C3948603   1.031   4.987   3.873 -0.1655  0.3708 -0.6703
  143MOL    C4048604   0.938   4.881   3.848  0.0103 -0.1408  0.2223
  143MOL    C4148605   0.945   4.818   3.720 -0.1660 -0.8308  0.1466
  143MOL    C4248606   1.040   4.853   3.622  0.1581  0.3892 -0.3507
  143MOL    C4348607   1.137   4.944   3.657 -0.0776 -0.2538  0.5627
  143MOL    O4448608   1.283   5.191   3.703 -0.1254  0.7490  0.0256
  143MOL    H4548609   1.424   5.011   3.788 -1.4201  1.6152 -0.8305
  143MOL    H4648610   1.335   4.947   3.933 -0.2994 -1.7074 -1.5589
  143MOL    H4748611   1.205   5.179   3.897  5.3212  0.8983  1.6550
  143MOL    H4848612   1.037   5.033   3.971 -0.8342  0.2438 -0.5665
  143MOL    H4948613   0.860   4.858   3.919  1.9386 -0.5359  2.2573
  143MOL    H5048614   0.856   4.760   3.702  0.7840 -1.5528 -2.3538
  143MOL    H5148615   1.034   4.820   3.519  1.3013 -0.8063 -0.0477
  143MOL    H5248616   1.210   4.977   3.585 -0.0276 -3.4431 -0.9098
  143MOL    C5348617   1.181   5.285   3.654 -0.1857  0.9884 -0.0046
  143MOL    C5448618   1.181   5.281   3.498 -0.0854 -0.8735  0.6263
  143MOL    C5548619   1.323   5.284   3.438  0.3955  0.7794  0.1760
  143MOL    C5648620   1.388   5.166   3.389 -0.3823 -0.0602  0.0658
  143MOL    C5748621   1.515   5.168   3.330 -1.2158  0.1461  0.4597
  143MOL    C5848622   1.579   5.300   3.313 -0.0753  0.3162  0.3395
  143MOL    C5948623   1.516   5.409   3.374 -0.1805 -0.4843 -0.5926
  143MOL    C6048624   1.390   5.403   3.433  0.4823 -0.7353 -0.3165
  143MOL    O6148625   1.110   5.167   3.453 -0.7413 -0.6393 -0.4136
  143MOL    H6248626   1.080   5.264   3.691  1.5517  0.2750  4.7510
  143MOL    H6348627   1.200   5.387   3.685  0.4413  1.4932 -1.9975
  143MOL    H6448628   1.126   5.370   3.470 -2.5196 -1.4986  3.1786
  143MOL    H6548629   1.344   5.067   3.397 -0.6689 -0.0522 -1.2732
  143MOL    H6648630   1.557   5.082   3.281 -1.5131  0.5301 -0.4919
  143MOL    H6748631   1.675   5.312   3.267 -0.3792  0.6506 -0.2092
  143MOL    H6848632   1.567   5.504   3.381  1.0079 -1.0670 -1.1327
  143MOL    H6948633   1.331   5.487   3.468  0.6804  0.1727 -2.1058
  143MOL    C7048634   1.033   5.176   3.338 -0.0076 -0.1825  0.2607
  143MOL    C7148635   0.894   5.227   3.380  0.5929  0.4849  0.0514
  143MOL    C7248636   0.813   5.119   3.461  0.0098 -0.6827 -0.5639
  143MOL    C7348637   0.790   5.134   3.599 -0.0204  0.2064  0.6406
  143MOL    C7448638   0.718   5.040   3.676  0.7741 -0.4154 -0.1541
  143MOL    C7548639   0.664   4.925   3.610  0.3887  0.0136  0.0895
  143MOL    C7648640   0.687   4.908   3.474  0.5034 -0.7296  0.1396
  143MOL    C7748641   0.761   5.006   3.403  0.5973  0.1683  0.5154
  143MOL    O7848642   0.841   5.263   3.254  0.2739 -0.3366  0.0871
  143MOL    H7948643   1.085   5.237   3.264  0.2237 -0.7587 -0.0553
  143MOL    H8048644   1.013   5.082   3.285 -0.5532 -0.1823  0.4629
  143MOL    H8148645   0.911   5.319   3.437 -0.6980  1.2874 -0.8218
  143MOL    H8248646   0.840   5.216   3.649  1.2194  0.3254 -0.7631
  143MOL    H8348647   0.701   5.052   3.782 -0.0364 -0.5805 -0.2560
  143MOL    H8448648   0.599   4.852   3.655 -0.2022  0.1784 -0.4959
  143MOL    H8548649   0.658   4.820   3.418 -1.4261 -1.1866  1.8305
  143MOL    H8648650   0.794   4.982   3.303  0.5694 -2.2172  1.0413
  143MOL    C8748651   0.722   5.345   3.272  0.8276 -0.4751  0.9500
  143MOL    C8848652   0.746   5.489   3.219 -0.0937  0.7547  0.7160
  143MOL    C8948653   0.863   5.553   3.285  0.2402  0.6262  0.4796
  143MOL    C9048654   0.842   5.630   3.403 -0.6215 -0.3912 -0.0973
  143MOL    C9148655   0.950   5.683   3.480 -1.1552  0.0925  0.6141
  143MOL    C9248656   1.081   5.674   3.424 -0.2597  0.2269  0.5261
  143MOL    C9348657   1.108   5.596   3.305  0.0529 -0.6161 -0.2489
  143MOL    C9448658   0.999   5.535   3.239 -0.2384  0.1943  0.6970
  143MOL    O9548659   0.633   5.574   3.222 -0.5527 -0.5656  0.8583
  143MOL    H9648660   0.694   5.348   3.377 -0.2690 -0.6195  0.6652
  143MOL    H9748661   0.645   5.304   3.207  0.8360  1.5368 -0.3902
  143MOL    H9848662   0.775   5.485   3.115 -2.5648 -1.3268  0.0415
  143MOL    H9948663   0.740   5.649   3.431 -0.6663 -1.1478  0.2477
  143MOL   H10048664   0.938   5.734   3.574  1.7925 -2.2613  2.3744
  143MOL   H10148665   1.155   5.726   3.483 -0.0508  0.0964  0.3820
  143MOL   H10248666   1.207   5.567   3.274  1.5987  3.7184  0.3240
  143MOL   H10348667   1.027   5.460   3.166  1.6984  1.4429  0.1165
  143MOL   C10448668   0.521   5.541   3.144 -0.1309  0.7132 -1.0694
  143MOL   C10548669   0.441   5.668   3.134 -0.5407 -0.5033  0.0478
  143MOL   C10648670   0.323   5.655   3.044 -0.9070 -0.7364 -0.0000
  143MOL   C10748671   0.332   5.709   2.911  0.0568 -0.0903 -0.4883
  143MOL   C10848672   0.220   5.711   2.828 -0.4118  0.2285 -0.2491
  143MOL   C10948673   0.101   5.651   2.867  0.1208  0.1658  0.3722
  143MOL   C11048674   0.088   5.605   3.000  0.2598 -0.3578 -0.2780
  143MOL   C11148675   0.197   5.612   3.088 -0.1345  0.1124 -0.5173
  143MOL   O11248676   0.415   5.688   3.270  0.4460 -0.1829 -0.3776
  143MOL   H11348677   0.559   5.501   3.050 -0.3084  0.0430 -0.8609
  143MOL   H11448678   0.467   5.459   3.191  0.2388  0.9241 -0.2799
  143MOL   H11548679   0.498   5.748   3.086 -0.5695  0.2180  1.1881
  143MOL   H11648680   0.421   5.757   2.874 -1.1776  1.7756 -1.0987
  143MOL   H11748681   0.219   5.750   2.727 -1.6935 -2.0642 -1.1703
  143MOL   H11848682   0.019   5.646   2.797 -0.3306 -1.3118  0.9879
  143MOL   H11948683   8.076   5.566   3.042 -0.0918  0.1627 -0.5599
  143MOL   H12048684   0.190   5.578   3.190  2.6887 -0.5594 -0.4933
  143MOL   C12148685   0.344   5.813   3.297  0.3872  0.1593  0.6548
  143MOL   C12248686   0.366   5.864   3.441  0.4332  0.5423  0.5246
  143MOL   C12348687   0.498   5.937   3.451  0.0784  0.2751  1.0211
  143MOL   C12448688   0.609   5.885   3.519 -0.4951  0.1092  0.7688
  143MOL   C12548689   0.725   5.965   3.538 -0.1561  0.1990  0.3303
  143MOL   C12648690   0.729   6.102   3.505  0.7004 -0.0087 -0.3111
  143MOL   C12748691   0.619   6.153   3.435  1.0108  0.0625 -0.1006
  143MOL   C12848692   0.503   6.071   3.406  0.6369  0.1918 -0.7938
  143MOL   O12948693   0.255   5.938   3.475  0.0349 -0.9795  0.0107
  143MOL   H13048694   0.244   5.772   3.284  0.6265  0.0429 -0.9527
  143MOL   H13148695   0.355   5.894   3.224  0.5198 -1.9436 -1.7514
  143MOL   H13248696   0.358   5.779   3.509  1.4158 -0.3798 -0.4805
  143MOL   H13348697   0.607   5.779   3.539 -0.8332 -0.0710 -0.1458
  143MOL   H13448698   0.799   5.911   3.594 -2.0143  0.8492  3.5454
  143MOL   H13548699   0.825   6.150   3.517  0.6863  0.6460 -2.6173
  143MOL   H13648700   0.626   6.259   3.414  0.8559 -0.2561 -1.8194
  143MOL   H13748701   0.420   6.111   3.350  0.6834  0.7906 -0.4395
  143MOL   C13848702   0.223   5.933   3.615 -0.1842  0.1286 -0.2898
  143MOL   C13948703   0.112   6.034   3.650  0.6164  0.1968  0.3522
  143MOL   C14048704   0.167   6.176   3.649  0.6506 -0.5063  0.2740
  143MOL   C14148705   0.118   6.276   3.555 -0.1995 -0.5635 -0.4241
  143MOL   C14248706   0.175   6.405   3.564  0.3331 -0.6469 -0.0464
  143MOL   C14348707   0.287   6.435   3.642 -1.1076  0.2945  0.3684
  143MOL   C14448708   0.341   6.333   3.726  0.1623 -0.0081  0.0431
  143MOL   C14548709   0.277   6.206   3.732  0.8589  0.0432 -0.7143
  143MOL   O14648710   0.006   6.025   3.548 -0.1300 -0.1832 -0.2271
  143MOL   H14748711   0.317   5.939   3.670  0.3484 -1.1853 -1.0192
  143MOL   H14848712   0.179   5.835   3.631  1.1408 -0.6665 -1.4012
  143MOL   H14948713   0.086   6.013   3.754  0.2913  0.4439  0.3210
  143MOL   H15048714   0.028   6.262   3.497 -0.9071  1.8795  0.0514
  143MOL   H15148715   0.135   6.480   3.497 -2.6595 -1.2199  1.0039
  143MOL   H15248716   0.335   6.532   3.637 -0.0032 -0.2837 -0.4383
  143MOL   H15348717   0.425   6.352   3.791 -0.7358 -0.8098  1.4573
  143MOL   H15448718   0.315   6.132   3.800  0.0435  1.6175  1.5198
  143MOL   C15548719   7.957   6.037   3.594  0.1491 -0.1516 -0.0214
  143MOL   C15648720   7.882   5.904   3.601  0.3753  0.0851 -0.2880
  143MOL   C15748721   7.880   5.827   3.467  0.0823 -0.2499  0.1121
  143MOL   C15848722   7.932   5.866   3.344  0.5171 -0.2760 -0.0405
  143MOL   C15948723   7.926   5.785   3.231  0.0865 -0.1409  0.5046
  143MOL   C16048724   7.864   5.663   3.236 -0.2377 -0.1767 -0.5893
  143MOL   C16148725   7.806   5.620   3.359  0.3455 -0.2503 -0.2840
  143MOL   C16248726   7.822   5.700   3.468  0.3854  0.1517 -0.0979
  143MOL   O16348727   7.951   5.816   3.693 -0.8308  0.1074  0.2990
  143MOL   H16448728   7.902   6.105   3.529  0.1951  0.3532  0.4695
  143MOL   H16548729   7.962   6.084   3.692  0.8983  0.2916 -0.2700
  143MOL   H16648730   7.780   5.917   3.638  0.9828  0.6087  1.2746
  143MOL   H16748731   7.972   5.965   3.332  1.3917 -0.7699 -1.2849
  143MOL   H16848732   7.965   5.823   3.138  2.3357  1.0730  1.9021
  143MOL   H16948733   7.853   5.594   3.154 -0.0868  1.4437 -1.9981
  143MOL   H17048734   7.762   5.522   3.364 -0.8729  0.3777  1.8708
  143MOL   H17148735   7.797   5.657   3.564  3.1467  0.3271  0.7487
  143MOL   C17248736   7.948   5.847   3.824 -0.2790  0.2271 -0.4033
  143MOL   C17348737   7.803   5.831   3.889  0.0134 -0.2032  0.0685
  143MOL   C17448738   7.724   5.708   3.826 -0.7175  0.0600  0.0627
  143MOL   C17548739   7.783   5.577   3.826  0.0162  0.1454 -0.3093
  143MOL   C17648740   7.701   5.464   3.787  0.1050 -0.5185  0.1184
  143MOL   C17748741   7.570   5.496   3.739  0.6755  0.1266  0.1057
  143MOL   C17848742   7.509   5.618   3.742 -0.0079  0.4178  0.3614
  143MOL   C17948743   7.594   5.730   3.775  0.3563 -0.4065  1.3319
  143MOL   O18048744   7.739   5.957   3.877 -0.2485 -0.2408 -0.1297
  143MOL   H18148745   8.008   5.762   3.857 -1.8211 -1.7465 -2.5599
  143MOL   H18248746   7.999   5.942   3.844 -0.0310  0.0094  0.0171
  143MOL   H18348747   7.830   5.814   3.993  1.4456 -1.8656 -0.5302
  143MOL   H18448748   7.889   5.568   3.847  0.2253 -1.1456 -1.8521
  143MOL   H18548749   7.731   5.363   3.763  0.1065 -0.5887  0.4268
  143MOL   H18648750   7.512   5.409   3.715 -1.4113  1.7319 -0.8489
  143MOL   H18748751   7.406   5.643   3.718  0.0242 -0.3094 -0.5611
  143MOL   H18848752   7.547   5.827   3.771  0.6477 -0.2422  1.9248
  143MOL   C18948753   7.651   5.987   3.988  0.0885 -0.2345 -0.3864
  143MOL   C19048754   7.548   6.091   3.944 -0.3623  0.3201 -0.0974
  143MOL   C19148755   7.459   6.143   4.056 -0.3518  0.0917  0.6332
  143MOL   C19248756   7.331   6.091   4.084  0.2860  0.7792  0.2168
  143MOL   C19348757   7.255   6.138   4.194 -0.2952  0.8315 -0.2955
  143MOL   C19448758   7.303   6.251   4.263 -0.5870  0.2970  1.0255
  143MOL   C19548759   7.430   6.297   4.239  0.3200  0.1851  0.4003
  143MOL   C19648760   7.507   6.247   4.135  0.6862 -0.2287  0.1322
  143MOL   O19748761   7.469   6.032   3.844  0.1693 -0.7968 -0.1324
  143MOL   H19848762   7.608   5.897   4.033  1.1193 -0.2901  0.5139
  143MOL   H19948763   7.711   6.042   4.060 -0.0150  2.2625 -2.1781
  143MOL   H20048764   7.611   6.175   3.917 -1.0931  0.1249 -2.5671
  143MOL   H20148765   7.298   6.008   4.022  0.3070 -0.9451  2.4354
  143MOL   H20248766   7.156   6.098   4.212  0.2652 -0.2638  0.4276
  143MOL   H20348767   7.248   6.297   4.344 -2.0199 -0.6215  0.5978
  143MOL   H20448768   7.466   6.391   4.280  0.0010 -0.2866  1.8009
  143MOL   H20548769   7.606   6.290   4.127  0.7515 -0.2472  0.8094
  143MOL   C20648770   7.426   6.117   3.738  0.8537 -0.0916  0.4091
  143MOL   C20748771   7.323   6.066   3.640 -0.7056  0.1398  0.4199
  143MOL   C20848772   7.205   5.997   3.705 -0.4270  0.4219  0.0367
  143MOL   C20948773   7.191   5.859   3.730 -0.2947 -0.4207  0.4677
  143MOL   C21048774   7.080   5.813   3.799  0.8753  0.3767  0.3288
  143MOL   C21148775   6.973   5.900   3.826  0.2136  0.1678  0.5592
  143MOL   C21248776   6.984   6.034   3.804  0.5559 -0.4263 -0.0868
  143MOL   C21348777   7.100   6.085   3.741  0.0369 -0.0099 -0.1266
  143MOL   O21448778   7.404   5.991   3.550  0.1518  0.0539 -0.0169
  143MOL   H21548779   7.381   6.201   3.791  3.2446  1.5294 -0.0269
  143MOL   H21648780   7.502   6.174   3.683 -1.4952  2.3525 -0.3997
  143MOL   H21748781   7.291   6.153   3.582  1.3479  0.8646  0.3099
  143MOL   H21848782   7.273   5.793   3.707  0.6252  0.4832  1.0541
  143MOL   H21948783   7.066   5.710   3.828 -0.9409  1.2378  2.6921
  143MOL   H22048784   6.879   5.866   3.866 -1.1130  1.5747 -1.2525
  143MOL   H22148785   6.914   6.114   3.823  1.0821  0.1699 -0.6563
  143MOL   H22248786   7.118   6.192   3.737 -0.7014  0.0891 -1.1009
  143MOL   C22348787   7.341   5.976   3.421 -0.1185  0.6531 -0.5769
  143MOL   C22448788   7.460   5.953   3.324 -0.6322  0.6654  0.2639
  143MOL   C22548789   7.423   5.893   3.185 -0.1655  0.2936  0.1493
  143MOL   C22648790   7.315   5.949   3.112  0.4891  0.3766  0.5505
  143MOL   C22748791   7.267   5.900   2.991  0.0073 -0.5847 -0.0544
  143MOL   C22848792   7.313   5.776   2.951 -0.0234  0.2583  0.8383
  143MOL   C22948793   7.419   5.714   3.019 -0.2008  0.4695 -0.1859
  143MOL   C23048794   7.477   5.771   3.138  0.9953 -0.0900 -0.2015
  143MOL   O23148795   7.529   6.079   3.294 -0.4677  0.2277 -0.0119
  143MOL   H23248796   7.270   5.893   3.421  0.4184  0.1757 -2.0342
  143MOL   H23348797   7.277   6.063   3.404 -0.4541  0.3840 -0.6953
  143MOL   H23448798   7.530   5.879   3.362 -0.1140  0.4803 -1.0333
  143MOL   H23548799   7.273   6.038   3.156 -0.9633  0.0997 -0.2320
  143MOL   H23648800   7.184   5.943   2.938 -0.3326 -0.6722  0.4075
  143MOL   H23748801   7.274   5.724   2.865 -0.7116 -1.1807  1.9939
  143MOL   H23848802   7.458   5.619   2.986 -1.0929 -0.7543  2.1912
  143MOL   H23948803   7.557   5.726   3.194  0.7091  0.2954  0.5246
  143MOL   C24048804   7.673   6.080   3.309  0.8184  0.0557 -0.1315
  143MOL   C24148805   7.761   6.198   3.263 -0.6179 -0.0308  0.7029
  143MOL   C24248806   7.778   6.311   3.365 -0.4393 -0.1606  0.6101
  143MOL   C24348807   7.704   6.319   3.480  0.4622 -0.3566 -0.3786
  143MOL   C24448808   7.719   6.429   3.567  0.2577 -0.5207  0.2223
  143MOL   C24548809   7.820   6.527   3.541  0.4732 -0.2854 -0.2597
  143MOL   C24648810   7.894   6.519   3.425 -0.6877  0.6577  0.0281
  143MOL   C24748811   7.867   6.420   3.330  0.3272 -0.3743  0.2727
  143MOL   O24848812   7.886   6.160   3.201 -0.4156  0.6610  0.2667
  143MOL   H24948813   7.696   6.070   3.415 -0.2521  1.1795  0.2176
  143MOL   H25048814   7.704   5.993   3.251  0.7934 -0.2827  0.3649
  143MOL   H25148815   7.693   6.233   3.187 -0.9449  0.5433  1.2633
  143MOL   H25248816   7.635   6.241   3.509  3.0703 -1.8579  2.0982
  143MOL   H25348817   7.667   6.435   3.662 -0.7971 -2.8920 -0.1775
  143MOL   H25448818   7.837   6.609   3.609  0.8415 -0.1927 -0.4599
  143MOL   H25548819   7.975   6.587   3.405 -1.2275  1.9946  2.3245
  143MOL   H25648820   7.916   6.427   3.234  0.5258  1.3781  0.4857
  143MOL   C25748821   7.879   6.150   3.062 -0.0852 -0.1417 -0.8417
  143MOL   C25848822   8.018   6.134   2.999 -0.4294 -0.2601 -0.6605
  143MOL   C25948823   0.012   6.259   3.036  0.2413 -0.1649  0.1069
  143MOL   C26048824   8.063   6.382   2.967  0.5605  0.7660 -0.4389
  143MOL   C26148825   0.044   6.498   3.006 -0.0535 -0.4056 -0.3140
  143MOL   C26248826   0.128   6.502   3.117 -0.4250 -0.4988  0.1389
  143MOL   C26348827   0.170   6.381   3.180 -0.6593 -0.0154  0.7243
  143MOL   C26448828   0.115   6.264   3.138 -0.7130 -0.2628  0.4363
  143MOL   O26548829   8.016   6.109   2.857 -0.1761 -0.4436  0.0712
  143MOL   H26648830   7.826   6.229   3.010  0.1460 -1.3722 -3.0175
  143MOL   H26748831   7.817   6.064   3.038 -3.2492  1.6331  0.5915
  143MOL   H26848832   8.058   6.047   3.052 -1.0875 -0.3853 -0.3597
  143MOL   H26948833   7.987   6.391   2.891 -1.2397  0.7008  1.3046
  143MOL   H27048834   0.013   6.591   2.960  1.6909  1.1253  1.5034
  143MOL   H27148835   0.187   6.586   3.150  1.9581 -2.7185  1.7101
  143MOL   H27248836   0.243   6.362   3.258 -1.1607 -0.2610  1.1344
  143MOL   H27348837   0.137   6.175   3.194 -0.8243 -0.6737 -0.1748
  143MOL   C27448838   0.059   6.059   2.808  0.3659  0.1996 -0.7203
  143MOL   C27548839   0.089   6.090   2.659  0.1463 -0.3001  0.1734
  143MOL   C27648840   0.132   5.961   2.583 -0.2265  0.0610 -0.3007
  143MOL   C27748841   0.267   5.946   2.542 -0.1037  0.2974 -0.5251
  143MOL   C27848842   0.310   5.834   2.464  0.3747 -0.0056  0.9278
  143MOL   C27948843   0.221   5.732   2.440  0.1378  0.1141 -0.1623
  143MOL   C28048844   0.087   5.746   2.484  0.0251 -0.1274  1.1041
  143MOL   C28148845   0.040   5.863   2.549  0.4004  1.0102  0.0177
  143MOL   O28248846   0.188   6.192   2.639  0.3936  0.2439 -0.1670
  143MOL   H28348847   0.145   6.071   2.874 -0.4852  0.7763  0.3024
  143MOL   H28448848   0.037   5.955   2.830  0.9237 -0.1971 -2.0083
  143MOL   H28548849   8.078   6.111   2.603  1.3225  0.0975 -1.6229
  143MOL   H28648850   0.341   6.023   2.556  1.7268 -1.6508  0.8600
  143MOL   H28748851   0.409   5.835   2.423 -0.7213 -0.5260 -1.8029
  143MOL   H28848852   0.252   5.640   2.392  0.6682 -0.2339  0.8568
  143MOL   H28948853   0.025   5.662   2.457  0.4796  0.3080 -1.3815
  143MOL   H29048854   8.021   5.861   2.593  0.7389 -2.0951  0.7542
  143MOL   C29148855   0.145   6.320   2.637  0.2827 -0.6105 -0.0190
  143MOL   C29248856   0.082   6.363   2.506  0.2641  0.0343  0.5865
  143MOL   C29348857   0.010   6.500   2.528 -0.0541  0.4970 -0.3198
  143MOL   C29448858   7.947   6.508   2.554  0.5771  1.0106 -0.4840
  143MOL   C29548859   7.888   6.632   2.587 -0.6488 -0.3016 -0.0238
  143MOL   C29648860   7.966   6.751   2.574 -0.0966 -0.5889  0.5255
  143MOL   C29748861   0.024   6.737   2.549 -0.2073 -0.0337 -0.1881
  143MOL   C29848862   0.090   6.615   2.527 -0.4809 -0.6025  0.1085
  143MOL   O29948863   0.188   6.363   2.412  0.3385 -0.0805  0.3827
  143MOL   H30048864   0.228   6.389   2.654  1.9330 -2.0813 -1.8335
  143MOL   H30148865   0.070   6.339   2.714  0.9467  1.2089  0.2202
  143MOL   H30248866   8.078   6.295   2.497  1.0850 -1.4690  3.4850
  143MOL   H30348867   7.892   6.416   2.562  0.4625  1.2664  1.8889
  143MOL   H30448868   7.782   6.638   2.609 -0.8926 -1.6309 -0.7645
  143MOL   H30548869   7.919   6.847   2.584  0.4161 -0.0058 -2.4189
  143MOL   H30648870   0.072   6.833   2.534 -1.1975  0.1582 -2.3354
  143MOL   H30748871   0.198   6.617   2.528 -0.4469 -1.6549 -0.7182
  143MOL   C30848872   0.140   6.353   2.287 -0.9755 -0.4400 -0.7103
  143MOL   C30948873   0.253   6.399   2.193 -0.4514 -0.9349 -0.1141
  143MOL   C31048874   0.206   6.384   2.050 -0.3471 -0.6169  0.2071
  143MOL   C31148875   0.272   6.293   1.962  0.8276  0.2417 -0.1385
  143MOL   C31248876   0.228   6.274   1.827 -0.3521 -0.3741 -0.2663
  143MOL   C31348877   0.127   6.354   1.778 -0.6950  0.0493  0.0867
  143MOL   C31448878   0.061   6.445   1.870  0.1741  0.2375  0.1003
  143MOL   C31548879   0.094   6.455   2.004 -0.0106 -0.3380  0.4142
  143MOL   O31648880   0.265   6.537   2.226 -0.3704  0.0780 -0.1341
  143MOL   H31748881   0.059   6.422   2.261 -0.0185  1.2814  0.7297
  143MOL   H31848882   0.121   6.248   2.265 -1.1774 -0.3902 -0.7759
  143MOL   H31948883   0.345   6.342   2.205 -0.8017 -1.3719  0.5312
  143MOL   H32048884   0.354   6.236   2.003  0.1030 -0.5024  0.2777
  143MOL   H32148885   0.272   6.197   1.765 -0.8821 -0.9049  0.0127
  143MOL   H32248886   0.101   6.343   1.674  0.7788  0.3311 -0.3159
  143MOL   H32348887   8.047   6.492   1.842  0.9409  1.1650 -0.9388
  143MOL   H32448888   0.037   6.521   2.068  2.1677  1.4690  0.5305
  143MOL   C32548889   0.374   6.607   2.151  0.5495  0.3636 -0.2196
  143MOL   C32648890   0.511   6.585   2.219 -0.1991  0.5322 -0.2830
  143MOL   C32748891   0.537   6.623   2.364 -0.4946  0.2627  0.4472
  143MOL   C32848892   0.467   6.556   2.461  0.2400  0.7917  0.5589
  143MOL   C32948893   0.484   6.589   2.596  0.2222  0.6810 -0.1647
  143MOL   C33048894   0.562   6.699   2.626 -0.0344 -0.0670 -0.1782
  143MOL   C33148895   0.627   6.773   2.523  0.3129 -0.3203 -0.5949
  143MOL   C33248896   0.625   6.730   2.391  0.1254  0.1135  0.1188
  143MOL   O33348897   0.555   6.453   2.187 -0.0151 -0.1595 -0.2985
  143MOL   H33448898   0.346   6.712   2.143 -2.0713 -0.2746 -0.0064
  143MOL   H33548899   0.372   6.578   2.045  2.5520  0.6066 -0.3310
  143MOL   H33648900   0.587   6.638   2.161  1.9207  0.4103  2.2544
  143MOL   H33748901   0.392   6.484   2.429  0.9756 -0.5837  1.8540
  143MOL   H33848902   0.440   6.542   2.682 -0.2863  1.4342 -0.0101
  143MOL   H33948903   0.584   6.732   2.726  0.9542 -1.6791  0.1316
  143MOL   H34048904   0.676   6.863   2.556 -2.0345  1.6331 -2.2749
  143MOL   H34148905   0.683   6.766   2.307 -0.7078  0.3101 -0.3812
  143MOL   H34248906   0.535   6.408   2.268  1.7136 -0.0675  0.1814
  144MOL     C148907   1.732   4.486   0.294  0.4087  0.0083 -0.0179
  144MOL     C248908   1.787   4.424   0.165  0.6488  1.2155 -0.1580
  144MOL     C348909   1.882   4.510   0.083  0.9640 -0.0650  0.4266
  144MOL     C448910   2.020   4.500   0.108 -0.0819 -0.8938 -0.5897
  144MOL     C548911   2.108   4.589   0.039  0.2776  0.4953 -0.5417
  144MOL     C648912   2.060   4.674   8.024  1.2243 -1.0304 -0.0748
  144MOL     C748913   1.921   4.696   8.012  0.4157  0.2102  0.2408
  144MOL     C848914   1.829   4.616   0.005 -0.1747 -1.0475 -0.1086
  144MOL     O948915   1.662   4.381   0.097 -0.1877  0.4088  0.5528
  144MOL    H1048916   1.665   4.418   0.347  0.2324 -2.0519 -2.8182
  144MOL    H1148917   1.820   4.514   0.352 -0.0038 -0.1758  0.7099
  144MOL    H1248918   1.834   4.331   0.196 -1.4639 -0.2125 -1.1070
  144MOL    H1348919   2.067   4.436   0.181 -3.8356 -0.9916  1.8870
  144MOL    H1448920   2.214   4.583   0.060 -0.1726 -1.3768  1.3433
  144MOL    H1548921   2.112   4.754   7.972  0.6176  0.5182  1.6717
  144MOL    H1648922   1.879   4.780   7.959 -0.0846 -1.3188 -1.8446
  144MOL    H1748923   1.724   4.638   8.071 -0.1978 -1.3327 -0.3820
  144MOL    H1848924   1.670   4.572   0.267  1.4444  0.4275 -1.0721
  144MOL    C1948925   1.678   4.290   8.066 -0.0962 -1.1576 -0.0856
  144MOL    C2048926   1.551   4.219   8.033  0.0752  0.1960  0.4734
  144MOL    C2148927   1.456   4.309   7.952 -0.1666 -0.5258 -0.1399
  144MOL    C2248928   1.484   4.331   7.816 -0.3206 -0.1560  0.1521
  144MOL    C2348929   1.391   4.397   7.733 -0.6329  0.5197  0.6421
  144MOL    C2448930   1.266   4.433   7.789  0.3690  0.1461  0.7129
  144MOL    C2548931   1.233   4.408   7.925 -0.3291  0.2190 -0.1337
  144MOL    C2648932   1.326   4.345   8.005  0.0423  0.0343 -0.5975
  144MOL    O2748933   1.495   4.165   0.063  0.0835  0.0239  0.4585
  144MOL    H2848934   1.716   4.346   7.981  2.0278 -0.9855  0.9388
  144MOL    H2948935   1.754   4.216   0.012  1.9075  0.9611  0.2257
  144MOL    H3048936   1.579   4.134   7.971  1.1378 -1.7265  3.5099
  144MOL    H3148937   1.576   4.307   7.764 -1.1221  0.5493 -1.6573
  144MOL    H3248938   1.415   4.409   7.628 -0.0906 -2.2849  0.4004
  144MOL    H3348939   1.192   4.489   7.734  1.2606 -1.5891 -2.3606
  144MOL    H3448940   1.133   4.429   7.959  0.7728  4.2575  0.9761
  144MOL    H3548941   1.294   4.324   0.026 -3.5144  1.8343 -1.2879
  144MOL    C3648942   1.570   4.089   0.157 -0.3570 -0.2377  0.1435
  144MOL    C3748943   1.486   4.038   0.267 -0.1726  0.2475 -0.1943
  144MOL    C3848944   1.576   3.949   0.352 -0.1535  0.1728  0.2720
  144MOL    C3948945   1.626   3.826   0.299 -0.1844 -0.4873  0.2199
  144MOL    C4048946   1.709   3.748   0.381  0.7222 -0.3476  1.0222
  144MOL    C4148947   1.722   3.770   0.518  0.8053  1.2666 -0.1849
  144MOL    C4248948   1.668   3.886   0.572  0.8765 -0.1165  0.2234
  144MOL    C4348949   1.591   3.979   0.489 -0.1781 -0.1831 -0.0762
  144MOL    O4448950   1.376   3.964   0.211  0.3776  0.0800  0.0616
  144MOL    H4548951   1.615   4.011   0.095  2.2072 -0.3472  2.0551
  144MOL    H4648952   1.657   4.144   0.193  0.4351  0.0946 -2.1579
  144MOL    H4748953   1.470   4.131   0.321  2.6290  1.6832 -1.7270
  144MOL    H4848954   1.619   3.797   0.195  0.1783  0.1521  0.0161
  144MOL    H4948955   1.754   3.655   0.349 -0.2914 -0.7929  0.8859
  144MOL    H5048956   1.786   3.704   0.576  2.3577  1.6738 -1.3914
  144MOL    H5148957   1.695   3.917   0.673  1.9020  2.8992 -0.9049
  144MOL    H5248958   1.548   4.066   0.537  3.0329  0.7654  1.2571
  144MOL    C5348959   1.249   4.027   0.243 -0.3929 -0.3971  0.1587
  144MOL    C5448960   1.132   3.953   0.196 -0.2147  0.2460 -0.1707
  144MOL    C5548961   1.122   3.935   0.044  0.7070  0.2666 -0.2915
  144MOL    C5648962   1.187   4.031   8.036  0.5807 -0.3694 -0.3757
  144MOL    C5748963   1.178   4.015   7.894  0.5926 -0.3223 -0.0887
  144MOL    C5848964   1.110   3.899   7.846  0.6774 -0.2637  0.1172
  144MOL    C5948965   1.039   3.812   7.935  0.0198  0.2470 -0.8357
  144MOL    C6048966   1.042   3.834   8.073 -0.1560 -0.3009  0.4454
  144MOL    O6148967   1.111   3.837   0.278  0.1198 -0.2583 -0.4210
  144MOL    H6248968   1.237   4.048   0.349 -1.2952  0.0381 -0.0225
  144MOL    H6348969   1.251   4.125   0.197 -4.2722 -0.6302 -0.6762
  144MOL    H6448970   1.043   4.015   0.214 -1.5484 -1.2115 -1.5364
  144MOL    H6548971   1.236   4.115   0.003  1.7815 -0.7415 -0.9374
  144MOL    H6648972   1.220   4.087   7.825  0.8347  2.8523  3.2102
  144MOL    H6748973   1.110   3.884   7.739  0.1786 -0.1560  0.1005
  144MOL    H6848974   0.995   3.719   7.902  0.0413 -0.2479  0.5002
  144MOL    H6948975   0.993   3.770   0.065 -0.3820  1.2966  1.7528
  144MOL    C7048976   1.185   3.718   0.254  0.4668 -0.4310 -0.9237
  144MOL    C7148977   1.296   3.685   0.358  0.3237 -0.4484 -0.7890
  144MOL    C7248978   1.349   3.538   0.347  0.0457  0.0158  0.3323
  144MOL    C7348979   1.457   3.514   0.268 -0.4197  0.4705  0.6217
  144MOL    C7448980   1.499   3.382   0.251 -0.5859 -0.3558 -0.5987
  144MOL    C7548981   1.442   3.271   0.316 -0.1889  0.3552  0.5047
  144MOL    C7648982   1.327   3.299   0.396 -0.7480 -0.2910  0.8509
  144MOL    C7748983   1.283   3.429   0.411 -0.7227 -1.0510  0.7558
  144MOL    O7848984   1.254   3.711   0.486  0.5035  0.5275  0.1564
  144MOL    H7948985   1.111   3.638   0.250  1.7960 -1.6461 -1.6747
  144MOL    H8048986   1.226   3.725   0.153 -1.9978 -1.9758 -2.0859
  144MOL    H8148987   1.380   3.754   0.342 -0.3957  0.7579  0.5090
  144MOL    H8248988   1.523   3.596   0.241 -0.9723  0.0234 -2.2269
  144MOL    H8348989   1.582   3.357   0.186 -1.0377  1.0495 -1.7492
  144MOL    H8448990   1.489   3.174   0.308 -0.0669  0.6144 -2.5580
  144MOL    H8548991   1.275   3.222   0.450  0.0010 -0.2555  1.6279
  144MOL    H8648992   1.191   3.453   0.463 -1.2353 -0.2178 -0.5114
  144MOL    C8748993   1.342   3.751   0.586 -0.2665 -0.3462  0.2213
  144MOL    C8848994   1.274   3.797   0.718  0.1607  0.3707 -0.2770
  144MOL    C8948995   1.173   3.911   0.686  0.1860 -0.0380 -0.5144
  144MOL    C9048996   1.036   3.886   0.699 -0.3108  0.4591  0.4817
  144MOL    C9148997   0.945   3.990   0.674  0.5937 -0.5772  0.2219
  144MOL    C9248998   0.988   4.118   0.644 -0.8015  0.0471 -0.0972
  144MOL    C9348999   1.124   4.145   0.620  0.3371  1.1645  0.1744
  144MOL    C9449000   1.211   4.036   0.635  0.1920  0.6087 -0.5603
  144MOL    O9549001   1.378   3.833   0.806  0.0811 -0.3963  0.4419
  144MOL    H9649002   1.405   3.829   0.544  0.1907 -1.3188 -0.9312
  144MOL    H9749003   1.412   3.672   0.613  1.5800  0.7451 -1.2437
  144MOL    H9849004   1.230   3.711   0.767 -1.4055  1.7800  0.8107
  144MOL    H9949005   1.005   3.786   0.729  0.4948  0.2728  0.7160
  144MOL   H10049006   0.838   3.971   0.677  0.0451  2.0666 -0.8588
  144MOL   H10149007   0.917   4.197   0.630 -0.9512 -0.0191  0.2754
  144MOL   H10249008   1.159   4.245   0.598 -0.6087  1.0100 -2.1951
  144MOL   H10349009   1.315   4.062   0.620  0.6378 -1.1561 -0.6022
  144MOL   C10449010   1.355   3.889   0.933  0.2326 -0.3873 -0.0508
  144MOL   C10549011   1.459   3.831   1.035 -0.0800  0.1080  0.3625
  144MOL   C10649012   1.605   3.874   1.001  0.1215 -0.0053  0.0691
  144MOL   C10749013   1.656   3.995   1.059 -0.2506 -0.1318  0.3190
  144MOL   C10849014   1.785   4.036   1.029  0.7215 -0.0008  0.3867
  144MOL   C10949015   1.867   3.959   0.950 -0.3932  0.1423  0.3663
  144MOL   C11049016   1.813   3.837   0.895 -0.0719 -0.3142  0.0329
  144MOL   C11149017   1.681   3.794   0.909  0.3655  0.1990 -0.2185
  144MOL   O11249018   1.427   3.888   1.164 -0.6542 -0.5816 -0.0280
  144MOL   H11349019   1.374   3.996   0.928  0.1584 -0.3659  0.1077
  144MOL   H11449020   1.253   3.885   0.972  0.7423  1.0567  1.5077
  144MOL   H11549021   1.457   3.722   1.037 -1.5184  0.0972 -0.7798
  144MOL   H11649022   1.597   4.065   1.117 -0.2409 -0.6312  0.9395
  144MOL   H11749023   1.826   4.123   1.078  1.2906 -0.0203 -0.0502
  144MOL   H11849024   1.970   3.990   0.936 -0.0037 -0.5161  1.7138
  144MOL   H11949025   1.881   3.784   0.829 -0.5999  1.7302 -2.2377
  144MOL   H12049026   1.641   3.707   0.859 -0.0957 -0.5256  1.3565
  144MOL   C12149027   1.337   3.811   1.243  0.4766 -0.2487  0.3651
  144MOL   C12249028   1.339   3.869   1.384 -0.9119  0.3471 -0.4713
  144MOL   C12349029   1.295   4.012   1.387 -0.1552 -0.8324 -0.0998
  144MOL   C12449030   1.165   4.040   1.432 -0.1984 -0.2713 -0.0298
  144MOL   C12549031   1.126   4.174   1.456  0.4485  0.2511  0.3580
  144MOL   C12649032   1.214   4.279   1.432 -0.5555  1.0386  0.2378
  144MOL   C12749033   1.345   4.245   1.387 -0.1555 -0.2061 -0.8466
  144MOL   C12849034   1.383   4.116   1.361  0.2964 -0.1148 -0.5890
  144MOL   O12949035   1.267   3.785   1.476  0.4979  0.0712  0.2536
  144MOL   H13049036   1.371   3.707   1.241  0.6986 -0.2307  1.9169
  144MOL   H13149037   1.239   3.834   1.203  0.7121  2.6955  1.3903
  144MOL   H13249038   1.440   3.867   1.426 -0.4477 -1.0502 -1.6455
  144MOL   H13349039   1.097   3.959   1.456  0.4759 -1.2577 -1.3609
  144MOL   H13449040   1.025   4.188   1.492 -0.8051  1.5447 -3.4343
  144MOL   H13549041   1.189   4.382   1.454 -1.4282  0.8475  0.1544
  144MOL   H13649042   1.412   4.328   1.370 -0.0857 -0.1771 -0.4392
  144MOL   H13749043   1.485   4.108   1.326 -0.0993  0.3777 -1.8937
  144MOL   C13849044   1.335   3.672   1.517 -0.1176 -0.1177  0.4464
  144MOL   C13949045   1.246   3.564   1.575 -0.4535 -0.5115  0.1583
  144MOL   C14049046   1.147   3.605   1.682  0.2495 -0.1035 -0.0508
  144MOL   C14149047   1.009   3.625   1.649  0.4595 -0.0379  0.4538
  144MOL   C14249048   0.915   3.648   1.754 -0.3081  0.1557  0.7266
  144MOL   C14349049   0.955   3.655   1.889 -0.1857 -0.8232  0.5191
  144MOL   C14449050   1.090   3.638   1.923 -0.1487  0.6332 -0.0711
  144MOL   C14549051   1.184   3.616   1.819 -0.2338 -0.4677 -0.2526
  144MOL   O14649052   1.180   3.509   1.464 -0.1015 -0.4438 -0.1055
  144MOL   H14749053   1.402   3.695   1.600 -0.3017  2.8228 -0.1542
  144MOL   H14849054   1.393   3.630   1.435 -1.0036  0.4491 -0.4884
  144MOL   H14949055   1.309   3.489   1.624 -0.1353  0.6040  1.4770
  144MOL   H15049056   0.968   3.618   1.550 -1.4928  0.6889  1.1891
  144MOL   H15149057   0.809   3.660   1.739 -0.4104 -2.5105 -0.8680
  144MOL   H15249058   0.880   3.688   1.959 -0.6878 -0.6717 -0.0894
  144MOL   H15349059   1.116   3.643   2.028 -0.4637 -1.2427  0.1224
  144MOL   H15449060   1.290   3.606   1.832 -0.4356 -0.3930  1.6453
  144MOL   C15549061   1.134   3.371   1.489 -0.2444  1.1568  0.1484
  144MOL   C15649062   1.051   3.339   1.370 -0.3458  0.3958 -0.3078
  144MOL   C15749063   1.127   3.349   1.238 -0.2155 -0.1948 -0.6443
  144MOL   C15849064   1.179   3.229   1.184  0.0776  0.2782 -0.5070
  144MOL   C15949065   1.246   3.230   1.061  0.0406  0.4051 -0.4357
  144MOL   C16049066   1.274   3.353   0.996  0.7822  0.9524  0.7030
  144MOL   C16149067   1.221   3.478   1.050  0.2636  0.5592 -0.2107
  144MOL   C16249068   1.146   3.475   1.171  0.4900  0.5947 -0.3724
  144MOL   O16349069   0.991   3.206   1.393 -0.5752  0.4907 -0.0504
  144MOL   H16449070   1.070   3.361   1.578  1.9645 -0.3886  1.6127
  144MOL   H16549071   1.225   3.311   1.491 -0.9223  0.0794 -0.5469
  144MOL   H16649072   0.980   3.421   1.360  0.9508  1.3501 -1.9203
  144MOL   H16749073   1.161   3.140   1.242  0.3987 -1.3930 -2.9004
  144MOL   H16849074   1.284   3.138   1.019 -1.7503 -0.7574  0.3934
  144MOL   H16949075   1.330   3.366   0.905  0.6917 -1.1533  0.3245
  144MOL   H17049076   1.242   3.571   0.999 -0.0990 -0.1578 -1.6831
  144MOL   H17149077   1.096   3.561   1.211  0.6016  0.3207  0.3580
  144MOL   C17249078   0.865   3.192   1.324  0.7351 -0.0124  0.2672
  144MOL   C17349079   0.787   3.075   1.362  0.3710 -0.3963 -0.4857
  144MOL   C17449080   0.667   3.046   1.263  0.3280  0.2711  0.4694
  144MOL   C17549081   0.539   3.087   1.284  0.4842 -0.1367  0.1648
  144MOL   C17649082   0.429   3.048   1.201 -0.5958  0.5674 -0.3715
  144MOL   C17749083   0.455   2.978   1.083  0.0105  0.7404  0.1608
  144MOL   C17849084   0.586   2.934   1.065  0.3986  1.1558  0.0668
  144MOL   C17949085   0.691   2.955   1.158 -0.0470 -0.4888  0.6873
  144MOL   O18049086   0.729   3.077   1.493  0.2637 -0.0629  0.1551
  144MOL   H18149087   0.802   3.281   1.331 -0.5045 -0.9705  1.8005
  144MOL   H18249088   0.886   3.185   1.217 -0.1583  0.6908  0.0405
  144MOL   H18349089   0.858   2.993   1.354  1.1028  0.0157  1.4535
  144MOL   H18449090   0.522   3.138   1.377  1.5682  0.1199  0.2295
  144MOL   H18549091   0.326   3.078   1.216 -0.8447 -0.2201 -0.4667
  144MOL   H18649092   0.385   2.948   1.006 -0.6725 -1.6210  1.6557
  144MOL   H18749093   0.602   2.881   0.972 -2.5289 -0.5046  0.4338
  144MOL   H18849094   0.785   2.913   1.125  0.3490 -0.4423  1.7613
  144MOL   C18949095   0.817   3.078   1.606  0.1097  0.0162 -0.0578
  144MOL   C19049096   0.729   3.049   1.729 -0.1104  0.7747 -0.1068
  144MOL   C19149097   0.642   3.169   1.756  0.6097 -0.2579  0.3715
  144MOL   C19249098   0.705   3.287   1.797 -0.1246 -0.7650 -0.1332
  144MOL   C19349099   0.631   3.406   1.835  0.3791 -0.0854 -0.0309
  144MOL   C19449100   0.491   3.398   1.822 -0.4025  0.2890  0.1453
  144MOL   C19549101   0.429   3.288   1.762 -0.2604 -0.6337 -0.2986
  144MOL   C19649102   0.500   3.174   1.735 -0.1138  0.2878 -0.0142
  144MOL   O19749103   0.813   3.028   1.843  0.5853 -0.3418 -0.3200
  144MOL   H19849104   0.887   2.994   1.599  2.2844  1.6841  1.0776
  144MOL   H19949105   0.883   3.162   1.626 -0.5571  0.3014  0.9950
  144MOL   H20049106   0.657   2.969   1.708 -0.7020  1.8399 -2.2897
  144MOL   H20149107   0.812   3.287   1.816  0.0050 -0.1289 -0.8455
  144MOL   H20249108   0.684   3.495   1.865 -0.4649 -0.2370  1.9627
  144MOL   H20349109   0.419   3.476   1.842 -1.8549 -0.7995 -0.7393
  144MOL   H20449110   0.322   3.286   1.747 -0.1044 -1.8088 -1.4149
  144MOL   H20549111   0.452   3.082   1.705  1.5993 -0.6985  0.2163
  144MOL   C20649112   0.890   2.910   1.865 -0.2291  0.0456  0.2993
  144MOL   C20749113   0.975   2.945   1.989  0.0388 -0.2230  0.5643
  144MOL   C20849114   1.085   3.036   1.944 -0.8260 -0.7476  0.2550
  144MOL   C20949115   1.068   3.176   1.950  0.4241  0.8560  0.6991
  144MOL   C21049116   1.163   3.261   1.898  0.2369  0.1876 -0.2290
  144MOL   C21149117   1.284   3.206   1.846  0.0595  0.0454  0.4400
  144MOL   C21249118   1.307   3.067   1.850 -0.5655 -0.2315 -0.1124
  144MOL   C21349119   1.206   2.981   1.885  0.0730 -0.3161  0.2274
  144MOL   O21449120   1.032   2.816   2.032 -1.0046 -0.4137  0.0751
  144MOL   H21549121   0.824   2.825   1.882  0.7301 -0.8738 -0.5831
  144MOL   H21649122   0.945   2.884   1.775 -0.3033  2.8356 -0.6175
  144MOL   H21749123   0.910   2.994   2.062 -2.5184 -1.0406 -1.1217
  144MOL   H21849124   0.975   3.221   1.983 -0.9787 -2.1204  1.0130
  144MOL   H21949125   1.156   3.369   1.886  1.3032  0.4518  1.3737
  144MOL   H22049126   1.362   3.275   1.817  0.7402 -0.4489  1.0779
  144MOL   H22149127   1.391   3.019   1.803  1.2909  0.2522  2.6025
  144MOL   H22249128   1.210   2.873   1.883 -0.4762 -0.3652  1.2485
  144MOL   C22349129   1.103   2.817   2.157  0.5304 -0.1009  0.1160
  144MOL   C22449130   1.027   2.883   2.275 -0.2963  0.9814  0.2273
  144MOL   C22549131   1.058   2.810   2.402 -0.2463  0.6526 -0.1380
  144MOL   C22649132   1.167   2.848   2.489 -0.4438  0.1236  0.1508
  144MOL   C22749133   1.178   2.784   2.614 -0.2975  0.2416  0.0917
  144MOL   C22849134   1.096   2.677   2.647 -0.0163 -0.2174  0.3738
  144MOL   C22949135   0.995   2.638   2.562  0.8984 -0.1859  0.0022
  144MOL   C23049136   0.977   2.700   2.440  0.1930  0.5509  0.0302
  144MOL   O23149137   1.068   3.019   2.273 -0.3645 -0.1683  0.1881
  144MOL   H23249138   1.120   2.713   2.185 -1.1347 -0.4644 -0.1732
  144MOL   H23349139   1.208   2.846   2.158 -0.1772  2.6130  0.7954
  144MOL   H23449140   0.921   2.880   2.253  0.0142 -1.6445 -1.1394
  144MOL   H23549141   1.222   2.937   2.462 -1.3971  0.5225 -0.5180
  144MOL   H23649142   1.262   2.802   2.679  0.6352  0.7981 -1.2340
  144MOL   H23749143   1.113   2.639   2.746  2.8053  3.4650  1.4002
  144MOL   H23849144   0.933   2.554   2.590 -1.2909  0.7590 -1.9007
  144MOL   H23949145   0.899   2.664   2.374  1.6713  0.8458 -1.9238
  144MOL   C24049146   0.991   3.097   2.372 -0.1175 -0.5959  0.2136
  144MOL   C24149147   1.042   3.241   2.369  0.4848 -0.1806  0.2627
  144MOL   C24249148   0.971   3.341   2.456 -0.4109  0.0601 -0.4836
  144MOL   C24349149   1.041   3.416   2.562  0.1528 -0.2485  0.2059
  144MOL   C24449150   0.962   3.510   2.627  0.6142 -0.0142 -0.0522
  144MOL   C24549151   0.827   3.533   2.604 -0.5027  0.3763 -0.4685
  144MOL   C24649152   0.762   3.453   2.505 -0.6723  0.0376  0.1421
  144MOL   C24749153   0.837   3.356   2.439  0.0090  0.6279  0.2750
  144MOL   O24849154   1.187   3.246   2.387  0.2420  0.1178  0.7185
  144MOL   H24949155   0.885   3.094   2.346  0.3567  0.9631 -2.0048
  144MOL   H25049156   1.002   3.051   2.471 -2.6370  0.6832  1.1236
  144MOL   H25149157   1.015   3.279   2.271  0.3607  2.4501  1.2715
  144MOL   H25249158   1.142   3.394   2.594  0.0792 -1.2422 -0.2102
  144MOL   H25349159   1.004   3.554   2.716 -2.1041  0.0022  1.2858
  144MOL   H25449160   0.787   3.616   2.661  0.6374  0.2414  0.5502
  144MOL   H25549161   0.655   3.465   2.490 -0.5799  0.6018 -0.0452
  144MOL   H25649162   0.787   3.307   2.357  1.0803  1.7875 -1.0747
  144MOL   C25749163   1.257   3.249   2.261  0.1499  0.9568  0.0605
  144MOL   C25849164   1.410   3.225   2.264  0.4661  1.0173 -0.2158
  144MOL   C25949165   1.450   3.082   2.313  0.1945 -0.7736  0.0622
  144MOL   C26049166   1.484   3.049   2.447  0.0145  0.4533  0.8608
  144MOL   C26149167   1.516   2.923   2.486  0.2831 -0.3104 -0.4113
  144MOL   C26249168   1.513   2.814   2.394  0.4056  0.0670  0.2847
  144MOL   C26349169   1.484   2.841   2.260  0.4094 -0.1671  0.7270
  144MOL   C26449170   1.448   2.973   2.225 -0.2042 -0.0444  0.0603
  144MOL   O26549171   1.481   3.322   2.345  0.6178  0.3844 -0.1840
  144MOL   H26649172   1.233   3.352   2.233  0.7079  1.5892  1.8374
  144MOL   H26749173   1.208   3.191   2.183  0.3722  0.7600  0.0667
  144MOL   H26849174   1.444   3.236   2.161 -0.5751 -0.8211 -0.7908
  144MOL   H26949175   1.481   3.133   2.515  0.9595  0.5141  0.8414
  144MOL   H27049176   1.549   2.903   2.587  0.9138 -0.1713 -0.5880
  144MOL   H27149177   1.532   2.714   2.432 -1.3507 -0.1826  0.5311
  144MOL   H27249178   1.487   2.762   2.186 -1.3662 -0.3873  0.8766
  144MOL   H27349179   1.403   2.997   2.129  1.0642  0.6639 -0.3702
  144MOL   C27449180   1.510   3.442   2.278 -0.6975  0.0277  0.3270
  144MOL   C27549181   1.591   3.525   2.382 -0.0056  0.0147  0.3903
  144MOL   C27649182   1.503   3.593   2.480  0.7042  0.1572 -0.1103
  144MOL   C27749183   1.455   3.725   2.464 -0.1047  0.6835 -0.0925
  144MOL   C27849184   1.365   3.776   2.558  0.6395  0.3310  0.4761
  144MOL   C27949185   1.305   3.696   2.658  0.0723  0.7539  0.0668
  144MOL   C28049186   1.348   3.563   2.669  0.1124 -0.9123  0.1534
  144MOL   C28149187   1.446   3.517   2.582  0.1313 -0.0356 -0.5932
  144MOL   O28249188   1.675   3.622   2.323 -0.1160 -0.3231 -0.0704
  144MOL   H28349189   1.578   3.405   2.202  0.6040  2.4748  0.2427
  144MOL   H28449190   1.426   3.500   2.238 -0.2524  0.1708 -0.3970
  144MOL   H28549191   1.656   3.449   2.427  0.8430  0.8021  0.5124
  144MOL   H28649192   1.500   3.784   2.386  0.5848  2.2363  1.4412
  144MOL   H28749193   1.320   3.874   2.557 -2.5546 -1.0584  1.3210
  144MOL   H28849194   1.226   3.741   2.716 -0.3531 -1.1815  1.0248
  144MOL   H28949195   1.302   3.500   2.745  0.1273  0.2418  1.1400
  144MOL   H29049196   1.483   3.417   2.599 -0.1141 -0.1015 -0.4543
  144MOL   C29149197   1.802   3.578   2.277 -0.1002 -0.0427  0.2502
  144MOL   C29249198   1.884   3.707   2.239 -0.0628  0.3364 -0.0923
  144MOL   C29349199   1.879   3.821   2.348  0.3613 -0.0271 -0.1129
  144MOL   C29449200   1.888   3.957   2.306  0.0854 -0.2848  0.1872
  144MOL   C29549201   1.876   4.063   2.407  0.2237  0.1272  0.0699
  144MOL   C29649202   1.864   4.033   2.542 -0.8884 -0.1220 -1.0020
  144MOL   C29749203   1.857   3.898   2.585 -0.5655 -0.0512 -0.2358
  144MOL   C29849204   1.867   3.796   2.486  0.3607  0.3284  0.5387
  144MOL   O29949205   2.023   3.684   2.199 -0.0301 -0.2895 -0.7783
  144MOL   H30049206   1.789   3.511   2.191 -2.6227 -0.9848  1.3210
  144MOL   H30149207   1.858   3.537   2.361  2.4400  0.6689 -1.0576
  144MOL   H30249208   1.832   3.750   2.153  2.8959  3.4922 -0.3931
  144MOL   H30349209   1.905   3.985   2.203 -1.5099  0.5518  0.1398
  144MOL   H30449210   1.878   4.166   2.373  2.3986 -0.1016 -0.5624
  144MOL   H30549211   1.858   4.109   2.619  0.7119 -0.6230 -0.3671
  144MOL   H30649212   1.856   3.884   2.692 -0.4701  1.0264 -0.0951
  144MOL   H30749213   1.866   3.693   2.518  1.3254  0.3703  0.7395
  144MOL   C30849214   2.035   3.590   2.092 -0.6649 -0.9680  0.3895
  144MOL   C30949215   2.184   3.591   2.063 -0.5978  0.0930  0.2535
  144MOL   C31049216   2.226   3.477   1.969  0.0343  0.3658 -0.3093
  144MOL   C31149217   2.332   3.393   2.010 -0.3073  0.0013 -0.1524
  144MOL   C31249218   2.367   3.295   1.914  0.1704 -0.1743 -0.0961
  144MOL   C31349219   2.290   3.278   1.793  0.3566  0.3398 -0.3519
  144MOL   C31449220   2.193   3.366   1.761  0.6836 -0.9059 -0.4202
  144MOL   C31549221   2.156   3.465   1.854 -0.4271 -0.5370  0.0178
  144MOL   O31649222   2.213   3.721   2.013 -0.1855  0.1465  0.0858
  144MOL   H31749223   1.961   3.619   2.017 -1.3038 -0.5697  1.1595
  144MOL   H31849224   2.014   3.491   2.133 -0.5574 -1.5959 -1.0153
  144MOL   H31949225   2.221   3.580   2.164 -2.4577  3.4308  1.3935
  144MOL   H32049226   2.392   3.406   2.100  1.3737 -0.4848 -1.1746
  144MOL   H32149227   2.452   3.231   1.934  0.3937  0.1281 -0.0657
  144MOL   H32249228   2.323   3.209   1.716 -1.0037 -0.8170  0.0906
  144MOL   H32349229   2.148   3.355   1.664 -0.1517  1.5078 -0.3524
  144MOL   H32449230   2.088   3.546   1.832  1.2743  1.2580  1.2446
  144MOL   C32549231   2.347   3.754   1.997  0.2893  0.3830  0.1659
  144MOL   C32649232   2.363   3.909   1.987 -0.1118 -0.8216 -0.3038
  144MOL   C32749233   2.510   3.947   1.963 -0.0134 -0.4798 -0.3479
  144MOL   C32849234   2.593   4.010   2.061 -0.1791  0.1335  0.1188
  144MOL   C32949235   2.729   4.037   2.034  0.0944 -0.2204  0.8105
  144MOL   C33049236   2.783   4.012   1.910 -0.3378  0.2903  0.7180
  144MOL   C33149237   2.703   3.946   1.816 -0.0464 -0.0792  0.5771
  144MOL   C33249238   2.569   3.915   1.837 -0.5714  0.0399  1.3954
  144MOL   O33349239   2.277   3.944   1.882  0.0865 -0.3959  0.6226
  144MOL   H33449240   2.384   3.712   1.903  1.8882  1.5742  0.2261
  144MOL   H33549241   2.404   3.715   2.080 -0.0313  0.4457  0.4158
  144MOL   H33649242   2.320   3.937   2.083  0.9730  0.2154 -0.1084
  144MOL   H33749243   2.555   4.035   2.159  0.1867  1.3652 -0.0435
  144MOL   H33849244   2.789   4.107   2.089  2.2905 -0.3753 -1.3035
  144MOL   H33949245   2.888   4.032   1.901 -0.2334 -1.2890 -2.0079
  144MOL   H34049246   2.753   3.916   1.725 -1.1714 -0.4385  0.0777
  144MOL   H34149247   2.508   3.861   1.766 -0.7326  2.1933 -0.1527
  144MOL   H34249248   2.229   3.866   1.861 -0.8116  0.8003 -1.8638
  145MOL     C149249   3.002   5.892   2.507 -0.4884  0.0429  0.5669
  145MOL     C249250   3.131   5.951   2.566 -0.2017 -0.0241  0.0490
  145MOL     C349251   3.150   5.896   2.711  0.1066  0.3913  0.3432
  145MOL     C449252   3.239   5.791   2.742  0.1192  1.4352  0.4394
  145MOL     C549253   3.239   5.733   2.872  0.8193  0.1296  0.6769
  145MOL     C649254   3.155   5.789   2.972 -0.4545 -0.1492  0.3571
  145MOL     C749255   3.073   5.903   2.950  0.2741 -0.6785 -0.3515
  145MOL     C849256   3.073   5.956   2.818  0.1473 -0.3742 -0.5511
  145MOL     O949257   3.127   6.091   2.557  0.2548 -0.1052  0.4968
  145MOL    H1049258   2.914   5.927   2.559 -0.2268  1.8854 -0.1912
  145MOL    H1149259   2.999   5.921   2.402 -1.0475  1.1472  0.8812
  145MOL    H1249260   3.215   5.919   2.504  1.4637  0.0209  2.2288
  145MOL    H1349261   3.303   5.754   2.663 -1.6190  1.2472 -0.9226
  145MOL    H1449262   3.311   5.657   2.901 -0.2189 -0.9943  0.3465
  145MOL    H1549263   3.143   5.747   3.071 -3.6086 -1.6207 -0.5669
  145MOL    H1649264   3.017   5.954   3.027 -1.1060  0.3570 -2.0091
  145MOL    H1749265   3.021   6.048   2.796  0.7262 -0.2054 -1.2269
  145MOL    H1849266   3.010   5.783   2.513  1.0706 -0.0953 -2.5587
  145MOL    C1949267   3.247   6.162   2.580  0.9584 -0.2110  0.0433
  145MOL    C2049268   3.203   6.313   2.590  0.5447  0.1251 -0.6757
  145MOL    C2149269   3.097   6.332   2.691 -0.1691 -0.4608 -0.2644
  145MOL    C2249270   2.970   6.284   2.660 -0.5778  0.1222 -0.1494
  145MOL    C2349271   2.867   6.286   2.762  0.3507  0.4026  0.1075
  145MOL    C2449272   2.891   6.351   2.890 -0.0700 -0.4829 -0.0307
  145MOL    C2549273   3.023   6.398   2.920  0.2523 -0.5307 -0.4105
  145MOL    C2649274   3.125   6.387   2.817 -0.4712 -0.0235 -0.9796
  145MOL    O2749275   3.163   6.315   2.457  0.1960 -0.2626 -0.3291
  145MOL    H2849276   3.274   6.131   2.681  0.5397 -1.6398 -0.2635
  145MOL    H2949277   3.321   6.122   2.511 -0.7890 -0.5803 -1.6642
  145MOL    H3049278   3.280   6.389   2.603  0.2264  0.3210  0.0649
  145MOL    H3149279   2.935   6.251   2.563 -1.0228 -2.0460  0.7336
  145MOL    H3249280   2.770   6.247   2.736  0.6814  0.9739 -2.0840
  145MOL    H3349281   2.813   6.360   2.964 -0.4725 -1.9297 -0.2669
  145MOL    H3449282   3.045   6.443   3.015  0.2312 -1.6650  0.1337
  145MOL    H3549283   3.230   6.410   2.831 -0.8084 -0.1582  1.9637
  145MOL    C3649284   3.267   6.381   2.372  0.4787 -0.6996  0.4025
  145MOL    C3749285   3.238   6.375   2.218  0.0008  0.6726 -0.4342
  145MOL    C3849286   3.270   6.237   2.153  0.7155  0.3501 -0.7811
  145MOL    C3949287   3.173   6.139   2.150 -0.3826 -0.1809  0.0117
  145MOL    C4049288   3.193   6.011   2.086  0.1275 -0.1316 -0.0729
  145MOL    C4149289   3.310   5.976   2.022  0.3360  0.2614  0.2396
  145MOL    C4249290   3.412   6.073   2.030  0.2329 -0.7784  0.1406
  145MOL    C4349291   3.387   6.204   2.089  0.2644 -0.2346 -0.1654
  145MOL    O4449292   3.330   6.482   2.182  0.3032 -0.0692 -0.1451
  145MOL    H4549293   3.259   6.485   2.404  0.7336 -1.1866  2.0557
  145MOL    H4649294   3.369   6.352   2.394  0.2863 -0.6412  1.3976
  145MOL    H4749295   3.130   6.383   2.211 -0.3146 -2.9480 -0.3022
  145MOL    H4849296   3.074   6.166   2.185 -0.3502  2.5760 -1.8472
  145MOL    H4949297   3.102   5.952   2.082 -0.6896  1.1206 -0.1618
  145MOL    H5049298   3.320   5.878   1.978 -3.1201  0.5331 -1.3610
  145MOL    H5149299   3.508   6.045   1.988 -0.0147 -1.8309  0.2640
  145MOL    H5249300   3.466   6.278   2.083  0.8226 -0.8662 -0.7064
  145MOL    C5349301   3.315   6.541   2.060  1.0508  0.7545  0.3984
  145MOL    C5449302   3.408   6.657   2.040 -1.1163 -0.3732 -0.8053
  145MOL    C5549303   3.557   6.615   2.040  0.0664  0.1841 -0.1938
  145MOL    C5649304   3.652   6.676   2.131  0.2816 -0.0548  0.9982
  145MOL    C5749305   3.786   6.639   2.123  0.0860  0.4901  0.2922
  145MOL    C5849306   3.827   6.542   2.030  0.0564 -0.3314 -0.2239
  145MOL    C5949307   3.737   6.480   1.942 -0.2602 -0.7827 -0.5206
  145MOL    C6049308   3.602   6.516   1.949  0.1261 -0.1658 -0.2771
  145MOL    O6149309   3.368   6.710   1.917  0.7133 -0.3522  0.0824
  145MOL    H6249310   3.310   6.465   1.983 -0.3891 -0.7617  1.9363
  145MOL    H6349311   3.213   6.579   2.056  1.8453  2.9715  0.7584
  145MOL    H6449312   3.393   6.736   2.113  1.6663 -1.1263  0.6462
  145MOL    H6549313   3.622   6.757   2.196 -2.5263  0.8472 -1.3188
  145MOL    H6649314   3.867   6.690   2.174  0.7030 -0.3206  0.1312
  145MOL    H6749315   3.931   6.511   2.027 -0.0348 -0.5808 -0.9805
  145MOL    H6849316   3.759   6.403   1.870 -2.9769 -0.7227 -1.4603
  145MOL    H6949317   3.533   6.460   1.887  0.8453  0.5448 -1.7293
  145MOL    C7049318   3.427   6.835   1.898  0.0583  0.0312 -0.2997
  145MOL    C7149319   3.363   6.924   1.786 -0.3426  0.3073 -0.3823
  145MOL    C7249320   3.451   7.050   1.767 -0.2764 -0.1262  0.4979
  145MOL    C7349321   3.417   7.182   1.818  0.5639 -0.5849 -0.1603
  145MOL    C7449322   3.501   7.295   1.796  0.1075  0.5296 -0.3362
  145MOL    C7549323   3.620   7.275   1.732 -0.6878  0.1730  0.7866
  145MOL    C7649324   3.659   7.149   1.679 -0.2596 -0.2274 -0.8837
  145MOL    C7749325   3.575   7.042   1.701 -0.2561  0.1789 -0.5024
  145MOL    O7849326   3.237   6.963   1.840 -0.3633 -0.0851 -0.4648
  145MOL    H7949327   3.416   6.902   1.984 -0.1065 -2.6234  1.7954
  145MOL    H8049328   3.532   6.820   1.873  0.2954 -0.7145  1.0870
  145MOL    H8149329   3.366   6.865   1.694 -0.7744 -0.1199 -0.1212
  145MOL    H8249330   3.332   7.189   1.884  0.2188 -0.4296 -0.6148
  145MOL    H8349331   3.486   7.397   1.830 -1.8703  0.5300 -1.0930
  145MOL    H8449332   3.688   7.359   1.731  1.0493 -1.2079 -1.4296
  145MOL    H8549333   3.750   7.128   1.624 -0.3628  1.5166 -1.7456
  145MOL    H8649334   3.599   6.950   1.649  1.0501  1.0286 -1.4380
  145MOL    C8749335   3.141   7.009   1.742 -0.5339 -0.5667 -0.8268
  145MOL    C8849336   3.060   6.901   1.671  0.6206  0.3179 -0.5791
  145MOL    C8949337   2.985   6.804   1.757 -0.6529  0.0651  0.1583
  145MOL    C9049338   3.046   6.682   1.790  0.0012  0.1949  0.8945
  145MOL    C9149339   2.980   6.586   1.874  0.6244  0.1774  0.4800
  145MOL    C9249340   2.858   6.623   1.934  0.1132  0.4356 -0.3100
  145MOL    C9349341   2.789   6.740   1.890 -0.6155 -0.6639  0.3974
  145MOL    C9449342   2.853   6.829   1.802  0.1264  0.1742 -0.2570
  145MOL    O9549343   3.137   6.827   1.573 -0.0164 -0.3191 -0.0794
  145MOL    H9649344   3.196   7.058   1.662  0.6253 -1.0921 -0.3717
  145MOL    H9749345   3.076   7.084   1.786 -0.1401 -0.9497  0.4103
  145MOL    H9849346   2.993   6.964   1.614 -0.9405 -0.2741  0.5551
  145MOL    H9949347   3.145   6.657   1.755 -0.8911 -1.7413 -0.3325
  145MOL   H10049348   3.040   6.500   1.898 -0.3942 -0.6808 -0.0017
  145MOL   H10149349   2.817   6.564   2.014 -0.5764  1.8881  0.4157
  145MOL   H10249350   2.694   6.777   1.926 -0.2326  1.4665 -0.7061
  145MOL   H10349351   2.810   6.923   1.772  1.5476  0.3760 -1.7542
  145MOL   C10449352   3.073   6.789   1.458  0.9728  0.3230  0.3796
  145MOL   C10549353   3.084   6.909   1.358  0.1391 -0.1777 -0.2635
  145MOL   C10649354   3.218   6.907   1.292 -0.2646  0.2050  0.9166
  145MOL   C10749355   3.330   6.942   1.367 -0.1382 -0.1288  0.6940
  145MOL   C10849356   3.461   6.955   1.313  0.2512  0.1218 -0.2613
  145MOL   C10949357   3.481   6.922   1.176  0.2642 -0.1500  0.4329
  145MOL   C11049358   3.371   6.867   1.101 -0.5704  0.1773 -0.1488
  145MOL   C11149359   3.235   6.863   1.153 -0.3917  0.3165 -0.2935
  145MOL   O11249360   2.972   6.904   1.262 -0.3810 -0.1530  0.2331
  145MOL   H11349361   3.113   6.698   1.413  1.0324  0.9007 -0.7371
  145MOL   H11449362   2.971   6.764   1.487  0.8466  0.2920 -0.0864
  145MOL   H11549363   3.074   7.006   1.407  0.3126 -1.2072  1.8407
  145MOL   H11649364   3.313   6.972   1.469 -2.3417  0.0628  0.3050
  145MOL   H11749365   3.530   7.002   1.381 -1.0502  2.3908 -0.4530
  145MOL   H11849366   3.582   6.920   1.138 -0.2687 -2.7346 -0.9348
  145MOL   H11949367   3.390   6.829   1.002 -0.8828 -0.9418  0.2155
  145MOL   H12049368   3.151   6.830   1.092  0.3021 -0.8022 -0.6628
  145MOL   C12149369   2.840   6.935   1.312 -0.8753 -0.8457  0.8479
  145MOL   C12249370   2.743   6.827   1.256 -0.1402 -0.0370 -0.4308
  145MOL   C12349371   2.777   6.686   1.310  0.4469  0.0400  0.2289
  145MOL   C12449372   2.729   6.649   1.436 -0.3128 -0.1052 -0.1728
  145MOL   C12549373   2.760   6.522   1.487 -0.3156 -0.0530 -0.5238
  145MOL   C12649374   2.848   6.439   1.414  0.6326 -0.0579 -0.3778
  145MOL   C12749375   2.908   6.479   1.295  0.6860 -0.4768 -0.3398
  145MOL   C12849376   2.869   6.605   1.243  0.5260  0.0168  0.5764
  145MOL   O12949377   2.615   6.867   1.276  0.0851  0.2762  0.0647
  145MOL   H13049378   2.817   7.034   1.272  0.1186 -1.0166 -0.1807
  145MOL   H13149379   2.838   6.946   1.420 -0.1687 -0.9716  0.8760
  145MOL   H13249380   2.757   6.820   1.148 -1.8790  1.5789 -0.7862
  145MOL   H13349381   2.657   6.708   1.492 -2.8415 -1.3371 -2.0063
  145MOL   H13449382   2.731   6.493   1.587 -1.7399  2.2545 -0.2062
  145MOL   H13549383   2.894   6.362   1.474 -1.0599  1.1553  2.5877
  145MOL   H13649384   2.977   6.409   1.249 -0.4516 -1.2680 -0.8560
  145MOL   H13749385   2.895   6.629   1.141 -2.4399 -3.3138 -1.1011
  145MOL   C13849386   2.509   6.778   1.230 -0.5119 -0.9475 -0.0412
  145MOL   C13949387   2.374   6.824   1.297 -0.1195  0.4220 -0.2539
  145MOL   C14049388   2.383   6.827   1.450  0.1322  0.4361  0.3305
  145MOL   C14149389   2.362   6.707   1.521  0.3713 -0.6174  0.2280
  145MOL   C14249390   2.363   6.705   1.662  0.6599 -0.5137  1.0212
  145MOL   C14349391   2.380   6.821   1.739  0.7074 -0.1740  0.2364
  145MOL   C14449392   2.403   6.943   1.669  0.4658  0.1137 -0.0859
  145MOL   C14549393   2.408   6.946   1.529 -0.1582  0.4302  0.6860
  145MOL   O14649394   2.338   6.948   1.248  0.9018 -0.0315  0.1348
  145MOL   H14749395   2.539   6.682   1.272  1.1618 -0.1054  0.7259
  145MOL   H14849396   2.496   6.767   1.122 -0.7428  1.6633 -0.3020
  145MOL   H14949397   2.304   6.746   1.268 -1.5925  0.9578  1.7483
  145MOL   H15049398   2.351   6.617   1.463  0.6124 -1.4049  1.3709
  145MOL   H15149399   2.354   6.609   1.711 -1.7250  0.4284  2.5126
  145MOL   H15249400   2.384   6.820   1.847  1.7377  2.7802  0.2551
  145MOL   H15349401   2.420   7.038   1.717  1.5242  0.0684 -0.3695
  145MOL   H15449402   2.431   7.040   1.480 -1.0073  0.2538 -0.0733
  145MOL   C15549403   2.201   6.988   1.255  0.2161 -0.4468 -0.1264
  145MOL   C15649404   2.172   7.099   1.150  0.5900 -0.3273  0.0682
  145MOL   C15749405   2.026   7.123   1.144 -0.2548  0.0657 -0.2201
  145MOL   C15849406   1.945   7.079   1.034  0.8122  0.6853  0.6429
  145MOL   C15949407   1.807   7.091   1.045  0.4486  0.0090 -0.2452
  145MOL   C16049408   1.741   7.149   1.151 -0.0317 -0.0429  0.1947
  145MOL   C16149409   1.820   7.204   1.250 -0.0080  0.4143 -0.5303
  145MOL   C16249410   1.960   7.185   1.254 -0.0270 -0.5536  0.3042
  145MOL   O16349411   2.236   7.215   1.200  0.2972 -0.0783 -0.1270
  145MOL   H16449412   2.191   7.022   1.358 -0.9035  0.4050 -0.5024
  145MOL   H16549413   2.135   6.903   1.237 -0.3868 -0.3449  1.5506
  145MOL   H16649414   2.216   7.067   1.056 -2.2122 -2.3336 -0.6115
  145MOL   H16749415   1.992   7.032   0.949 -2.3532 -3.9486  1.2763
  145MOL   H16849416   1.743   7.066   0.962  0.4148  1.0766 -0.5508
  145MOL   H16949417   1.633   7.154   1.146 -0.0939  0.0765  1.3446
  145MOL   H17049418   1.774   7.263   1.328  0.3193  1.4095 -1.0747
  145MOL   H17149419   2.024   7.231   1.329 -0.1263 -1.2679  0.8287
  145MOL   C17249420   2.254   7.337   1.127  0.6947  0.4738  0.5076
  145MOL   C17349421   2.388   7.407   1.158 -0.5132 -0.0397 -0.1942
  145MOL   C17449422   2.387   7.555   1.115 -0.2251  0.0128 -0.0434
  145MOL   C17549423   2.446   7.596   0.991  0.0365 -0.1021 -0.5727
  145MOL   C17649424   2.441   7.728   0.951  0.0802  0.8456 -0.5443
  145MOL   C17749425   2.381   7.824   1.041 -0.2755 -0.4210 -0.2183
  145MOL   C17849426   2.321   7.783   1.157 -0.3805 -0.2753  0.0600
  145MOL   C17949427   2.317   7.646   1.191 -0.2848 -0.1246 -0.7812
  145MOL   O18049428   2.490   7.336   1.092 -0.3603  0.1311 -0.4689
  145MOL   H18149429   2.246   7.320   1.019 -1.9078  0.2544  0.6845
  145MOL   H18249430   2.168   7.401   1.144 -2.1329 -1.8607 -3.8470
  145MOL   H18349431   2.404   7.397   1.266  3.2098  0.1449 -0.6630
  145MOL   H18449432   2.485   7.529   0.916 -2.2050 -1.7467 -0.3241
  145MOL   H18549433   2.479   7.762   0.855 -0.6680 -3.2120 -2.3610
  145MOL   H18649434   2.383   7.930   1.017  0.1068 -0.1403  1.0508
  145MOL   H18749435   2.278   7.863   1.215 -2.8222 -2.8481  1.9282
  145MOL   H18849436   2.264   7.622   1.282 -1.7664  2.0959 -1.0092
  145MOL   C18949437   2.622   7.378   1.136  0.2247 -0.0107  0.2611
  145MOL   C19049438   2.737   7.312   1.054 -0.0567 -0.1073  0.2755
  145MOL   C19149439   2.882   7.342   1.101  0.0084  0.0495 -0.4956
  145MOL   C19249440   2.977   7.234   1.101  0.1345 -0.0222 -0.5899
  145MOL   C19349441   3.113   7.256   1.132  0.6671 -0.1627  0.3853
  145MOL   C19449442   3.149   7.391   1.166 -0.0583  0.1737  0.1070
  145MOL   C19549443   3.050   7.495   1.178 -0.5499 -0.0236  1.0186
  145MOL   C19649444   2.923   7.472   1.141 -0.0666 -0.1772  0.4643
  145MOL   O19749445   2.723   7.361   0.926 -0.0418  0.3314  0.2443
  145MOL   H19849446   2.630   7.486   1.120 -0.2690  0.3258  2.2048
  145MOL   H19949447   2.621   7.364   1.244 -1.3640 -1.0383  0.1239
  145MOL   H20049448   2.723   7.204   1.056  2.9304 -0.5349  2.3449
  145MOL   H20149449   2.939   7.134   1.084  1.3939 -0.8448  1.3213
  145MOL   H20249450   3.191   7.184   1.111  1.9963  1.1129  0.8239
  145MOL   H20349451   3.251   7.419   1.189 -0.2674  0.0479  1.1897
  145MOL   H20449452   3.075   7.595   1.208 -0.4542 -0.7914  3.5911
  145MOL   H20549453   2.852   7.552   1.158 -0.3873 -0.5781  1.0310
  145MOL   C20649454   2.729   7.256   0.832  0.0795 -1.0229 -0.6033
  145MOL   C20749455   2.761   7.312   0.690  0.1409  0.9366  0.8904
  145MOL   C20849456   2.706   7.214   0.585 -0.6487 -0.1695  0.1109
  145MOL   C20949457   2.584   7.240   0.515  0.2249 -0.9433 -0.7283
  145MOL   C21049458   2.543   7.159   0.410 -0.3582 -0.2193 -0.5231
  145MOL   C21149459   2.613   7.047   0.371  0.9876  0.0359 -0.4113
  145MOL   C21249460   2.729   7.013   0.444 -0.6547  0.0806 -0.3650
  145MOL   C21349461   2.777   7.100   0.542 -1.2772  0.1472 -0.1854
  145MOL   O21449462   2.905   7.318   0.669 -0.1804  0.0782  0.3839
  145MOL   H21549463   2.814   7.192   0.856  1.0707  0.0208 -1.2472
  145MOL   H21649464   2.645   7.187   0.834  1.3391 -2.5824 -0.8906
  145MOL   H21749465   2.710   7.405   0.667 -1.2982 -0.0259  0.1559
  145MOL   H21849466   2.520   7.317   0.555 -0.6704 -2.4751  0.8640
  145MOL   H21949467   2.449   7.190   0.369 -0.9544  2.3661  2.6183
  145MOL   H22049468   2.570   6.983   0.295 -0.8213  0.0278  0.5919
  145MOL   H22149469   2.779   6.919   0.422  0.5665  0.9214 -1.2430
  145MOL   H22249470   2.872   7.065   0.580 -1.1028 -1.5342 -2.0616
  145MOL   C22349471   2.961   7.424   0.736 -0.2144  0.2168  0.6805
  145MOL   C22449472   3.088   7.467   0.662 -0.2350  0.3374 -0.3058
  145MOL   C22549473   3.191   7.359   0.640  0.2224 -0.1677 -0.5641
  145MOL   C22649474   3.194   7.233   0.712 -0.4387  0.1968 -0.1968
  145MOL   C22749475   3.301   7.144   0.695  0.1897  0.3485  0.4615
  145MOL   C22849476   3.395   7.173   0.597 -0.1433  0.5030  0.8481
  145MOL   C22949477   3.389   7.291   0.515 -0.4514 -0.2296  0.4788
  145MOL   C23049478   3.286   7.383   0.540  0.2509 -0.4532 -0.6306
  145MOL   O23149479   3.058   7.527   0.535 -0.2004 -0.6980 -0.1486
  145MOL   H23249480   2.904   7.516   0.743 -0.9120 -0.2632  1.4100
  145MOL   H23349481   2.985   7.386   0.835  0.4095 -1.7426 -0.1886
  145MOL   H23449482   3.136   7.539   0.729  0.1809 -1.3056  1.1952
  145MOL   H23549483   3.127   7.200   0.790 -0.7586  1.0692 -0.1045
  145MOL   H23649484   3.322   7.057   0.757  0.8237 -0.1427 -0.4272
  145MOL   H23749485   3.475   7.100   0.591 -0.7981 -0.2115  0.7286
  145MOL   H23849486   3.456   7.312   0.434  0.0041  1.8415  1.3651
  145MOL   H23949487   3.278   7.467   0.472  0.0421 -1.2405 -1.5929
  145MOL   C24049488   3.021   7.664   0.538 -0.3675 -0.0293 -0.4016
  145MOL   C24149489   2.972   7.705   0.395 -0.7752 -0.6902 -0.5345
  145MOL   C24249490   3.070   7.703   0.276 -0.9374  0.4034  0.7526
  145MOL   C24349491   3.177   7.799   0.275 -0.1849  0.2181 -0.3241
  145MOL   C24449492   3.276   7.796   0.181  0.4581 -0.1324  0.1718
  145MOL   C24549493   3.261   7.699   0.077 -0.2655 -0.2006 -0.5202
  145MOL   C24649494   3.150   7.609   0.071 -0.1064  0.0258 -0.8641
  145MOL   C24749495   3.053   7.617   0.170  0.0731 -0.1218 -0.2203
  145MOL   O24849496   2.862   7.615   0.383 -0.7226 -0.0159  0.1918
  145MOL   H24949497   2.936   7.695   0.599  0.1636  1.5268 -0.4116
  145MOL   H25049498   3.112   7.720   0.565  0.0208  0.5639 -2.8401
  145MOL   H25149499   2.938   7.809   0.403 -1.1939 -0.8183 -0.6488
  145MOL   H25249500   3.188   7.867   0.359  0.4028 -0.3102  0.0284
  145MOL   H25349501   3.364   7.857   0.192  0.3728  0.1926 -0.9161
  145MOL   H25449502   3.335   7.694   8.079 -1.1485 -3.0286 -1.2283
  145MOL   H25549503   3.144   7.532   8.076  3.5724 -0.1598 -1.0803
  145MOL   H25649504   2.972   7.547   0.166  0.9566 -1.1364 -0.6268
  145MOL   C25749505   2.752   7.664   0.315 -0.6275 -0.2108 -0.6334
  145MOL   C25849506   2.648   7.554   0.280 -0.6347 -0.0790  0.2179
  145MOL   C25949507   2.688   7.482   0.156  0.1511 -0.1270  0.0182
  145MOL   C26049508   2.747   7.352   0.175  0.3842 -0.5328  0.3946
  145MOL   C26149509   2.796   7.287   0.056  0.0431 -0.4836 -0.8516
  145MOL   C26249510   2.789   7.359   8.015  0.1370 -0.4184  0.6918
  145MOL   C26349511   2.751   7.494   8.000 -0.0198 -0.0240  1.0309
  145MOL   C26449512   2.695   7.555   0.035  0.5986 -0.6320  0.8448
  145MOL   O26549513   2.517   7.613   0.291  0.3543 -0.2629  0.4974
  145MOL   H26649514   2.797   7.711   0.228  0.8693 -0.4121  0.0247
  145MOL   H26749515   2.704   7.742   0.373  1.8195 -0.9113  2.4596
  145MOL   H26849516   2.646   7.486   0.365  1.9624 -0.3707  0.0732
  145MOL   H26949517   2.761   7.306   0.272 -0.6120 -0.5167  0.5505
  145MOL   H27049518   2.842   7.189   0.054  0.0195 -0.5644  1.4520
  145MOL   H27149519   2.830   7.301   7.933 -1.2834  0.5363 -0.7230
  145MOL   H27249520   2.761   7.542   7.904  0.9698  0.4847  1.3771
  145MOL   H27349521   2.657   7.656   0.035 -0.2643 -0.9519  1.3506
  145MOL   C27449522   2.407   7.525   0.310  0.0716  0.4919  0.3175
  145MOL   C27549523   2.290   7.615   0.361 -0.3376  0.4820 -0.0087
  145MOL   C27649524   2.227   7.704   0.255  0.4726 -0.4394  0.3620
  145MOL   C27749525   2.097   7.671   0.204 -0.1252  0.4723  0.2131
  145MOL   C27849526   2.032   7.751   0.101  0.8520 -0.1370 -0.2340
  145MOL   C27949527   2.092   7.874   0.066  0.0412  0.4238 -0.0490
  145MOL   C28049528   2.219   7.914   0.119  0.9338  0.0759 -0.0213
  145MOL   C28149529   2.292   7.824   0.204  0.1596  0.3670 -0.1192
  145MOL   O28249530   2.313   7.697   0.476  0.6166  0.0723  0.2897
  145MOL   H28349531   2.386   7.486   0.210 -0.2886  2.1320 -0.2575
  145MOL   H28449532   2.427   7.450   0.386  0.2768  1.6325  1.4129
  145MOL   H28549533   2.211   7.545   0.386 -1.2884  1.9577  1.2139
  145MOL   H28649534   2.058   7.581   0.248  0.0878  1.8678  3.4300
  145MOL   H28749535   1.935   7.732   0.057  0.4514  3.5126 -1.1512
  145MOL   H28849536   2.036   7.936   8.078 -3.6835  0.2126  2.7323
  145MOL   H28949537   2.260   8.011   0.096 -0.7569  1.6281  3.2331
  145MOL   H29049538   2.385   7.855   0.250  0.7279 -0.6237 -0.5735
  145MOL   C29149539   2.342   7.639   0.598  0.2532 -0.0269  0.3689
  145MOL   C29249540   2.214   7.612   0.682 -1.0148 -0.2042  0.2605
  145MOL   C29349541   2.126   7.738   0.688  0.0675  1.1742  0.4767
  145MOL   C29449542   2.130   7.823   0.804 -0.4246 -0.2184  0.2888
  145MOL   C29549543   2.040   7.928   0.824 -0.3805  1.2433 -0.7348
  145MOL   C29649544   1.943   7.960   0.728  0.5191 -0.6574 -0.2592
  145MOL   C29749545   1.940   7.880   0.610 -0.0039  0.8352  0.1766
  145MOL   C29849546   2.035   7.773   0.586  1.1566  0.3297  0.5337
  145MOL   O29949547   2.152   7.501   0.623 -0.7949 -0.3897  0.1940
  145MOL   H30049548   2.396   7.718   0.650  2.0327 -0.6032 -0.5880
  145MOL   H30149549   2.404   7.553   0.574 -0.6988 -0.7280  0.3755
  145MOL   H30249550   2.251   7.575   0.778 -0.5237 -1.1207 -0.2685
  145MOL   H30349551   2.193   7.802   0.890  0.3056  0.5795 -0.0422
  145MOL   H30449552   2.036   7.980   0.919  3.7950  2.7290 -1.2416
  145MOL   H30549553   1.879   8.047   0.733 -1.3880 -2.1388  3.0659
  145MOL   H30649554   1.867   7.897   0.533 -0.7644  0.1590  0.7392
  145MOL   H30749555   2.032   7.714   0.495 -0.7599  0.2331  0.6533
  145MOL   C30849556   2.020   7.467   0.673  0.1214  0.3510  0.3096
  145MOL   C30949557   1.968   7.337   0.608 -0.3217 -0.7850 -0.3579
  145MOL   C31049558   2.069   7.230   0.621  0.1226 -0.5908 -0.1866
  145MOL   C31149559   2.123   7.193   0.745  0.1050 -0.1495 -0.4994
  145MOL   C31249560   2.226   7.098   0.747  0.3086 -0.8672  0.1933
  145MOL   C31349561   2.272   7.035   0.630  0.3431 -0.5858 -0.4391
  145MOL   C31449562   2.219   7.070   0.507 -0.1018 -1.2211  0.0110
  145MOL   C31549563   2.122   7.176   0.502 -0.2586 -0.1322 -0.7381
  145MOL   O31649564   1.846   7.307   0.675 -0.1452 -0.1579  0.1432
  145MOL   H31749565   1.945   7.540   0.642  1.1480  0.4937 -1.9385
  145MOL   H31849566   2.035   7.451   0.780  0.7586  1.5001  0.4000
  145MOL   H31949567   1.952   7.353   0.502 -2.1107  0.0161  0.0214
  145MOL   H32049568   2.094   7.253   0.830 -0.3763  0.0791 -0.8214
  145MOL   H32149569   2.283   7.078   0.837  0.0937 -3.2031 -0.1560
  145MOL   H32249570   2.357   6.969   0.631 -0.3697 -1.5090  0.5745
  145MOL   H32349571   2.264   7.040   0.413 -0.8749 -0.4789 -0.6161
  145MOL   H32449572   2.078   7.196   0.406 -2.8843 -1.2929  0.1893
  145MOL   C32549573   1.774   7.208   0.607  0.2028 -0.3756  0.1610
  145MOL   C32649574   1.624   7.232   0.624 -0.4174  0.1613  0.3641
  145MOL   C32749575   1.531   7.143   0.544 -0.0087 -0.8165  0.0316
  145MOL   C32849576   1.493   7.014   0.589  0.2249 -0.1880  1.1591
  145MOL   C32949577   1.396   6.936   0.527 -0.1016  0.2438  0.0297
  145MOL   C33049578   1.327   6.988   0.414 -0.1920  0.1087  0.2576
  145MOL   C33149579   1.365   7.118   0.370  0.5010  0.5039 -0.2083
  145MOL   C33249580   1.456   7.198   0.440  0.0401 -0.5869  0.3974
  145MOL   O33349581   1.604   7.229   0.763  0.4428  0.8593  0.5900
  145MOL   H33449582   1.804   7.111   0.646  2.5281  1.3221  2.7897
  145MOL   H33549583   1.794   7.196   0.500 -0.0991  1.1705 -0.0851
  145MOL   H33649584   1.605   7.339   0.610 -1.0714  0.2892  2.0488
  145MOL   H33749585   1.549   6.964   0.667  0.4689 -1.3610  0.2347
  145MOL   H33849586   1.367   6.836   0.555  1.1944 -0.9764 -2.7415
  145MOL   H33949587   1.242   6.939   0.369  0.4618  0.1795 -1.0616
  145MOL   H34049588   1.297   7.162   0.298 -1.2401 -2.0725 -0.2213
  145MOL   H34149589   1.472   7.297   0.401  0.3218 -0.6964  0.2304
  145MOL   H34249590   1.693   7.240   0.794  1.0509 -1.4696 -0.1927
  146MOL     C149591   2.234   6.646   7.576 -0.4021  0.2059  0.0300
  146MOL     C249592   2.377   6.611   7.631 -0.4279 -0.0919  0.1905
  146MOL     C349593   2.360   6.561   7.772  0.1697 -0.1001  0.4816
  146MOL     C449594   2.338   6.423   7.789  0.2169  0.4205  0.1234
  146MOL     C549595   2.335   6.367   7.917  0.1358 -0.6900  0.4902
  146MOL     C649596   2.342   6.453   8.027  0.4959 -0.0049 -0.2420
  146MOL     C749597   2.361   6.593   8.016  0.2794 -0.2654 -0.0818
  146MOL     C849598   2.359   6.646   7.885  0.1338 -0.3461 -0.1742
  146MOL     O949599   2.454   6.727   7.630 -0.1627 -0.0620 -0.3029
  146MOL    H1049600   2.243   6.677   7.472  0.9433 -1.3497 -0.3317
  146MOL    H1149601   2.168   6.559   7.572 -3.2851  2.3015  0.6624
  146MOL    H1249602   2.429   6.541   7.566 -1.1350  0.0343 -0.5123
  146MOL    H1349603   2.320   6.362   7.702 -2.0311  0.8440  0.2700
  146MOL    H1449604   2.322   6.261   7.929 -1.1420 -0.6079 -0.0573
  146MOL    H1549605   2.355   6.399   0.040  0.3709 -0.0868 -0.2707
  146MOL    H1649606   2.388   6.644   0.027 -1.5372 -0.8684  0.8200
  146MOL    H1749607   2.386   6.750   7.875  1.3569 -0.8511 -2.3598
  146MOL    H1849608   2.186   6.723   7.637 -0.4115 -0.0075  0.2929
  146MOL    C1949609   2.566   6.742   7.542 -0.5316 -0.2031  0.3504
  146MOL    C2049610   2.677   6.642   7.583 -0.5051  0.4092  0.5609
  146MOL    C2149611   2.815   6.695   7.542  0.1366  0.7383  0.2456
  146MOL    C2249612   2.908   6.722   7.640 -0.3170 -0.2450  0.2937
  146MOL    C2349613   3.036   6.772   7.607  0.1048  0.6257 -0.2700
  146MOL    C2449614   3.067   6.797   7.475  0.3475  0.4655  0.8166
  146MOL    C2549615   2.980   6.752   7.373 -0.3247  0.1364 -0.0818
  146MOL    C2649616   2.847   6.718   7.408 -0.2583 -0.9779  0.3488
  146MOL    O2749617   2.641   6.520   7.517  0.3177 -0.4988  0.3054
  146MOL    H2849618   2.548   6.718   7.438  0.7043  1.6390 -0.3106
  146MOL    H2949619   2.591   6.848   7.538  1.9934 -0.6078  2.9924
  146MOL    H3049620   2.659   6.644   7.690  0.3804  1.6055  0.6955
  146MOL    H3149621   2.878   6.707   7.743 -1.4908  1.8472  0.2883
  146MOL    H3249622   3.102   6.793   7.690 -0.8323  2.6763 -0.0166
  146MOL    H3349623   3.167   6.833   7.457  1.9881 -3.8841  0.6005
  146MOL    H3449624   3.003   6.766   7.268 -1.0700 -2.7537 -0.6835
  146MOL    H3549625   2.763   6.688   7.348 -0.0430  0.3113 -0.6162
  146MOL    C3649626   2.701   6.412   7.587 -0.0572 -0.7567  0.1435
  146MOL    C3749627   2.685   6.277   7.510  0.6757 -0.2828 -0.0412
  146MOL    C3849628   2.564   6.194   7.549 -0.1976 -0.2285 -0.1841
  146MOL    C3949629   2.433   6.230   7.512 -0.4097  0.0673 -0.8731
  146MOL    C4049630   2.321   6.159   7.550 -0.0780 -0.1717 -0.6365
  146MOL    C4149631   2.343   6.041   7.624  0.5951  0.3212  0.3070
  146MOL    C4249632   2.471   5.997   7.660 -0.5087  0.4011  0.0448
  146MOL    C4349633   2.580   6.078   7.633  0.4185  0.0347  0.2502
  146MOL    O4449634   2.807   6.208   7.511 -0.0641 -0.7883 -0.1973
  146MOL    H4549635   2.809   6.430   7.592  0.3835 -3.0225 -0.4116
  146MOL    H4649636   2.657   6.406   7.686 -0.1245  1.1773  0.2389
  146MOL    H4749637   2.665   6.299   7.405  0.5423 -0.0985  0.0226
  146MOL    H4849638   2.414   6.317   7.450 -1.8235  1.4393  1.4051
  146MOL    H4949639   2.222   6.182   7.512  0.3364  0.4606 -1.3381
  146MOL    H5049640   2.261   5.971   7.637 -0.3522  0.7616 -2.7358
  146MOL    H5149641   2.479   5.908   7.720 -2.1558 -2.0357 -3.1739
  146MOL    H5249642   2.675   6.049   7.676  0.4863 -0.6799 -0.3672
  146MOL    C5349643   2.880   6.213   7.392  0.2754 -0.5450 -0.1142
  146MOL    C5449644   2.998   6.117   7.397  0.1949 -0.1520 -0.3714
  146MOL    C5549645   2.957   5.981   7.459 -0.1863  0.2793 -0.0229
  146MOL    C5649646   3.009   5.943   7.586 -0.4937 -0.4272  0.0411
  146MOL    C5749647   2.957   5.831   7.650  0.0718  0.0348 -0.4127
  146MOL    C5849648   2.872   5.744   7.572 -0.2095  1.0753  0.0829
  146MOL    C5949649   2.825   5.788   7.441  0.1121 -0.3364 -0.2218
  146MOL    C6049650   2.866   5.908   7.384  0.2679  0.5217 -0.9359
  146MOL    O6149651   3.043   6.114   7.263 -0.4445  0.1705  0.2413
  146MOL    H6249652   2.824   6.173   7.307  0.6131  0.3880 -0.7834
  146MOL    H6349653   2.905   6.315   7.365  0.3001 -0.7205 -0.7623
  146MOL    H6449654   3.073   6.166   7.460 -1.2967  1.2175  0.3888
  146MOL    H6549655   3.078   5.999   7.648 -1.6389 -1.3974  2.2522
  146MOL    H6649656   2.988   5.795   7.747  0.6612 -1.8184 -1.2785
  146MOL    H6749657   2.852   5.643   7.606  0.2711  0.9387 -0.0292
  146MOL    H6849658   2.756   5.725   7.387  0.8916 -1.6824  0.3158
  146MOL    H6949659   2.836   5.945   7.287  0.9826 -0.5030 -1.5535
  146MOL    C7049660   3.156   6.026   7.242  0.7195 -0.5923  0.0998
  146MOL    C7149661   3.254   6.099   7.151  0.1613  0.3248  0.1244
  146MOL    C7249662   3.338   6.000   7.070  0.3547 -0.0376  0.1778
  146MOL    C7349663   3.468   5.955   7.109 -0.1496 -0.0094  0.5695
  146MOL    C7449664   3.546   5.860   7.039  0.1142  0.6997 -0.8527
  146MOL    C7549665   3.493   5.818   6.914 -0.5141  0.5179 -0.2583
  146MOL    C7649666   3.371   5.862   6.872  0.2171  0.5319  0.2842
  146MOL    C7749667   3.287   5.944   6.951 -0.3837 -0.0567  1.2085
  146MOL    O7849668   3.344   6.179   7.231  0.1422  0.1273  0.4144
  146MOL    H7949669   3.208   6.013   7.337  0.4313  0.1659  0.3683
  146MOL    H8049670   3.122   5.932   7.199 -2.8305  0.5503  0.2333
  146MOL    H8149671   3.187   6.145   7.078  0.9241 -1.2411 -1.6066
  146MOL    H8249672   3.513   5.992   7.200  1.1350  0.1615 -0.1224
  146MOL    H8349673   3.639   5.828   7.085 -2.1058 -2.2028  1.8332
  146MOL    H8449674   3.550   5.750   6.852 -1.3197  0.4335 -0.9030
  146MOL    H8549675   3.321   5.837   6.780 -2.9070  2.3287  1.4180
  146MOL    H8649676   3.190   5.969   6.911  1.0132  1.3040 -1.4859
  146MOL    C8749677   3.401   6.283   7.164  0.3094 -0.1215 -0.0760
  146MOL    C8849678   3.322   6.413   7.198 -0.4866  0.0246 -1.0514
  146MOL    C8949679   3.311   6.460   7.350 -0.3123 -0.1499  0.0715
  146MOL    C9049680   3.430   6.500   7.413  0.6767  0.5555 -0.5771
  146MOL    C9149681   3.423   6.543   7.547  0.7111 -0.3259  0.4537
  146MOL    C9249682   3.305   6.543   7.621  0.1303  0.4717 -0.2210
  146MOL    C9349683   3.188   6.502   7.551 -0.0227 -0.7371 -0.9227
  146MOL    C9449684   3.185   6.456   7.417 -0.2554  0.0595  0.7351
  146MOL    O9549685   3.197   6.418   7.129  0.8869  0.1583  0.2403
  146MOL    H9649686   3.407   6.259   7.058 -0.9145  0.2629 -0.2464
  146MOL    H9749687   3.504   6.293   7.199 -0.2497 -0.4485  1.7243
  146MOL    H9849688   3.381   6.493   7.153 -0.1885  0.8632  0.7991
  146MOL    H9949689   3.526   6.504   7.365  0.7241  2.3099 -0.3466
  146MOL   H10049690   3.513   6.570   7.599  1.1273  0.2516 -0.5601
  146MOL   H10149691   3.299   6.566   7.726 -1.0740  2.6784 -0.7560
  146MOL   H10249692   3.106   6.508   7.621  1.4719 -0.6942  0.8845
  146MOL   H10349693   3.097   6.419   7.368  1.4212 -2.8740 -0.1834
  146MOL   C10449694   3.207   6.469   6.996  0.3435 -0.6882  0.2090
  146MOL   C10549695   3.077   6.447   6.918 -0.6974  0.0495  0.0977
  146MOL   C10649696   2.958   6.523   6.984 -0.4039  0.6353 -0.9084
  146MOL   C10749697   2.906   6.642   6.933  0.4278 -0.1123 -0.0494
  146MOL   C10849698   2.801   6.704   7.003 -0.2629  0.6250 -0.2132
  146MOL   C10949699   2.731   6.637   7.105 -0.0401 -0.1667 -0.2194
  146MOL   C11049700   2.788   6.518   7.164 -0.6792 -0.1588  0.4602
  146MOL   C11149701   2.906   6.465   7.106  0.6437 -0.5212  0.2093
  146MOL   O11249702   3.106   6.490   6.786 -0.0016  0.2812  1.0583
  146MOL   H11349703   3.237   6.573   7.001 -0.8064 -0.3352 -0.1577
  146MOL   H11449704   3.287   6.413   6.947 -1.4680 -2.3709 -0.9166
  146MOL   H11549705   3.048   6.343   6.921 -0.2485 -0.1571 -1.9209
  146MOL   H11649706   2.952   6.693   6.849  0.5762 -1.3974 -0.7599
  146MOL   H11749707   2.755   6.795   6.967 -2.5445  0.8901  3.1516
  146MOL   H11849708   2.645   6.684   7.148  0.3547  0.0563  0.3267
  146MOL   H11949709   2.742   6.470   7.249  0.5562 -0.8114  0.7719
  146MOL   H12049710   2.942   6.371   7.145  1.0974 -1.2370 -1.8326
  146MOL   C12149711   3.028   6.405   6.700 -0.6471 -0.6080 -0.5244
  146MOL   C12249712   3.031   6.455   6.551  0.2339  0.0165 -0.6175
  146MOL   C12349713   3.002   6.606   6.529 -0.9271 -0.1088  0.2385
  146MOL   C12449714   2.879   6.658   6.499 -0.4270  0.0556  0.2224
  146MOL   C12549715   2.863   6.797   6.478 -0.4956  0.0794  0.2302
  146MOL   C12649716   2.974   6.885   6.495 -0.4287 -0.3266 -0.2555
  146MOL   C12749717   3.096   6.832   6.536 -0.2182 -0.2539  0.2909
  146MOL   C12849718   3.109   6.693   6.551 -0.0498 -0.0076 -0.3336
  146MOL   O12949719   3.145   6.411   6.473 -0.4062 -0.2339 -0.4222
  146MOL   H13049720   2.928   6.420   6.740 -0.1647  0.3401  0.3780
  146MOL   H13149721   3.062   6.302   6.698  0.1676 -0.3598 -0.0415
  146MOL   H13249722   2.944   6.409   6.505 -0.5558 -0.4651  1.3513
  146MOL   H13349723   2.809   6.578   6.479  0.9286 -1.1968  0.3995
  146MOL   H13449724   2.768   6.835   6.445 -0.2336 -0.7528 -1.5205
  146MOL   H13549725   2.974   6.985   6.453 -0.6214 -0.5764 -0.8549
  146MOL   H13649726   3.182   6.897   6.547 -1.0214  0.8005  0.4124
  146MOL   H13749727   3.204   6.647   6.574  0.9931  1.1715 -2.1097
  146MOL   C13849728   3.105   6.383   6.337  0.6886 -0.2293 -0.5325
  146MOL   C13949729   3.026   6.254   6.306  0.1678 -0.6374  0.0297
  146MOL   C14049730   3.080   6.138   6.393  0.5164 -0.5648  0.3113
  146MOL   C14149731   3.002   6.073   6.490  0.7880 -0.2179 -0.2383
  146MOL   C14249732   3.050   5.962   6.557  0.5027 -0.0309  0.5514
  146MOL   C14349733   3.181   5.911   6.539  0.1363  0.6647 -0.2454
  146MOL   C14449734   3.262   5.986   6.448 -0.3939 -0.0332  0.2137
  146MOL   C14549735   3.213   6.097   6.377  0.2572 -0.2569 -0.6322
  146MOL   O14649736   2.883   6.280   6.311 -0.0158 -0.2012  0.1119
  146MOL   H14749737   3.198   6.367   6.283  0.8559  1.8365 -0.8910
  146MOL   H14849738   3.051   6.468   6.296  0.0637  0.2100  1.1368
  146MOL   H14949739   3.042   6.246   6.198  1.6808  0.7415  0.1181
  146MOL   H15049740   2.903   6.115   6.501  1.0479  0.5194 -0.6687
  146MOL   H15149741   2.986   5.913   6.628 -2.2831 -0.9322 -2.4788
  146MOL   H15249742   3.223   5.825   6.588  0.7463  0.1668 -1.6063
  146MOL   H15349743   3.361   5.953   6.421 -1.3788 -1.7071 -1.4552
  146MOL   H15449744   3.284   6.146   6.313 -0.7512  1.8022 -0.2082
  146MOL   C15549745   2.807   6.206   6.223  0.8863  0.8736  0.6871
  146MOL   C15649746   2.769   6.288   6.096  0.3300  0.0135  0.4206
  146MOL   C15749747   2.717   6.423   6.142 -0.9080  0.6605 -0.2149
  146MOL   C15849748   2.579   6.444   6.166  0.4322 -0.2270  0.3159
  146MOL   C15949749   2.533   6.567   6.201 -0.3902 -0.6009 -0.2668
  146MOL   C16049750   2.619   6.679   6.208  0.1598 -0.0359 -0.4277
  146MOL   C16149751   2.755   6.665   6.179 -0.0883 -0.1377  0.1898
  146MOL   C16249752   2.805   6.534   6.148  0.3616  0.4372  0.3596
  146MOL   O16349753   2.885   6.293   6.021  0.4346  0.1805  0.2709
  146MOL   H16449754   2.713   6.193   6.277  1.7611  1.2328  2.3291
  146MOL   H16549755   2.847   6.109   6.195  0.5090  0.6565  0.8919
  146MOL   H16649756   2.690   6.238   6.039  1.3911  0.6480 -1.6467
  146MOL   H16749757   2.510   6.361   6.161  1.8715 -1.3869 -0.5462
  146MOL   H16849758   2.427   6.573   6.223 -0.0708  2.0819  0.8267
  146MOL   H16949759   2.577   6.776   6.230  0.1692 -0.2064  0.3675
  146MOL   H17049760   2.812   6.756   6.185 -3.0431  1.8108 -0.2103
  146MOL   H17149761   2.909   6.522   6.119  0.8802  3.4470  0.8384
  146MOL   C17249762   2.871   6.347   5.892  0.4364  0.1185  0.2413
  146MOL   C17349763   3.010   6.375   5.845 -0.1617  0.1706 -0.4654
  146MOL   C17449764   3.113   6.273   5.893 -0.2593  0.2949  0.2484
  146MOL   C17549765   3.121   6.149   5.831  0.0575 -0.2361 -0.7515
  146MOL   C17649766   3.226   6.059   5.859 -0.1632 -0.1928 -0.6288
  146MOL   C17749767   3.317   6.081   5.963 -0.0707 -0.9171  0.5798
  146MOL   C17849768   3.299   6.198   6.035 -0.4203 -0.4519 -0.4889
  146MOL   C17949769   3.200   6.295   6.002 -0.2785  0.0084  0.5106
  146MOL   O18049770   3.045   6.508   5.883 -0.1561  0.3368 -0.4611
  146MOL   H18149771   2.822   6.280   5.822  1.1368  0.2419 -0.3775
  146MOL   H18249772   2.806   6.434   5.892  0.5780  0.2242  0.5374
  146MOL   H18349773   3.015   6.365   5.736 -0.9275  1.1733 -0.6073
  146MOL   H18449774   3.048   6.115   5.760 -0.3338 -0.3735 -0.2890
  146MOL   H18549775   3.228   5.972   5.794  0.7840 -0.0881 -0.7402
  146MOL   H18649776   3.398   6.014   5.985  1.5972  1.8553  3.3754
  146MOL   H18749777   3.375   6.217   6.110  2.1185 -1.1773 -2.8135
  146MOL   H18849778   3.201   6.390   6.054  1.5313  0.4432 -0.2609
  146MOL   C18949779   3.147   6.570   5.807 -0.2084  0.8197 -0.0217
  146MOL   C19049780   3.177   6.718   5.848  0.3408  0.1159 -0.1461
  146MOL   C19149781   3.246   6.787   5.731  0.2826  0.3570  0.2299
  146MOL   C19249782   3.389   6.774   5.714  0.0027 -0.0951 -0.8185
  146MOL   C19349783   3.451   6.848   5.616 -0.5416 -0.2774 -0.6093
  146MOL   C19449784   3.372   6.925   5.527  0.3758  0.3019  0.2083
  146MOL   C19549785   3.233   6.942   5.546 -0.2141 -0.2688  0.0898
  146MOL   C19649786   3.171   6.874   5.653  0.0713 -0.0857  0.8457
  146MOL   O19749787   3.255   6.719   5.966  0.0972 -0.2247  0.3884
  146MOL   H19849788   3.246   6.524   5.810 -0.5757  0.1378  2.6629
  146MOL   H19949789   3.113   6.561   5.703 -1.4198 -0.7345  0.4815
  146MOL   H20049790   3.082   6.769   5.861 -0.6984 -1.9111  0.4779
  146MOL   H20149791   3.437   6.711   5.787  0.0372  1.3257  0.4213
  146MOL   H20249792   3.558   6.844   5.600 -0.2081  1.9876  0.8091
  146MOL   H20349793   3.419   6.979   5.446 -0.6254  0.6565 -0.1527
  146MOL   H20449794   3.182   7.021   5.493  0.2163 -0.3782 -0.4834
  146MOL   H20549795   3.065   6.881   5.673  0.0498 -0.3068  0.8027
  146MOL   C20649796   3.260   6.842   6.049  0.3554 -0.4595  0.0106
  146MOL   C20749797   3.295   6.809   6.192 -0.0711 -0.0484 -0.9040
  146MOL   C20849798   3.310   6.941   6.261 -0.3392  0.6512 -0.3411
  146MOL   C20949799   3.200   7.022   6.290 -0.3600 -0.2560 -0.2839
  146MOL   C21049800   3.214   7.155   6.342  0.2026  0.2183 -0.4508
  146MOL   C21149801   3.343   7.196   6.378 -0.1986 -0.2373 -0.1336
  146MOL   C21249802   3.456   7.117   6.354  0.0552 -0.9239  0.9588
  146MOL   C21349803   3.441   6.990   6.295  0.0520 -0.9819 -0.1753
  146MOL   O21449804   3.414   6.739   6.201 -0.5427  0.0666 -0.4259
  146MOL   H21549805   3.336   6.903   6.000 -0.4946  1.5393  1.1351
  146MOL   H21649806   3.168   6.899   6.036  0.9988  0.2379 -1.6138
  146MOL   H21749807   3.210   6.758   6.237 -0.1062 -0.2932 -1.2428
  146MOL   H21849808   3.102   6.978   6.278  0.1490 -1.7022  0.6678
  146MOL   H21949809   3.132   7.224   6.360  0.4188 -0.3853  3.1872
  146MOL   H22049810   3.353   7.295   6.420  0.4952 -0.2913 -0.1566
  146MOL   H22149811   3.555   7.145   6.389 -0.0243  1.2411 -0.4608
  146MOL   H22249812   3.527   6.930   6.269 -0.2592 -0.9061 -1.4111
  146MOL   C22349813   3.396   6.609   6.262 -0.1216  1.0243 -0.1094
  146MOL   C22449814   3.531   6.540   6.267  0.3737  0.2334  0.0828
  146MOL   C22549815   3.522   6.406   6.351  0.3341 -0.2496  0.0851
  146MOL   C22649816   3.573   6.286   6.296 -0.1206  0.2717 -0.1399
  146MOL   C22749817   3.599   6.182   6.386  0.5559  0.2819 -0.1712
  146MOL   C22849818   3.555   6.194   6.521 -0.6997 -0.4026 -1.1918
  146MOL   C22949819   3.492   6.310   6.569  0.4309 -0.3969 -0.4686
  146MOL   C23049820   3.483   6.422   6.481 -0.8915 -0.3609 -1.3360
  146MOL   O23149821   3.590   6.509   6.143 -0.0303  0.4614 -0.0890
  146MOL   H23249822   3.346   6.621   6.358  0.7520  0.3141  0.4516
  146MOL   H23349823   3.325   6.550   6.203  0.5385  1.0508 -0.9496
  146MOL   H23449824   3.611   6.587   6.324  0.3855  1.9645 -1.3336
  146MOL   H23549825   3.606   6.281   6.193 -1.7736 -0.4418 -0.6586
  146MOL   H23649826   3.643   6.091   6.346  0.6143  0.6046 -0.8458
  146MOL   H23749827   3.567   6.113   6.592  3.0350 -1.7364 -3.2173
  146MOL   H23849828   3.452   6.312   6.669  4.3069  0.9440  1.1617
  146MOL   H23949829   3.462   6.521   6.520 -2.1146 -0.7580 -0.9532
  146MOL   C24049830   3.632   6.619   6.067  0.5860  0.0196  0.2101
  146MOL   C24149831   3.752   6.578   5.973 -0.8075  0.3625 -0.4279
  146MOL   C24249832   3.722   6.467   5.865  0.0626 -0.1171  0.5276
  146MOL   C24349833   3.605   6.383   5.866  0.5263  0.3042 -0.7170
  146MOL   C24449834   3.594   6.278   5.775 -0.3161  0.5113  0.1343
  146MOL   C24549835   3.688   6.258   5.674 -0.1406  0.1970 -0.1779
  146MOL   C24649836   3.799   6.343   5.665  0.4232  0.6107 -0.3060
  146MOL   C24749837   3.812   6.448   5.756  0.4599 -0.3482 -0.0706
  146MOL   O24849838   3.805   6.692   5.907  0.5921 -0.4714 -0.8187
  146MOL   H24949839   3.554   6.646   5.996 -0.3034 -0.8581  0.8421
  146MOL   H25049840   3.659   6.701   6.135  1.2587 -0.5498  0.6307
  146MOL   H25149841   3.831   6.535   6.034 -0.6694 -0.1912 -0.9855
  146MOL   H25249842   3.517   6.402   5.926  1.5205  2.0008  0.2592
  146MOL   H25349843   3.508   6.213   5.772  1.2778 -1.7101  1.2133
  146MOL   H25449844   3.677   6.169   5.614 -3.9616 -1.8964  3.3743
  146MOL   H25549845   3.873   6.325   5.588 -1.6653 -3.3431 -1.5678
  146MOL   H25649846   3.905   6.501   5.750  1.4871 -2.1890 -0.8971
  146MOL   C25749847   3.875   6.783   5.993 -0.1090 -0.1077  0.0494
  146MOL   C25849848   4.016   6.823   5.929 -0.0584  0.9571 -0.4174
  146MOL   C25949849   4.109   6.881   6.033  0.8897  0.1440 -0.2439
  146MOL   C26049850   4.208   6.797   6.098  0.4975  0.1258 -0.0004
  146MOL   C26149851   4.297   6.850   6.189  0.0437 -0.2307 -0.1365
  146MOL   C26249852   4.298   6.989   6.225  0.2068  0.4046 -0.3922
  146MOL   C26349853   4.198   7.067   6.168 -0.0257 -0.5229 -0.4949
  146MOL   C26449854   4.103   7.016   6.075  0.4941  0.5618  0.2065
  146MOL   O26549855   3.990   6.913   5.819 -0.1395  0.0383  1.3496
  146MOL   H26649856   3.902   6.725   6.081  0.6829  0.1626 -0.0177
  146MOL   H26749857   3.823   6.877   6.012  0.4090  0.0224  0.8283
  146MOL   H26849858   4.076   6.741   5.890 -0.4886  1.0602 -1.3156
  146MOL   H26949859   4.217   6.692   6.075  1.9286  0.4264 -0.8905
  146MOL   H27049860   4.380   6.788   6.222  0.5902  1.0676  0.9665
  146MOL   H27149861   4.374   7.020   6.294 -0.1077  0.7559 -0.2031
  146MOL   H27249862   4.185   7.170   6.197  1.7906 -0.0084 -1.4369
  146MOL   H27349863   4.017   7.070   6.037  1.6829  2.9944  0.8448
  146MOL   C27449864   4.104   6.943   5.741 -0.3479 -0.0114 -0.0874
  146MOL   C27549865   4.080   7.084   5.669  0.2043  0.0555 -0.1823
  146MOL   C27649866   4.178   7.097   5.556  0.8321 -0.6990 -0.4779
  146MOL   C27749867   4.312   7.131   5.582  0.5740  0.0450 -0.1771
  146MOL   C27849868   4.407   7.130   5.480  0.1896 -0.6011  0.0444
  146MOL   C27949869   4.367   7.120   5.343  0.8503 -0.1346  0.1265
  146MOL   C28049870   4.231   7.108   5.317  0.5483  0.1533  0.4421
  146MOL   C28149871   4.137   7.079   5.419  0.0702 -0.0617  0.2013
  146MOL   O28249872   4.089   7.187   5.765 -0.1499 -0.3317  0.0038
  146MOL   H28349873   4.189   6.948   5.809 -1.4997 -0.7368  1.4398
  146MOL   H28449874   4.122   6.863   5.670  0.1969  2.2280 -2.5455
  146MOL   H28549875   3.983   7.070   5.621 -0.2462 -0.4350  0.8583
  146MOL   H28649876   4.349   7.146   5.682  0.8411 -0.5470 -0.1876
  146MOL   H28749877   4.511   7.154   5.496 -0.1547  0.3275  0.9195
  146MOL   H28849878   4.435   7.136   5.261 -0.2555 -0.4997 -0.8679
  146MOL   H28949879   4.209   7.104   5.211  2.3791 -0.1768  0.0561
  146MOL   H29049880   4.036   7.064   5.382  0.3404  0.8874 -0.9770
  146MOL   C29149881   4.051   7.313   5.722  0.6542 -0.7935  0.0695
  146MOL   C29249882   3.899   7.324   5.692 -0.1148  0.0085 -0.1155
  146MOL   C29349883   3.809   7.268   5.806 -0.3467  0.4979 -0.0626
  146MOL   C29449884   3.744   7.142   5.788  1.0167 -0.6649  0.0230
  146MOL   C29549885   3.659   7.093   5.893  0.0388  0.0273  0.3052
  146MOL   C29649886   3.647   7.163   6.018  0.5774  0.5755 -0.2175
  146MOL   C29749887   3.714   7.283   6.038 -0.7574  0.0932  0.0679
  146MOL   C29849888   3.797   7.330   5.930  0.1031  0.6161  0.0880
  146MOL   O29949889   3.873   7.464   5.682 -0.3391  0.2255  0.1307
  146MOL   H30049890   4.115   7.346   5.641 -0.0398  0.0859 -0.1388
  146MOL   H30149891   4.065   7.392   5.796 -1.0937  0.2025 -0.6167
  146MOL   H30249892   3.880   7.270   5.599  1.4063 -0.3917 -0.2153
  146MOL   H30349893   3.753   7.099   5.690 -1.1051  0.0135 -0.5023
  146MOL   H30449894   3.612   6.995   5.888 -0.9301  0.4688  0.5366
  146MOL   H30549895   3.596   7.116   6.100  0.6301  0.0525 -0.4833
  146MOL   H30649896   3.725   7.318   6.140  0.9463 -1.9037  0.6001
  146MOL   H30749897   3.871   7.406   5.950 -0.3586  0.5881  1.9417
  146MOL   C30849898   3.867   7.534   5.558 -0.5430  0.0898 -0.4171
  146MOL   C30949899   3.984   7.630   5.538 -0.6090  0.0240 -0.4926
  146MOL   C31049900   4.017   7.733   5.643 -0.4635 -0.1957  0.2805
  146MOL   C31149901   3.960   7.860   5.635  0.5959 -0.4680 -0.1600
  146MOL   C31249902   3.983   7.955   5.740 -0.5407  0.3631  0.5889
  146MOL   C31349903   4.052   7.916   5.854 -0.2428 -1.2428 -0.4045
  146MOL   C31449904   4.103   7.789   5.862 -0.4762 -0.1539 -0.6692
  146MOL   C31549905   4.090   7.695   5.757  0.3615 -0.3750 -0.6662
  146MOL   O31649906   4.090   7.542   5.524 -0.2702 -1.0908  0.6120
  146MOL   H31749907   3.779   7.598   5.559 -0.6860 -0.0745  2.2085
  146MOL   H31849908   3.848   7.467   5.474 -0.5979 -0.8179  0.3085
  146MOL   H31949909   3.966   7.680   5.443 -0.3276 -0.3759 -0.7587
  146MOL   H32049910   3.905   7.885   5.545  0.5163 -2.2350 -0.6356
  146MOL   H32149911   3.943   8.056   5.737 -1.7363 -0.1531 -2.9615
  146MOL   H32249912   4.064   7.991   5.931 -3.5597 -1.3947  0.2962
  146MOL   H32349913   4.153   7.755   5.952 -0.3074  0.6386 -0.4586
  146MOL   H32449914   4.135   7.598   5.773  1.0396 -0.0409 -0.5351
  146MOL   C32549915   4.186   7.602   5.436 -0.0342  0.1656  0.2914
  146MOL   C32649916   4.275   7.487   5.397  0.1371 -0.3021 -0.1711
  146MOL   C32749917   4.378   7.529   5.293 -0.3144 -1.0096 -0.8392
  146MOL   C32849918   4.518   7.533   5.328  0.1350 -0.0546 -0.3559
  146MOL   C32949919   4.613   7.580   5.231  0.1902  0.7722 -0.1762
  146MOL   C33049920   4.566   7.629   5.103 -0.1066  0.4324 -0.1912
  146MOL   C33149921   4.434   7.628   5.069 -0.1732 -0.4651 -0.0765
  146MOL   C33249922   4.341   7.569   5.160 -0.7042  0.6819  0.7159
  146MOL   O33349923   4.336   7.454   5.520 -0.0576  0.2193 -0.3072
  146MOL   H33449924   4.234   7.677   5.498 -2.0048  0.5363  1.4264
  146MOL   H33549925   4.139   7.655   5.353  2.1194 -0.4867 -1.3853
  146MOL   H33649926   4.225   7.393   5.374  1.1258 -0.4984 -1.5767
  146MOL   H33749927   4.554   7.503   5.425  0.0965  1.5595  0.1766
  146MOL   H33849928   4.715   7.598   5.261  0.4369 -0.2223 -0.3890
  146MOL   H33949929   4.642   7.678   5.045  0.2074 -0.6436 -0.7133
  146MOL   H34049930   4.404   7.670   4.974  2.7371 -0.2687 -0.9631
  146MOL   H34149931   4.236   7.577   5.140 -1.1554 -0.0749  2.6201
  146MOL   H34249932   4.265   7.438   5.581  2.6019  0.7558  3.1073
   8.07997   8.07997   8.07997
